                               Psi4 1.3.2 release

  ==> Input File <==

--------------------------------------------------------------------------
#psi4
#
memory 32 gb

molecule  {
0 1
  O        0.9636680    -1.0001680    -0.4301960
  N        0.7679840     1.1102310     0.3050190
  C       -1.3243600    -0.1423310    -0.3721570
  C        0.1381010     0.0595700    -0.1541750
  C       -2.0674230     1.1831610    -0.2295090
  C       -1.8648280    -1.2049810     0.5921130
  C        2.2187300    -0.5510310    -0.1110300
  C        2.1041050     0.7294570     0.3348460
  H       -1.4517930    -0.5154570    -1.3975200
  H       -1.9460070     1.5800180     0.7812150
  H       -3.1336970     1.0333660    -0.4232700
  H       -1.6836890     1.9287350    -0.9294360
  H       -1.7477770    -0.8676130     1.6266340
  H       -1.3321260    -2.1520890     0.4742110
  H       -2.9287500    -1.3798940     0.4051340
  H        3.0327410    -1.2424980    -0.2628180
  H        2.8683097     1.3685479     0.7652517
units angstrom
no_reorient  #important for SAPT in psi4, default
symmetry c1  #important for SAPT in psi4, default
}

set PROPERTIES_ORIGIN ["COM"]
properties('MP2/aug-cc-pvtz', properties = ['dipole'])
--------------------------------------------------------------------------

    Molecular point group: c1
  Charge       = 0
  Multiplicity = 1
  Basis Set: AUG-CC-PVTZ
    Blend: AUG-CC-PVTZ
  Basis Set: (AUG-CC-PVTZ AUX)
    Blend: AUG-CC-PVTZ-JKFIT

    Orbital Energies [Eh]
    ---------------------

    Doubly Occupied:

       1A    -20.633573     2A    -15.560137     3A    -11.334782
       4A    -11.290475     5A    -11.260433     6A    -11.251570
       7A    -11.225561     8A    -11.217245     9A     -1.475748
      10A     -1.225526    11A     -1.103727    12A     -1.006018
      13A     -0.939065    14A     -0.859379    15A     -0.826096
      16A     -0.771829    17A     -0.713359    18A     -0.662017
      19A     -0.635238    20A     -0.607447    21A     -0.599726
      22A     -0.571451    23A     -0.557566    24A     -0.541801
      25A     -0.506359    26A     -0.491166    27A     -0.489449
      28A     -0.455410    29A     -0.447994    30A     -0.331121

  @DF-RHF Final Energy:  -361.87370514595329

   => Energetics <=

    Nuclear Repulsion Energy =            372.3085076874479000
    One-Electron Energy =               -1229.1818897207956525
    Two-Electron Energy =                 494.9996768873944575
    Total Energy =                       -361.8737051459532950
  Basis Set: (AUG-CC-PVTZ AUX)
    Blend: AUG-CC-PVTZ-RI
    Molecular point group: c1

    Geometry (in Angstrom), charge = 0, multiplicity = 1:

       Center              X                  Y                   Z               Mass
    ------------   -----------------  -----------------  -----------------  -----------------
         O            0.889552331188    -1.001845966824    -0.422622707302    15.994914619570
         N            0.693868331188     1.108553033176     0.312592292698    14.003074004430
         C           -1.398475668812    -0.144008966824    -0.364583707302    12.000000000000
         C            0.063985331188     0.057892033176    -0.146601707302    12.000000000000
         C           -2.141538668812     1.181483033176    -0.221935707302    12.000000000000
         C           -1.938943668812    -1.206658966824     0.599686292698    12.000000000000
         C            2.144614331188    -0.552708966824    -0.103456707302    12.000000000000
         C            2.029989331188     0.727779033176     0.342419292698    12.000000000000
         H           -1.525908668812    -0.517134966824    -1.389946707302     1.007825032230
         H           -2.020122668812     1.578340033176     0.788788292698     1.007825032230
         H           -3.207812668812     1.031688033176    -0.415696707302     1.007825032230
         H           -1.757804668812     1.927057033176    -0.921862707302     1.007825032230
         H           -1.821892668812    -0.869290966824     1.634207292698     1.007825032230
         H           -1.406241668812    -2.153766966824     0.481784292698     1.007825032230
         H           -3.002865668812    -1.381571966824     0.412707292698     1.007825032230
         H            2.958625331188    -1.244175966824    -0.255244707302     1.007825032230
         H            2.794194031188     1.366869933176     0.772824992698     1.007825032230

  Basis Set: AUG-CC-PVTZ
    Blend: AUG-CC-PVTZ
  Basis Set: (AUG-CC-PVTZ AUX)
    Blend: AUG-CC-PVTZ-JKFIT
	 Reference Energy          =    -361.8737051459532950 [Eh]
	 Singles Energy            =      -0.0000000000000000 [Eh]
	 Same-Spin Energy          =      -0.3800171988881420 [Eh]
	 Opposite-Spin Energy      =      -1.2185034806120081 [Eh]
	 Correlation Energy        =      -1.5985206795001501 [Eh]
	 Total Energy              =    -363.4722258254534495 [Eh]

	 ================> DF-SCS-MP2 Energies <==================
	-----------------------------------------------------------
	 SCS Same-Spin Scale       =       0.3333333333333333 [-]
	 SCS Opposite-Spin Scale   =       1.2000000000000000 [-]
	 SCS Same-Spin Energy      =      -0.1266723996293806 [Eh]
	 SCS Opposite-Spin Energy  =      -1.4622041767344096 [Eh]
	 SCS Correlation Energy    =      -1.5888765763637902 [Eh]
	 SCS Total Energy          =    -363.4625817223171111 [Eh]
	-----------------------------------------------------------

  Dipole Moment: [D]
     X:     0.1597      Y:    -1.2875      Z:    -0.3035     Total:     1.3324

*** Psi4 exiting successfully. Buy a developer a beer!
