                               Psi4 1.3.2 release

  ==> Input File <==

--------------------------------------------------------------------------
#psi4
#
memory 32 gb

molecule  {
0 1
  O        0.9636680    -1.0001680    -0.4301960
  N        0.7679840     1.1102310     0.3050190
  C       -1.3243600    -0.1423310    -0.3721570
  C        0.1381010     0.0595700    -0.1541750
  C       -2.0674230     1.1831610    -0.2295090
  C       -1.8648280    -1.2049810     0.5921130
  C        2.2187300    -0.5510310    -0.1110300
  C        2.1041050     0.7294570     0.3348460
  H       -1.4517930    -0.5154570    -1.3975200
  H       -1.9460070     1.5800180     0.7812150
  H       -3.1336970     1.0333660    -0.4232700
  H       -1.6836890     1.9287350    -0.9294360
  H       -1.7477770    -0.8676130     1.6266340
  H       -1.3321260    -2.1520890     0.4742110
  H       -2.9287500    -1.3798940     0.4051340
  H        3.0384957    -1.2256294    -0.3095334
  H        2.8799090     1.4020910     0.6717620
units angstrom
no_reorient  #important for SAPT in psi4, default
symmetry c1  #important for SAPT in psi4, default
}

set PROPERTIES_ORIGIN ["COM"]
properties('MP2/aug-cc-pvtz', properties = ['dipole'])
--------------------------------------------------------------------------

    Molecular point group: c1
  Charge       = 0
  Multiplicity = 1
  Basis Set: AUG-CC-PVTZ
    Blend: AUG-CC-PVTZ
  Basis Set: (AUG-CC-PVTZ AUX)
    Blend: AUG-CC-PVTZ-JKFIT

    Orbital Energies [Eh]
    ---------------------

    Doubly Occupied:

       1A    -20.633478     2A    -15.560145     3A    -11.334777
       4A    -11.290383     5A    -11.260119     6A    -11.251554
       7A    -11.225464     8A    -11.217254     9A     -1.475662
      10A     -1.225528    11A     -1.103708    12A     -1.006007
      13A     -0.939025    14A     -0.859441    15A     -0.826265
      16A     -0.771938    17A     -0.713165    18A     -0.662735
      19A     -0.634697    20A     -0.607609    21A     -0.599764
      22A     -0.571565    23A     -0.557708    24A     -0.541792
      25A     -0.506497    26A     -0.491095    27A     -0.489387
      28A     -0.455239    29A     -0.448245    30A     -0.331135

  @DF-RHF Final Energy:  -361.87415639591762

   => Energetics <=

    Nuclear Repulsion Energy =            372.3156156417598481
    One-Electron Energy =               -1229.1967854670206179
    Two-Electron Energy =                 495.0070134293430897
    Total Energy =                       -361.8741563959176233
  Basis Set: (AUG-CC-PVTZ AUX)
    Blend: AUG-CC-PVTZ-RI
    Molecular point group: c1

    Geometry (in Angstrom), charge = 0, multiplicity = 1:

       Center              X                  Y                   Z               Mass
    ------------   -----------------  -----------------  -----------------  -----------------
         O            0.889394862516    -1.002303398162    -0.421350498539    15.994914619570
         N            0.693710862516     1.108095601838     0.313864501461    14.003074004430
         C           -1.398633137484    -0.144466398162    -0.363311498539    12.000000000000
         C            0.063827862516     0.057434601838    -0.145329498539    12.000000000000
         C           -2.141696137484     1.181025601838    -0.220663498539    12.000000000000
         C           -1.939101137484    -1.207116398162     0.600958501461    12.000000000000
         C            2.144456862516    -0.553166398162    -0.102184498539    12.000000000000
         C            2.029831862516     0.727321601838     0.343691501461    12.000000000000
         H           -1.526066137484    -0.517592398162    -1.388674498539     1.007825032230
         H           -2.020280137484     1.577882601838     0.790060501461     1.007825032230
         H           -3.207970137484     1.031230601838    -0.414424498539     1.007825032230
         H           -1.757962137484     1.926599601838    -0.920590498539     1.007825032230
         H           -1.822050137484    -0.869748398162     1.635479501461     1.007825032230
         H           -1.406399137484    -2.154224398162     0.483056501461     1.007825032230
         H           -3.003023137484    -1.382029398162     0.413979501461     1.007825032230
         H            2.964222562516    -1.227764798162    -0.300687898539     1.007825032230
         H            2.805635862516     1.399955601838     0.680607501461     1.007825032230

  Basis Set: AUG-CC-PVTZ
    Blend: AUG-CC-PVTZ
  Basis Set: (AUG-CC-PVTZ AUX)
    Blend: AUG-CC-PVTZ-JKFIT
	 Reference Energy          =    -361.8741563959176233 [Eh]
	 Singles Energy            =      -0.0000000000000000 [Eh]
	 Same-Spin Energy          =      -0.3799966091553120 [Eh]
	 Opposite-Spin Energy      =      -1.2184521416621745 [Eh]
	 Correlation Energy        =      -1.5984487508174865 [Eh]
	 Total Energy              =    -363.4726051467351340 [Eh]

	 ================> DF-SCS-MP2 Energies <==================
	-----------------------------------------------------------
	 SCS Same-Spin Scale       =       0.3333333333333333 [-]
	 SCS Opposite-Spin Scale   =       1.2000000000000000 [-]
	 SCS Same-Spin Energy      =      -0.1266655363851040 [Eh]
	 SCS Opposite-Spin Energy  =      -1.4621425699946093 [Eh]
	 SCS Correlation Energy    =      -1.5888081063797133 [Eh]
	 SCS Total Energy          =    -363.4629645022973250 [Eh]
	-----------------------------------------------------------

  Dipole Moment: [D]
     X:     0.1785      Y:    -1.2403      Z:    -0.4129     Total:     1.3194

*** Psi4 exiting successfully. Buy a developer a beer!
