                               Psi4 1.3.2 release

  ==> Input File <==

--------------------------------------------------------------------------
#psi4
#
memory 32 gb

molecule  {
0 1
  O        0.9636680    -1.0001680    -0.4301960
  N        0.7679840     1.1102310     0.3050190
  C       -1.3243600    -0.1423310    -0.3721570
  C        0.1381010     0.0595700    -0.1541750
  C       -2.0674230     1.1831610    -0.2295090
  C       -1.8648280    -1.2049810     0.5921130
  C        2.2187300    -0.5510310    -0.1110300
  C        2.1041050     0.7294570     0.3348460
  H       -1.4517930    -0.5154570    -1.3975200
  H       -1.9460070     1.5800180     0.7812150
  H       -3.1336970     1.0333660    -0.4232700
  H       -1.6836890     1.9287350    -0.9294360
  H       -1.7477770    -0.8676130     1.6266340
  H       -1.3321260    -2.1520890     0.4742110
  H       -2.9287500    -1.3798940     0.4051340
  H        3.0500051    -1.1918921    -0.4029643
  H        2.8799090     1.4020910     0.6717620
units angstrom
no_reorient  #important for SAPT in psi4, default
symmetry c1  #important for SAPT in psi4, default
}

set PROPERTIES_ORIGIN ["COM"]
properties('MP2/aug-cc-pvtz', properties = ['dipole'])
--------------------------------------------------------------------------

    Molecular point group: c1
  Charge       = 0
  Multiplicity = 1
  Basis Set: AUG-CC-PVTZ
    Blend: AUG-CC-PVTZ
  Basis Set: (AUG-CC-PVTZ AUX)
    Blend: AUG-CC-PVTZ-JKFIT

    Orbital Energies [Eh]
    ---------------------

    Doubly Occupied:

       1A    -20.633400     2A    -15.560318     3A    -11.335044
       4A    -11.290921     5A    -11.260477     6A    -11.251651
       7A    -11.225500     8A    -11.217362     9A     -1.475670
      10A     -1.225715    11A     -1.103788    12A     -1.005763
      13A     -0.939091    14A     -0.859514    15A     -0.825489
      16A     -0.771994    17A     -0.712115    18A     -0.664356
      19A     -0.631336    20A     -0.607900    21A     -0.600221
      22A     -0.571136    23A     -0.557432    24A     -0.541817
      25A     -0.506649    26A     -0.491086    27A     -0.489528
      28A     -0.455304    29A     -0.448355    30A     -0.331215

  @DF-RHF Final Energy:  -361.87308999753554

   => Energetics <=

    Nuclear Repulsion Energy =            372.2750905582742575
    One-Electron Energy =               -1229.1160689012269813
    Two-Electron Energy =                 494.9678883454171228
    Total Energy =                       -361.8730899975355442
  Basis Set: (AUG-CC-PVTZ AUX)
    Blend: AUG-CC-PVTZ-RI
    Molecular point group: c1

    Geometry (in Angstrom), charge = 0, multiplicity = 1:

       Center              X                  Y                   Z               Mass
    ------------   -----------------  -----------------  -----------------  -----------------
         O            0.889290427232    -1.002609527459    -0.420502714759    15.994914619570
         N            0.693606427232     1.107789472541     0.314712285241    14.003074004430
         C           -1.398737572768    -0.144772527459    -0.362463714759    12.000000000000
         C            0.063723427232     0.057128472541    -0.144481714759    12.000000000000
         C           -2.141800572768     1.180719472541    -0.219815714759    12.000000000000
         C           -1.939205572768    -1.207422527459     0.601806285241    12.000000000000
         C            2.144352427232    -0.553472527459    -0.101336714759    12.000000000000
         C            2.029727427232     0.727015472541     0.344539285241    12.000000000000
         H           -1.526170572768    -0.517898527459    -1.387826714759     1.007825032230
         H           -2.020384572768     1.577576472541     0.790908285241     1.007825032230
         H           -3.208074572768     1.030924472541    -0.413576714759     1.007825032230
         H           -1.758066572768     1.926293472541    -0.919742714759     1.007825032230
         H           -1.822154572768    -0.870054527459     1.636327285241     1.007825032230
         H           -1.406503572768    -2.154530527459     0.483904285241     1.007825032230
         H           -3.003127572768    -1.382335527459     0.414827285241     1.007825032230
         H            2.975627527232    -1.194333627459    -0.393271014759     1.007825032230
         H            2.805531427232     1.399649472541     0.681455285241     1.007825032230

  Basis Set: AUG-CC-PVTZ
    Blend: AUG-CC-PVTZ
  Basis Set: (AUG-CC-PVTZ AUX)
    Blend: AUG-CC-PVTZ-JKFIT
	 Reference Energy          =    -361.8730899975355442 [Eh]
	 Singles Energy            =      -0.0000000000000000 [Eh]
	 Same-Spin Energy          =      -0.3800620518581317 [Eh]
	 Opposite-Spin Energy      =      -1.2186041394352123 [Eh]
	 Correlation Energy        =      -1.5986661912933440 [Eh]
	 Total Energy              =    -363.4717561888288628 [Eh]

	 ================> DF-SCS-MP2 Energies <==================
	-----------------------------------------------------------
	 SCS Same-Spin Scale       =       0.3333333333333333 [-]
	 SCS Opposite-Spin Scale   =       1.2000000000000000 [-]
	 SCS Same-Spin Energy      =      -0.1266873506193772 [Eh]
	 SCS Opposite-Spin Energy  =      -1.4623249673222547 [Eh]
	 SCS Correlation Energy    =      -1.5890123179416320 [Eh]
	 SCS Total Energy          =    -363.4621023154771819 [Eh]
	-----------------------------------------------------------

  Dipole Moment: [D]
     X:     0.1742      Y:    -1.1984      Z:    -0.4906     Total:     1.3066

*** Psi4 exiting successfully. Buy a developer a beer!
