                               Psi4 1.3.2 release

  ==> Input File <==

--------------------------------------------------------------------------
#psi4
#
memory 32 gb

molecule  {
0 1
  O        0.9636680    -1.0001680    -0.4301960
  N        0.7679840     1.1102310     0.3050190
  C       -1.3243600    -0.1423310    -0.3721570
  C        0.1381010     0.0595700    -0.1541750
  C       -2.0674230     1.1831610    -0.2295090
  C       -1.8648280    -1.2049810     0.5921130
  C        2.2187300    -0.5510310    -0.1110300
  C        2.1041050     0.7294570     0.3348460
  H       -1.4517930    -0.5154570    -1.3975200
  H       -1.9460070     1.5800180     0.7812150
  H       -3.1336970     1.0333660    -0.4232700
  H       -1.6836890     1.9287350    -0.9294360
  H       -1.7477770    -0.8676130     1.6266340
  H       -1.3321260    -2.1520890     0.4742110
  H       -2.9287500    -1.3798940     0.4051340
  H        3.0327410    -1.2424980    -0.2628180
  H        2.8567105     1.3350048     0.8587413
units angstrom
no_reorient  #important for SAPT in psi4, default
symmetry c1  #important for SAPT in psi4, default
}

set PROPERTIES_ORIGIN ["COM"]
properties('MP2/aug-cc-pvtz', properties = ['dipole'])
--------------------------------------------------------------------------

    Molecular point group: c1
  Charge       = 0
  Multiplicity = 1
  Basis Set: AUG-CC-PVTZ
    Blend: AUG-CC-PVTZ
  Basis Set: (AUG-CC-PVTZ AUX)
    Blend: AUG-CC-PVTZ-JKFIT

    Orbital Energies [Eh]
    ---------------------

    Doubly Occupied:

       1A    -20.633841     2A    -15.560186     3A    -11.334900
       4A    -11.290989     5A    -11.261517     6A    -11.251645
       7A    -11.225694     8A    -11.217290     9A     -1.476020
      10A     -1.225597    11A     -1.103795    12A     -1.005948
      13A     -0.939145    14A     -0.859237    15A     -0.825309
      16A     -0.771589    17A     -0.712830    18A     -0.662408
      19A     -0.634477    20A     -0.607641    21A     -0.598723
      22A     -0.570763    23A     -0.557137    24A     -0.541807
      25A     -0.506287    26A     -0.491249    27A     -0.489590
      28A     -0.455793    29A     -0.447335    30A     -0.331178

  @DF-RHF Final Energy:  -361.87181701230128

   => Energetics <=

    Nuclear Repulsion Energy =            372.2603428728274935
    One-Electron Energy =               -1229.0844802710794283
    Two-Electron Energy =                 494.9523203859505998
    Total Energy =                       -361.8718170123012783
  Basis Set: (AUG-CC-PVTZ AUX)
    Blend: AUG-CC-PVTZ-RI
    Molecular point group: c1

    Geometry (in Angstrom), charge = 0, multiplicity = 1:

       Center              X                  Y                   Z               Mass
    ------------   -----------------  -----------------  -----------------  -----------------
         O            0.889657581310    -1.001541599681    -0.423471023720    15.994914619570
         N            0.693973581310     1.108857400319     0.311743976280    14.003074004430
         C           -1.398370418690    -0.143704599681    -0.365432023720    12.000000000000
         C            0.064090581310     0.058196400319    -0.147450023720    12.000000000000
         C           -2.141433418690     1.181787400319    -0.222784023720    12.000000000000
         C           -1.938838418690    -1.206354599681     0.598837976280    12.000000000000
         C            2.144719581310    -0.552404599681    -0.104305023720    12.000000000000
         C            2.030094581310     0.728083400319     0.341570976280    12.000000000000
         H           -1.525803418690    -0.516830599681    -1.390795023720     1.007825032230
         H           -2.020017418690     1.578644400319     0.787939976280     1.007825032230
         H           -3.207707418690     1.031992400319    -0.416545023720     1.007825032230
         H           -1.757699418690     1.927361400319    -0.922711023720     1.007825032230
         H           -1.821787418690    -0.868986599681     1.633358976280     1.007825032230
         H           -1.406136418690    -2.153462599681     0.480935976280     1.007825032230
         H           -3.002760418690    -1.381267599681     0.411858976280     1.007825032230
         H            2.958730581310    -1.243871599681    -0.256093023720     1.007825032230
         H            2.782700081310     1.333631200319     0.865466276280     1.007825032230

  Basis Set: AUG-CC-PVTZ
    Blend: AUG-CC-PVTZ
  Basis Set: (AUG-CC-PVTZ AUX)
    Blend: AUG-CC-PVTZ-JKFIT
	 Reference Energy          =    -361.8718170123012783 [Eh]
	 Singles Energy            =      -0.0000000000000000 [Eh]
	 Same-Spin Energy          =      -0.3801117060902724 [Eh]
	 Opposite-Spin Energy      =      -1.2187470554133499 [Eh]
	 Correlation Energy        =      -1.5988587615036223 [Eh]
	 Total Energy              =    -363.4706757738048850 [Eh]

	 ================> DF-SCS-MP2 Energies <==================
	-----------------------------------------------------------
	 SCS Same-Spin Scale       =       0.3333333333333333 [-]
	 SCS Opposite-Spin Scale   =       1.2000000000000000 [-]
	 SCS Same-Spin Energy      =      -0.1267039020300908 [Eh]
	 SCS Opposite-Spin Energy  =      -1.4624964664960198 [Eh]
	 SCS Correlation Energy    =      -1.5892003685261107 [Eh]
	 SCS Total Energy          =    -363.4610173808273998 [Eh]
	-----------------------------------------------------------

  Dipole Moment: [D]
     X:     0.1320      Y:    -1.3278      Z:    -0.2404     Total:     1.3558

*** Psi4 exiting successfully. Buy a developer a beer!
