                               Psi4 1.3.2 release

  ==> Input File <==

--------------------------------------------------------------------------
#psi4
#
memory 32 gb

molecule  {
0 1
  O        0.9636680    -1.0001680    -0.4301960
  N        0.7679840     1.1102310     0.3050190
  C       -1.3243600    -0.1423310    -0.3721570
  C        0.1381010     0.0595700    -0.1541750
  C       -2.0674230     1.1831610    -0.2295090
  C       -1.8648280    -1.2049810     0.5921130
  C        2.2187300    -0.5510310    -0.1110300
  C        2.1041050     0.7294570     0.3348460
  H       -1.4517930    -0.5154570    -1.3975200
  H       -1.9460070     1.5800180     0.7812150
  H       -3.1336970     1.0333660    -0.4232700
  H       -1.6836890     1.9287350    -0.9294360
  H       -1.7477770    -0.8676130     1.6266340
  H       -1.3321260    -2.1520890     0.4742110
  H       -2.9287500    -1.3798940     0.4051340
  H        3.0442504    -1.2087608    -0.3562489
  H        2.8799090     1.4020910     0.6717620
units angstrom
no_reorient  #important for SAPT in psi4, default
symmetry c1  #important for SAPT in psi4, default
}

set PROPERTIES_ORIGIN ["COM"]
properties('MP2/aug-cc-pvtz', properties = ['dipole'])
--------------------------------------------------------------------------

    Molecular point group: c1
  Charge       = 0
  Multiplicity = 1
  Basis Set: AUG-CC-PVTZ
    Blend: AUG-CC-PVTZ
  Basis Set: (AUG-CC-PVTZ AUX)
    Blend: AUG-CC-PVTZ-JKFIT

    Orbital Energies [Eh]
    ---------------------

    Doubly Occupied:

       1A    -20.633448     2A    -15.560212     3A    -11.334878
       4A    -11.290585     5A    -11.260256     6A    -11.251589
       7A    -11.225471     8A    -11.217297     9A     -1.475664
      10A     -1.225600    11A     -1.103737    12A     -1.005912
      13A     -0.939048    14A     -0.859468    15A     -0.825967
      16A     -0.771960    17A     -0.712719    18A     -0.663582
      19A     -0.633111    20A     -0.607809    21A     -0.599991
      22A     -0.571394    23A     -0.557574    24A     -0.541795
      25A     -0.506567    26A     -0.491081    27A     -0.489449
      28A     -0.455261    29A     -0.448286    30A     -0.331168

  @DF-RHF Final Energy:  -361.87376543469446

   => Energetics <=

    Nuclear Repulsion Energy =            372.2996910897863359
    One-Electron Energy =               -1229.1651536833585396
    Two-Electron Energy =                 494.9916971588776846
    Total Energy =                       -361.8737654346944623
  Basis Set: (AUG-CC-PVTZ AUX)
    Blend: AUG-CC-PVTZ-RI
    Molecular point group: c1

    Geometry (in Angstrom), charge = 0, multiplicity = 1:

       Center              X                  Y                   Z               Mass
    ------------   -----------------  -----------------  -----------------  -----------------
         O            0.889342644874    -1.002456462357    -0.420926606195    15.994914619570
         N            0.693658644874     1.107942537643     0.314288393805    14.003074004430
         C           -1.398685355126    -0.144619462357    -0.362887606195    12.000000000000
         C            0.063775644874     0.057281537643    -0.144905606195    12.000000000000
         C           -2.141748355126     1.180872537643    -0.220239606195    12.000000000000
         C           -1.939153355126    -1.207269462357     0.601382393805    12.000000000000
         C            2.144404644874    -0.553319462357    -0.101760606195    12.000000000000
         C            2.029779644874     0.727168537643     0.344115393805    12.000000000000
         H           -1.526118355126    -0.517745462357    -1.388250606195     1.007825032230
         H           -2.020332355126     1.577729537643     0.790484393805     1.007825032230
         H           -3.208022355126     1.031077537643    -0.414000606195     1.007825032230
         H           -1.758014355126     1.926446537643    -0.920166606195     1.007825032230
         H           -1.822102355126    -0.869901462357     1.635903393805     1.007825032230
         H           -1.406451355126    -2.154377462357     0.483480393805     1.007825032230
         H           -3.003075355126    -1.382182462357     0.414403393805     1.007825032230
         H            2.969925044874    -1.211049262357    -0.346979506195     1.007825032230
         H            2.805583644874     1.399802537643     0.681031393805     1.007825032230

  Basis Set: AUG-CC-PVTZ
    Blend: AUG-CC-PVTZ
  Basis Set: (AUG-CC-PVTZ AUX)
    Blend: AUG-CC-PVTZ-JKFIT
	 Reference Energy          =    -361.8737654346944623 [Eh]
	 Singles Energy            =      -0.0000000000000000 [Eh]
	 Same-Spin Energy          =      -0.3800217520543793 [Eh]
	 Opposite-Spin Energy      =      -1.2185096666706667 [Eh]
	 Correlation Energy        =      -1.5985314187250461 [Eh]
	 Total Energy              =    -363.4722968534194933 [Eh]

	 ================> DF-SCS-MP2 Energies <==================
	-----------------------------------------------------------
	 SCS Same-Spin Scale       =       0.3333333333333333 [-]
	 SCS Opposite-Spin Scale   =       1.2000000000000000 [-]
	 SCS Same-Spin Energy      =      -0.1266739173514597 [Eh]
	 SCS Opposite-Spin Energy  =      -1.4622116000048000 [Eh]
	 SCS Correlation Energy    =      -1.5888855173562597 [Eh]
	 SCS Total Energy          =    -363.4626509520506943 [Eh]
	-----------------------------------------------------------

  Dipole Moment: [D]
     X:     0.1781      Y:    -1.2208      Z:    -0.4523     Total:     1.3140

*** Psi4 exiting successfully. Buy a developer a beer!
