                               Psi4 1.3.2 release

  ==> Input File <==

--------------------------------------------------------------------------
#psi4
#
memory 32 gb

molecule  {
0 1
  O        0.9636680    -1.0001680    -0.4301960
  N        0.7679840     1.1102310     0.3050190
  C       -1.3243600    -0.1423310    -0.3721570
  C        0.1381010     0.0595700    -0.1541750
  C       -2.0674230     1.1831610    -0.2295090
  C       -1.8648280    -1.2049810     0.5921130
  C        2.2187300    -0.5510310    -0.1110300
  C        2.1041050     0.7294570     0.3348460
  H       -1.4517930    -0.5154570    -1.3975200
  H       -1.9460070     1.5800180     0.7812150
  H       -3.1336970     1.0333660    -0.4232700
  H       -1.6836890     1.9287350    -0.9294360
  H       -1.7477770    -0.8676130     1.6266340
  H       -1.3321260    -2.1520890     0.4742110
  H       -2.9287500    -1.3798940     0.4051340
  H        3.0327410    -1.2424980    -0.2628180
  H        2.8799090     1.4020910     0.6717620
units angstrom
no_reorient  #important for SAPT in psi4, default
symmetry c1  #important for SAPT in psi4, default
}

set PROPERTIES_ORIGIN ["COM"]
properties('MP2/aug-cc-pvtz', properties = ['dipole'])
--------------------------------------------------------------------------

    Molecular point group: c1
  Charge       = 0
  Multiplicity = 1
  Basis Set: AUG-CC-PVTZ
    Blend: AUG-CC-PVTZ
  Basis Set: (AUG-CC-PVTZ AUX)
    Blend: AUG-CC-PVTZ-JKFIT

    Orbital Energies [Eh]
    ---------------------

    Doubly Occupied:

       1A    -20.633489     2A    -15.560117     3A    -11.334740
       4A    -11.290315     5A    -11.260065     6A    -11.251545
       7A    -11.225477     8A    -11.217232     9A     -1.475661
      10A     -1.225501    11A     -1.103700    12A     -1.006042
      13A     -0.939023    14A     -0.859434    15A     -0.826371
      16A     -0.771926    17A     -0.713438    18A     -0.661838
      19A     -0.636051    20A     -0.607323    21A     -0.599533
      22A     -0.571649    23A     -0.557842    24A     -0.541809
      25A     -0.506441    26A     -0.491127    27A     -0.489344
      28A     -0.455237    29A     -0.448233    30A     -0.331117

  @DF-RHF Final Energy:  -361.87428776845809

   => Energetics <=

    Nuclear Repulsion Energy =            372.3226629510110115
    One-Electron Energy =               -1229.2106576245869292
    Two-Electron Energy =                 495.0137069051178287
    Total Energy =                       -361.8742877684580890
  Basis Set: (AUG-CC-PVTZ AUX)
    Blend: AUG-CC-PVTZ-RI
    Molecular point group: c1

    Geometry (in Angstrom), charge = 0, multiplicity = 1:

       Center              X                  Y                   Z               Mass
    ------------   -----------------  -----------------  -----------------  -----------------
         O            0.889447080159    -1.002150333967    -0.421774389975    15.994914619570
         N            0.693763080159     1.108248666033     0.313440610025    14.003074004430
         C           -1.398580919841    -0.144313333967    -0.363735389975    12.000000000000
         C            0.063880080159     0.057587666033    -0.145753389975    12.000000000000
         C           -2.141643919841     1.181178666033    -0.221087389975    12.000000000000
         C           -1.939048919841    -1.206963333967     0.600534610025    12.000000000000
         C            2.144509080159    -0.553013333967    -0.102608389975    12.000000000000
         C            2.029884080159     0.727474666033     0.343267610025    12.000000000000
         H           -1.526013919841    -0.517439333967    -1.389098389975     1.007825032230
         H           -2.020227919841     1.578035666033     0.789636610025     1.007825032230
         H           -3.207917919841     1.031383666033    -0.414848389975     1.007825032230
         H           -1.757909919841     1.926752666033    -0.921014389975     1.007825032230
         H           -1.821997919841    -0.869595333967     1.635055610025     1.007825032230
         H           -1.406346919841    -2.154071333967     0.482632610025     1.007825032230
         H           -3.002970919841    -1.381876333967     0.413555610025     1.007825032230
         H            2.958520080159    -1.244480333967    -0.254396389975     1.007825032230
         H            2.805688080159     1.400108666033     0.680183610025     1.007825032230

  Basis Set: AUG-CC-PVTZ
    Blend: AUG-CC-PVTZ
  Basis Set: (AUG-CC-PVTZ AUX)
    Blend: AUG-CC-PVTZ-JKFIT
	 Reference Energy          =    -361.8742877684580890 [Eh]
	 Singles Energy            =      -0.0000000000000000 [Eh]
	 Same-Spin Energy          =      -0.3799867716451520 [Eh]
	 Opposite-Spin Energy      =      -1.2184295871235804 [Eh]
	 Correlation Energy        =      -1.5984163587687323 [Eh]
	 Total Energy              =    -363.4727041272268480 [Eh]

	 ================> DF-SCS-MP2 Energies <==================
	-----------------------------------------------------------
	 SCS Same-Spin Scale       =       0.3333333333333333 [-]
	 SCS Opposite-Spin Scale   =       1.2000000000000000 [-]
	 SCS Same-Spin Energy      =      -0.1266622572150507 [Eh]
	 SCS Opposite-Spin Energy  =      -1.4621155045482965 [Eh]
	 SCS Correlation Energy    =      -1.5887777617633472 [Eh]
	 SCS Total Energy          =    -363.4630655302214564 [Eh]
	-----------------------------------------------------------

  Dipole Moment: [D]
     X:     0.1753      Y:    -1.2570      Z:    -0.3726     Total:     1.3227

*** Psi4 exiting successfully. Buy a developer a beer!
