                               Psi4 1.3.2 release

  ==> Input File <==

--------------------------------------------------------------------------
#psi4
#
memory 32 gb

molecule  {
0 1
  O        0.9636680    -1.0001680    -0.4301960
  N        0.7679840     1.1102310     0.3050190
  C       -1.3243600    -0.1423310    -0.3721570
  C        0.1381010     0.0595700    -0.1541750
  C       -2.0674230     1.1831610    -0.2295090
  C       -1.8648280    -1.2049810     0.5921130
  C        2.2187300    -0.5510310    -0.1110300
  C        2.1041050     0.7294570     0.3348460
  H       -1.4517930    -0.5154570    -1.3975200
  H       -1.9460070     1.5800180     0.7812150
  H       -3.1336970     1.0333660    -0.4232700
  H       -1.6836890     1.9287350    -0.9294360
  H       -1.7477770    -0.8676130     1.6266340
  H       -1.3321260    -2.1520890     0.4742110
  H       -2.9287500    -1.3798940     0.4051340
  H        3.0327410    -1.2424980    -0.2628180
  H        2.8625101     1.3517763     0.8119965
units angstrom
no_reorient  #important for SAPT in psi4, default
symmetry c1  #important for SAPT in psi4, default
}

set PROPERTIES_ORIGIN ["COM"]
properties('MP2/aug-cc-pvtz', properties = ['dipole'])
--------------------------------------------------------------------------

    Molecular point group: c1
  Charge       = 0
  Multiplicity = 1
  Basis Set: AUG-CC-PVTZ
    Blend: AUG-CC-PVTZ
  Basis Set: (AUG-CC-PVTZ AUX)
    Blend: AUG-CC-PVTZ-JKFIT

    Orbital Energies [Eh]
    ---------------------

    Doubly Occupied:

       1A    -20.633684     2A    -15.560158     3A    -11.334831
       4A    -11.290689     5A    -11.260888     6A    -11.251601
       7A    -11.225622     8A    -11.217264     9A     -1.475861
      10A     -1.225555    11A     -1.103755    12A     -1.005987
      13A     -0.939101    14A     -0.859316    15A     -0.825760
      16A     -0.771725    17A     -0.713147    18A     -0.662188
      19A     -0.634842    20A     -0.607537    21A     -0.599367
      22A     -0.571171    23A     -0.557378    24A     -0.541803
      25A     -0.506322    26A     -0.491202    27A     -0.489515
      28A     -0.455580    29A     -0.447711    30A     -0.331143

  @DF-RHF Final Energy:  -361.87294001867451

   => Energetics <=

    Nuclear Repulsion Energy =            372.2885383463701032
    One-Electron Energy =               -1229.1415523538610159
    Two-Electron Energy =                 494.9800739888163434
    Total Energy =                       -361.8729400186745124
  Basis Set: (AUG-CC-PVTZ AUX)
    Blend: AUG-CC-PVTZ-RI
    Molecular point group: c1

    Geometry (in Angstrom), charge = 0, multiplicity = 1:

       Center              X                  Y                   Z               Mass
    ------------   -----------------  -----------------  -----------------  -----------------
         O            0.889604956249    -1.001693782799    -0.423046865511    15.994914619570
         N            0.693920956249     1.108705217201     0.312168134489    14.003074004430
         C           -1.398423043751    -0.143856782799    -0.365007865511    12.000000000000
         C            0.064037956249     0.058044217201    -0.147025865511    12.000000000000
         C           -2.141486043751     1.181635217201    -0.222359865511    12.000000000000
         C           -1.938891043751    -1.206506782799     0.599262134489    12.000000000000
         C            2.144666956249    -0.552556782799    -0.103880865511    12.000000000000
         C            2.030041956249     0.727931217201     0.341995134489    12.000000000000
         H           -1.525856043751    -0.516982782799    -1.390370865511     1.007825032230
         H           -2.020070043751     1.578492217201     0.788364134489     1.007825032230
         H           -3.207760043751     1.031840217201    -0.416120865511     1.007825032230
         H           -1.757752043751     1.927209217201    -0.922286865511     1.007825032230
         H           -1.821840043751    -0.869138782799     1.633783134489     1.007825032230
         H           -1.406189043751    -2.153614782799     0.481360134489     1.007825032230
         H           -3.002813043751    -1.381419782799     0.412283134489     1.007825032230
         H            2.958677956249    -1.244023782799    -0.255668865511     1.007825032230
         H            2.788447056249     1.350250517201     0.819145634489     1.007825032230

  Basis Set: AUG-CC-PVTZ
    Blend: AUG-CC-PVTZ
  Basis Set: (AUG-CC-PVTZ AUX)
    Blend: AUG-CC-PVTZ-JKFIT
	 Reference Energy          =    -361.8729400186745124 [Eh]
	 Singles Energy            =      -0.0000000000000000 [Eh]
	 Same-Spin Energy          =      -0.3800565727988664 [Eh]
	 Opposite-Spin Energy      =      -1.2186023296137050 [Eh]
	 Correlation Energy        =      -1.5986589024125712 [Eh]
	 Total Energy              =    -363.4715989210870930 [Eh]

	 ================> DF-SCS-MP2 Energies <==================
	-----------------------------------------------------------
	 SCS Same-Spin Scale       =       0.3333333333333333 [-]
	 SCS Opposite-Spin Scale   =       1.2000000000000000 [-]
	 SCS Same-Spin Energy      =      -0.1266855242662888 [Eh]
	 SCS Opposite-Spin Energy  =      -1.4623227955364460 [Eh]
	 SCS Correlation Energy    =      -1.5890083198027347 [Eh]
	 SCS Total Energy          =    -363.4619483384772707 [Eh]
	-----------------------------------------------------------

  Dipole Moment: [D]
     X:     0.1473      Y:    -1.3065      Z:    -0.2712     Total:     1.3424

*** Psi4 exiting successfully. Buy a developer a beer!
