                               Psi4 1.3.2 release

  ==> Input File <==

--------------------------------------------------------------------------
#psi4
#
memory 32 gb

molecule  {
0 1
  O        0.9636680    -1.0001680    -0.4301960
  N        0.7679840     1.1102310     0.3050190
  C       -1.3243600    -0.1423310    -0.3721570
  C        0.1381010     0.0595700    -0.1541750
  C       -2.0674230     1.1831610    -0.2295090
  C       -1.8648280    -1.2049810     0.5921130
  C        2.2187300    -0.5510310    -0.1110300
  C        2.1041050     0.7294570     0.3348460
  H       -1.4517930    -0.5154570    -1.3975200
  H       -1.9460070     1.5800180     0.7812150
  H       -3.1336970     1.0333660    -0.4232700
  H       -1.6836890     1.9287350    -0.9294360
  H       -1.7477770    -0.8676130     1.6266340
  H       -1.3321260    -2.1520890     0.4742110
  H       -2.9287500    -1.3798940     0.4051340
  H        3.0327410    -1.2424980    -0.2628180
  H        2.8509108     1.3182332     0.9054862
units angstrom
no_reorient  #important for SAPT in psi4, default
symmetry c1  #important for SAPT in psi4, default
}

set PROPERTIES_ORIGIN ["COM"]
properties('MP2/aug-cc-pvtz', properties = ['dipole'])
--------------------------------------------------------------------------

    Molecular point group: c1
  Charge       = 0
  Multiplicity = 1
  Basis Set: AUG-CC-PVTZ
    Blend: AUG-CC-PVTZ
  Basis Set: (AUG-CC-PVTZ AUX)
    Blend: AUG-CC-PVTZ-JKFIT

    Orbital Energies [Eh]
    ---------------------

    Doubly Occupied:

       1A    -20.634042     2A    -15.560224     3A    -11.334988
       4A    -11.291375     5A    -11.262315     6A    -11.251703
       7A    -11.225777     8A    -11.217325     9A     -1.476224
      10A     -1.225650    11A     -1.103845    12A     -1.005905
      13A     -0.939200    14A     -0.859151    15A     -0.824759
      16A     -0.771424    17A     -0.712418    18A     -0.662672
      19A     -0.634160    20A     -0.607756    21A     -0.597831
      22A     -0.570214    23A     -0.556820    24A     -0.541810
      25A     -0.506251    26A     -0.491308    27A     -0.489674
      28A     -0.456038    29A     -0.446880    30A     -0.331227

  @DF-RHF Final Energy:  -361.87029308581134

   => Energetics <=

    Nuclear Repulsion Energy =            372.2243303227787692
    One-Electron Energy =               -1229.0113117975340629
    Two-Electron Energy =                 494.9166883889439532
    Total Energy =                       -361.8702930858113405
  Basis Set: (AUG-CC-PVTZ AUX)
    Blend: AUG-CC-PVTZ-RI
    Molecular point group: c1

    Geometry (in Angstrom), charge = 0, multiplicity = 1:

       Center              X                  Y                   Z               Mass
    ------------   -----------------  -----------------  -----------------  -----------------
         O            0.889710207278    -1.001389415656    -0.423895182837    15.994914619570
         N            0.694026207278     1.109009584344     0.311319817163    14.003074004430
         C           -1.398317792722    -0.143552415656    -0.365856182837    12.000000000000
         C            0.064143207278     0.058348584344    -0.147874182837    12.000000000000
         C           -2.141380792722     1.181939584344    -0.223208182837    12.000000000000
         C           -1.938785792722    -1.206202415656     0.598413817163    12.000000000000
         C            2.144772207278    -0.552252415656    -0.104729182837    12.000000000000
         C            2.030147207278     0.728235584344     0.341146817163    12.000000000000
         H           -1.525750792722    -0.516678415656    -1.391219182837     1.007825032230
         H           -2.019964792722     1.578796584344     0.787515817163     1.007825032230
         H           -3.207654792722     1.032144584344    -0.416969182837     1.007825032230
         H           -1.757646792722     1.927513584344    -0.923135182837     1.007825032230
         H           -1.821734792722    -0.868834415656     1.632934817163     1.007825032230
         H           -1.406083792722    -2.153310415656     0.480511817163     1.007825032230
         H           -3.002707792722    -1.381115415656     0.411434817163     1.007825032230
         H            2.958783207278    -1.243719415656    -0.256517182837     1.007825032230
         H            2.776953007278     1.317011784344     0.911787017163     1.007825032230

  Basis Set: AUG-CC-PVTZ
    Blend: AUG-CC-PVTZ
  Basis Set: (AUG-CC-PVTZ AUX)
    Blend: AUG-CC-PVTZ-JKFIT
	 Reference Energy          =    -361.8702930858113405 [Eh]
	 Singles Energy            =      -0.0000000000000000 [Eh]
	 Same-Spin Energy          =      -0.3801821060488304 [Eh]
	 Opposite-Spin Energy      =      -1.2189402179688034 [Eh]
	 Correlation Energy        =      -1.5991223240176338 [Eh]
	 Total Energy              =    -363.4694154098289687 [Eh]

	 ================> DF-SCS-MP2 Energies <==================
	-----------------------------------------------------------
	 SCS Same-Spin Scale       =       0.3333333333333333 [-]
	 SCS Opposite-Spin Scale   =       1.2000000000000000 [-]
	 SCS Same-Spin Energy      =      -0.1267273686829435 [Eh]
	 SCS Opposite-Spin Energy  =      -1.4627282615625641 [Eh]
	 SCS Correlation Energy    =      -1.5894556302455076 [Eh]
	 SCS Total Energy          =    -363.4597487160568221 [Eh]
	-----------------------------------------------------------

  Dipole Moment: [D]
     X:     0.1137      Y:    -1.3513      Z:    -0.2112     Total:     1.3724

*** Psi4 exiting successfully. Buy a developer a beer!
