                               Psi4 1.3.2 release

  ==> Input File <==

--------------------------------------------------------------------------
#psi4
#
memory 32 gb

molecule  {
0 1
  O        0.9636680    -1.0001680    -0.4301960
  N        0.7679840     1.1102310     0.3050190
  C       -1.3243600    -0.1423310    -0.3721570
  C        0.1381010     0.0595700    -0.1541750
  C       -2.0674230     1.1831610    -0.2295090
  C       -1.8648280    -1.2049810     0.5921130
  C        2.2187300    -0.5510310    -0.1110300
  C        2.1041050     0.7294570     0.3348460
  H       -1.4517930    -0.5154570    -1.3975200
  H       -1.9460070     1.5800180     0.7812150
  H       -3.1336970     1.0333660    -0.4232700
  H       -1.6836890     1.9287350    -0.9294360
  H       -1.7477770    -0.8676130     1.6266340
  H       -1.3321260    -2.1520890     0.4742110
  H       -2.9287500    -1.3798940     0.4051340
  H        3.0327410    -1.2424980    -0.2628180
  H        2.8741094     1.3853194     0.7185068
units angstrom
no_reorient  #important for SAPT in psi4, default
symmetry c1  #important for SAPT in psi4, default
}

set PROPERTIES_ORIGIN ["COM"]
properties('MP2/aug-cc-pvtz', properties = ['dipole'])
--------------------------------------------------------------------------

    Molecular point group: c1
  Charge       = 0
  Multiplicity = 1
  Basis Set: AUG-CC-PVTZ
    Blend: AUG-CC-PVTZ
  Basis Set: (AUG-CC-PVTZ AUX)
    Blend: AUG-CC-PVTZ-JKFIT

    Orbital Energies [Eh]
    ---------------------

    Doubly Occupied:

       1A    -20.633508     2A    -15.560124     3A    -11.334751
       4A    -11.290350     5A    -11.260158     6A    -11.251551
       7A    -11.225513     8A    -11.217235     9A     -1.475681
      10A     -1.225508    11A     -1.103708    12A     -1.006037
      13A     -0.939039    14A     -0.859420    15A     -0.826303
      16A     -0.771897    17A     -0.713458    18A     -0.661900
      19A     -0.635648    20A     -0.607375    21A     -0.599783
      22A     -0.571610    23A     -0.557718    24A     -0.541803
      25A     -0.506398    26A     -0.491141    27A     -0.489392
      28A     -0.455292    29A     -0.448171    30A     -0.331113

  @DF-RHF Final Energy:  -361.87414694620992

   => Energetics <=

    Nuclear Repulsion Energy =            372.3199454972222497
    One-Electron Energy =               -1229.2050212045789976
    Two-Electron Energy =                 495.0109287611467721
    Total Energy =                       -361.8741469462099190
  Basis Set: (AUG-CC-PVTZ AUX)
    Blend: AUG-CC-PVTZ-RI
    Molecular point group: c1

    Geometry (in Angstrom), charge = 0, multiplicity = 1:

       Center              X                  Y                   Z               Mass
    ------------   -----------------  -----------------  -----------------  -----------------
         O            0.889499705220    -1.001998149942    -0.422198548185    15.994914619570
         N            0.693815705220     1.108400850058     0.313016451815    14.003074004430
         C           -1.398528294780    -0.144161149942    -0.364159548185    12.000000000000
         C            0.063932705220     0.057739850058    -0.146177548185    12.000000000000
         C           -2.141591294780     1.181330850058    -0.221511548185    12.000000000000
         C           -1.938996294780    -1.206811149942     0.600110451815    12.000000000000
         C            2.144561705220    -0.552861149942    -0.103032548185    12.000000000000
         C            2.029936705220     0.727626850058     0.342843451815    12.000000000000
         H           -1.525961294780    -0.517287149942    -1.389522548185     1.007825032230
         H           -2.020175294780     1.578187850058     0.789212451815     1.007825032230
         H           -3.207865294780     1.031535850058    -0.415272548185     1.007825032230
         H           -1.757857294780     1.926904850058    -0.921438548185     1.007825032230
         H           -1.821945294780    -0.869443149942     1.634631451815     1.007825032230
         H           -1.406294294780    -2.153919149942     0.482208451815     1.007825032230
         H           -3.002918294780    -1.381724149942     0.413131451815     1.007825032230
         H            2.958572705220    -1.244328149942    -0.254820548185     1.007825032230
         H            2.799941105220     1.383489250058     0.726504251815     1.007825032230

  Basis Set: AUG-CC-PVTZ
    Blend: AUG-CC-PVTZ
  Basis Set: (AUG-CC-PVTZ AUX)
    Blend: AUG-CC-PVTZ-JKFIT
	 Reference Energy          =    -361.8741469462099190 [Eh]
	 Singles Energy            =      -0.0000000000000000 [Eh]
	 Same-Spin Energy          =      -0.3799938877770483 [Eh]
	 Opposite-Spin Energy      =      -1.2184469864905418 [Eh]
	 Correlation Energy        =      -1.5984408742675902 [Eh]
	 Total Energy              =    -363.4725878204774858 [Eh]

	 ================> DF-SCS-MP2 Energies <==================
	-----------------------------------------------------------
	 SCS Same-Spin Scale       =       0.3333333333333333 [-]
	 SCS Opposite-Spin Scale   =       1.2000000000000000 [-]
	 SCS Same-Spin Energy      =      -0.1266646292590161 [Eh]
	 SCS Opposite-Spin Energy  =      -1.4621363837886501 [Eh]
	 SCS Correlation Energy    =      -1.5888010130476662 [Eh]
	 SCS Total Energy          =    -363.4629479592575763 [Eh]
	-----------------------------------------------------------

  Dipole Moment: [D]
     X:     0.1691      Y:    -1.2710      Z:    -0.3374     Total:     1.3258

*** Psi4 exiting successfully. Buy a developer a beer!
