                               Psi4 1.3.2 release

  ==> Input File <==

--------------------------------------------------------------------------
#psi4
#
memory 32 gb

molecule  {
0 1
  O        0.9636680    -1.0001680    -0.4301960
  N        0.7679840     1.1102310     0.3050190
  C       -1.3243600    -0.1423310    -0.3721570
  C        0.1381010     0.0595700    -0.1541750
  C       -2.0674230     1.1831610    -0.2295090
  C       -1.8648280    -1.2049810     0.5921130
  C        2.2187300    -0.5510310    -0.1110300
  C        2.1041050     0.7294570     0.3348460
  H       -1.4517930    -0.5154570    -1.3975200
  H       -1.9460070     1.5800180     0.7812150
  H       -3.1336970     1.0333660    -0.4232700
  H       -1.6836890     1.9287350    -0.9294360
  H       -1.7477770    -0.8676130     1.6266340
  H       -1.3321260    -2.1520890     0.4742110
  H       -2.9287500    -1.3798940     0.4051340
  H        3.0615145    -1.1581549    -0.4963952
  H        2.8799090     1.4020910     0.6717620
units angstrom
no_reorient  #important for SAPT in psi4, default
symmetry c1  #important for SAPT in psi4, default
}

set PROPERTIES_ORIGIN ["COM"]
properties('MP2/aug-cc-pvtz', properties = ['dipole'])
--------------------------------------------------------------------------

    Molecular point group: c1
  Charge       = 0
  Multiplicity = 1
  Basis Set: AUG-CC-PVTZ
    Blend: AUG-CC-PVTZ
  Basis Set: (AUG-CC-PVTZ AUX)
    Blend: AUG-CC-PVTZ-JKFIT

    Orbital Energies [Eh]
    ---------------------

    Doubly Occupied:

       1A    -20.633267     2A    -15.560644     3A    -11.335557
       4A    -11.291983     5A    -11.261158     6A    -11.251851
       7A    -11.225620     8A    -11.217556     9A     -1.475695
      10A     -1.226071    11A     -1.103956    12A     -1.005328
      13A     -0.939237    14A     -0.859667    15A     -0.824084
      16A     -0.772097    17A     -0.710523    18A     -0.665620
      19A     -0.627450    20A     -0.607633    21A     -0.600695
      22A     -0.570333    23A     -0.557083    24A     -0.541913
      25A     -0.506843    26A     -0.491152    27A     -0.489739
      28A     -0.455442    29A     -0.448579    30A     -0.331355

  @DF-RHF Final Energy:  -361.87072485781118

   => Energetics <=

    Nuclear Repulsion Energy =            372.2012395528851130
    One-Electron Energy =               -1228.9676612941298117
    Two-Electron Energy =                 494.8956968834335157
    Total Energy =                       -361.8707248578111830
  Basis Set: (AUG-CC-PVTZ AUX)
    Blend: AUG-CC-PVTZ-RI
    Molecular point group: c1

    Geometry (in Angstrom), charge = 0, multiplicity = 1:

       Center              X                  Y                   Z               Mass
    ------------   -----------------  -----------------  -----------------  -----------------
         O            0.889185991947    -1.002915655848    -0.419654930979    15.994914619570
         N            0.693501991947     1.107483344152     0.315560069021    14.003074004430
         C           -1.398842008053    -0.145078655848    -0.361615930979    12.000000000000
         C            0.063618991947     0.056822344152    -0.143633930979    12.000000000000
         C           -2.141905008053     1.180413344152    -0.218967930979    12.000000000000
         C           -1.939310008053    -1.207728655848     0.602654069021    12.000000000000
         C            2.144247991947    -0.553778655848    -0.100488930979    12.000000000000
         C            2.029622991947     0.726709344152     0.345387069021    12.000000000000
         H           -1.526275008053    -0.518204655848    -1.386978930979     1.007825032230
         H           -2.020489008053     1.577270344152     0.791756069021     1.007825032230
         H           -3.208179008053     1.030618344152    -0.412728930979     1.007825032230
         H           -1.758171008053     1.925987344152    -0.918894930979     1.007825032230
         H           -1.822259008053    -0.870360655848     1.637175069021     1.007825032230
         H           -1.406608008053    -2.154836655848     0.484752069021     1.007825032230
         H           -3.003232008053    -1.382641655848     0.415675069021     1.007825032230
         H            2.987032491947    -1.160902555848    -0.485854130979     1.007825032230
         H            2.805426991947     1.399343344152     0.682303069021     1.007825032230

  Basis Set: AUG-CC-PVTZ
    Blend: AUG-CC-PVTZ
  Basis Set: (AUG-CC-PVTZ AUX)
    Blend: AUG-CC-PVTZ-JKFIT
	 Reference Energy          =    -361.8707248578111830 [Eh]
	 Singles Energy            =      -0.0000000000000000 [Eh]
	 Same-Spin Energy          =      -0.3801867124259409 [Eh]
	 Opposite-Spin Energy      =      -1.2189130309881415 [Eh]
	 Correlation Energy        =      -1.5990997434140823 [Eh]
	 Total Energy              =    -363.4698246012252412 [Eh]

	 ================> DF-SCS-MP2 Energies <==================
	-----------------------------------------------------------
	 SCS Same-Spin Scale       =       0.3333333333333333 [-]
	 SCS Opposite-Spin Scale   =       1.2000000000000000 [-]
	 SCS Same-Spin Energy      =      -0.1267289041419803 [Eh]
	 SCS Opposite-Spin Energy  =      -1.4626956371857698 [Eh]
	 SCS Correlation Energy    =      -1.5894245413277501 [Eh]
	 SCS Total Energy          =    -363.4601493991389134 [Eh]
	-----------------------------------------------------------

  Dipole Moment: [D]
     X:     0.1564      Y:    -1.1460      Z:    -0.5638     Total:     1.2868

*** Psi4 exiting successfully. Buy a developer a beer!
