                               Psi4 1.3.2 release

  ==> Input File <==

--------------------------------------------------------------------------
#psi4
#
memory 32 gb

molecule  {
0 1
  O        0.9636680    -1.0001680    -0.4301960
  N        0.7679840     1.1102310     0.3050190
  C       -1.3243600    -0.1423310    -0.3721570
  C        0.1381010     0.0595700    -0.1541750
  C       -2.0674230     1.1831610    -0.2295090
  C       -1.8648280    -1.2049810     0.5921130
  C        2.2187300    -0.5510310    -0.1110300
  C        2.1041050     0.7294570     0.3348460
  H       -1.4517930    -0.5154570    -1.3975200
  H       -1.9460070     1.5800180     0.7812150
  H       -3.1336970     1.0333660    -0.4232700
  H       -1.6836890     1.9287350    -0.9294360
  H       -1.7477770    -0.8676130     1.6266340
  H       -1.3321260    -2.1520890     0.4742110
  H       -2.9287500    -1.3798940     0.4051340
  H        3.0557598    -1.1750235    -0.4496798
  H        2.8799090     1.4020910     0.6717620
units angstrom
no_reorient  #important for SAPT in psi4, default
symmetry c1  #important for SAPT in psi4, default
}

set PROPERTIES_ORIGIN ["COM"]
properties('MP2/aug-cc-pvtz', properties = ['dipole'])
--------------------------------------------------------------------------

    Molecular point group: c1
  Charge       = 0
  Multiplicity = 1
  Basis Set: AUG-CC-PVTZ
    Blend: AUG-CC-PVTZ
  Basis Set: (AUG-CC-PVTZ AUX)
    Blend: AUG-CC-PVTZ-JKFIT

    Orbital Energies [Eh]
    ---------------------

    Doubly Occupied:

       1A    -20.633339     2A    -15.560462     3A    -11.335271
       4A    -11.291388     5A    -11.260779     6A    -11.251738
       7A    -11.225550     8A    -11.217449     9A     -1.475679
      10A     -1.225872    11A     -1.103861    12A     -1.005566
      13A     -0.939154    14A     -0.859580    15A     -0.824853
      16A     -0.772039    17A     -0.711374    18A     -0.665038
      19A     -0.629425    20A     -0.607854    21A     -0.600456
      22A     -0.570785    23A     -0.557273    24A     -0.541857
      25A     -0.506741    26A     -0.491110    27A     -0.489626
      28A     -0.455364    29A     -0.448453    30A     -0.331277

  @DF-RHF Final Energy:  -361.87209212333505

   => Energetics <=

    Nuclear Repulsion Energy =            372.2421323969844025
    One-Electron Energy =               -1229.0500194632882085
    Two-Electron Energy =                 494.9357949429687551
    Total Energy =                       -361.8720921233350509
  Basis Set: (AUG-CC-PVTZ AUX)
    Blend: AUG-CC-PVTZ-RI
    Molecular point group: c1

    Geometry (in Angstrom), charge = 0, multiplicity = 1:

       Center              X                  Y                   Z               Mass
    ------------   -----------------  -----------------  -----------------  -----------------
         O            0.889238209589    -1.002762591654    -0.420078822415    15.994914619570
         N            0.693554209589     1.107636408346     0.315136177585    14.003074004430
         C           -1.398789790411    -0.144925591654    -0.362039822415    12.000000000000
         C            0.063671209589     0.056975408346    -0.144057822415    12.000000000000
         C           -2.141852790411     1.180566408346    -0.219391822415    12.000000000000
         C           -1.939257790411    -1.207575591654     0.602230177585    12.000000000000
         C            2.144300209589    -0.553625591654    -0.100912822415    12.000000000000
         C            2.029675209589     0.726862408346     0.344963177585    12.000000000000
         H           -1.526222790411    -0.518051591654    -1.387402822415     1.007825032230
         H           -2.020436790411     1.577423408346     0.791332177585     1.007825032230
         H           -3.208126790411     1.030771408346    -0.413152822415     1.007825032230
         H           -1.758118790411     1.926140408346    -0.919318822415     1.007825032230
         H           -1.822206790411    -0.870207591654     1.636751177585     1.007825032230
         H           -1.406555790411    -2.154683591654     0.484328177585     1.007825032230
         H           -3.003179790411    -1.382488591654     0.415251177585     1.007825032230
         H            2.981330009589    -1.177618091654    -0.439562622415     1.007825032230
         H            2.805479209589     1.399496408346     0.681879177585     1.007825032230

  Basis Set: AUG-CC-PVTZ
    Blend: AUG-CC-PVTZ
  Basis Set: (AUG-CC-PVTZ AUX)
    Blend: AUG-CC-PVTZ-JKFIT
	 Reference Energy          =    -361.8720921233350509 [Eh]
	 Singles Energy            =      -0.0000000000000000 [Eh]
	 Same-Spin Energy          =      -0.3801172035310494 [Eh]
	 Opposite-Spin Energy      =      -1.2187379413826147 [Eh]
	 Correlation Energy        =      -1.5988551449136641 [Eh]
	 Total Energy              =    -363.4709472682487217 [Eh]

	 ================> DF-SCS-MP2 Energies <==================
	-----------------------------------------------------------
	 SCS Same-Spin Scale       =       0.3333333333333333 [-]
	 SCS Opposite-Spin Scale   =       1.2000000000000000 [-]
	 SCS Same-Spin Energy      =      -0.1267057345103498 [Eh]
	 SCS Opposite-Spin Energy  =      -1.4624855296591377 [Eh]
	 SCS Correlation Energy    =      -1.5891912641694874 [Eh]
	 SCS Total Energy          =    -363.4612833875045226 [Eh]
	-----------------------------------------------------------

  Dipole Moment: [D]
     X:     0.1669      Y:    -1.1734      Z:    -0.5278     Total:     1.2975

*** Psi4 exiting successfully. Buy a developer a beer!
