                               Psi4 1.3.2 release

  ==> Input File <==

--------------------------------------------------------------------------
#psi4
#
memory 32 gb

molecule  {
0 1
  C       -0.6460047     0.2125706    -0.0000117
  C        0.6072830    -0.2987480    -0.0000050
  C       -1.8649420    -0.4253110    -0.0000010
  C        1.8649420     0.4253110    -0.0000100
  C       -3.0721310     0.1700370    -0.0000030
  C        3.0721310    -0.1700390     0.0000280
  H       -0.6626240     1.3889280    -0.0000290
  H        0.6626240    -1.3889260     0.0000110
  H       -1.8062860    -1.5139730     0.0000120
  H        1.8062890     1.5139730    -0.0000480
  H       -3.9914240    -0.4056610     0.0000080
  H       -3.1700740     1.2522570    -0.0000140
  H        3.9914220     0.4056620     0.0000210
  H        3.1700710    -1.2522590     0.0000620
units angstrom
no_reorient  #important for SAPT in psi4, default
symmetry c1  #important for SAPT in psi4, default
}

set PROPERTIES_ORIGIN ["COM"]
properties('MP2/aug-cc-pvtz', properties = ['dipole'])
--------------------------------------------------------------------------

    Molecular point group: c1
  Charge       = 0
  Multiplicity = 1
  Basis Set: AUG-CC-PVTZ
    Blend: AUG-CC-PVTZ
  Basis Set: (AUG-CC-PVTZ AUX)
    Blend: AUG-CC-PVTZ-JKFIT

    Orbital Energies [Eh]
    ---------------------

    Doubly Occupied:

       1A    -11.246089     2A    -11.244126     3A    -11.242592
       4A    -11.238819     5A    -11.235316     6A    -11.234876
       7A     -1.116393     8A     -1.064215     9A     -0.983264
      10A     -0.859631    11A     -0.769100    12A     -0.749334
      13A     -0.668877    14A     -0.636231    15A     -0.600280
      16A     -0.576052    17A     -0.536031    18A     -0.515279
      19A     -0.483033    20A     -0.474310    21A     -0.400992
      22A     -0.290957

  @DF-RHF Final Energy:  -231.87954631451436

   => Energetics <=

    Nuclear Repulsion Energy =            194.1668177140578848
    One-Electron Energy =                -695.7611347821271011
    Two-Electron Energy =                 269.7147707535548875
    Total Energy =                       -231.8795463145143572
  Basis Set: (AUG-CC-PVTZ AUX)
    Blend: AUG-CC-PVTZ-RI
    Molecular point group: c1

    Geometry (in Angstrom), charge = 0, multiplicity = 1:

       Center              X                  Y                   Z               Mass
    ------------   -----------------  -----------------  -----------------  -----------------
         C           -0.640200961249     0.225487389972    -0.000011584840    12.000000000000
         C            0.613086738751    -0.285831210028    -0.000004884840    12.000000000000
         C           -1.859138261249    -0.412394210028    -0.000000884840    12.000000000000
         C            1.870745738751     0.438227789972    -0.000009884840    12.000000000000
         C           -3.066327261249     0.182953789972    -0.000002884840    12.000000000000
         C            3.077934738751    -0.157122210028     0.000028115160    12.000000000000
         H           -0.656820261249     1.401844789972    -0.000028884840     1.007825032230
         H            0.668427738751    -1.376009210028     0.000011115160     1.007825032230
         H           -1.800482261249    -1.501056210028     0.000012115160     1.007825032230
         H            1.812092738751     1.526889789972    -0.000047884840     1.007825032230
         H           -3.985620261249    -0.392744210028     0.000008115160     1.007825032230
         H           -3.164270261249     1.265173789972    -0.000013884840     1.007825032230
         H            3.997225738751     0.418578789972     0.000021115160     1.007825032230
         H            3.175874738751    -1.239342210028     0.000062115160     1.007825032230

  Basis Set: AUG-CC-PVTZ
    Blend: AUG-CC-PVTZ
  Basis Set: (AUG-CC-PVTZ AUX)
    Blend: AUG-CC-PVTZ-JKFIT
	 Reference Energy          =    -231.8795463145143572 [Eh]
	 Singles Energy            =      -0.0000000000000000 [Eh]
	 Same-Spin Energy          =      -0.2444323281622023 [Eh]
	 Opposite-Spin Energy      =      -0.8512136982603125 [Eh]
	 Correlation Energy        =      -1.0956460264225147 [Eh]
	 Total Energy              =    -232.9751923409368715 [Eh]

	 ================> DF-SCS-MP2 Energies <==================
	-----------------------------------------------------------
	 SCS Same-Spin Scale       =       0.3333333333333333 [-]
	 SCS Opposite-Spin Scale   =       1.2000000000000000 [-]
	 SCS Same-Spin Energy      =      -0.0814774427207341 [Eh]
	 SCS Opposite-Spin Energy  =      -1.0214564379123749 [Eh]
	 SCS Correlation Energy    =      -1.1029338806331090 [Eh]
	 SCS Total Energy          =    -232.9824801951474740 [Eh]
	-----------------------------------------------------------

  Dipole Moment: [D]
     X:     0.0199      Y:    -0.0510      Z:     0.0000     Total:     0.0548

*** Psi4 exiting successfully. Buy a developer a beer!
