                               Psi4 1.4a3.dev225

  ==> Input File <==

--------------------------------------------------------------------------
#psi4
#
memory 32 gb

molecule  {
0 1
  C       -0.6072990     0.2987600    -0.0000100
  C        0.6072990    -0.2987600     0.0000020
  C       -1.8649630    -0.4253540     0.0000010
  C        1.8649630     0.4253540    -0.0000070
  C       -3.0721420     0.1700200    -0.0000080
  C        3.0721410    -0.1700200     0.0000190
  H       -0.6626030     1.3889350    -0.0000290
  H        0.6615897    -1.3689597     0.0000197
  H       -1.8061510    -1.5140080     0.0000180
  H        1.8061510     1.5140080    -0.0000360
  H       -3.9915710    -0.4054530     0.0000010
  H       -3.1699730     1.2522670    -0.0000250
  H        3.9915700     0.4054520     0.0000140
  H        3.1699720    -1.2522680     0.0000490
units angstrom
no_reorient  #important for SAPT in psi4, default
symmetry c1  #important for SAPT in psi4, default
}

set PROPERTIES_ORIGIN ["COM"]
properties('MP2/aug-cc-pvtz', properties = ['dipole'])
--------------------------------------------------------------------------

    Molecular point group: c1
  Charge       = 0
  Multiplicity = 1
  Basis Set: AUG-CC-PVTZ
    Blend: AUG-CC-PVTZ
  Basis Set: (AUG-CC-PVTZ AUX)
    Blend: AUG-CC-PVTZ-JKFIT

    Orbital Energies [Eh]
    ---------------------

    Doubly Occupied:

       1A    -11.243554     2A    -11.243266     3A    -11.242122
       4A    -11.239515     5A    -11.232123     6A    -11.232012
       7A     -1.110481     8A     -1.057762     9A     -0.982762
      10A     -0.849168    11A     -0.763658    12A     -0.762351
      13A     -0.665107    14A     -0.635042    15A     -0.600895
      16A     -0.569512    17A     -0.542622    18A     -0.516507
      19A     -0.496182    20A     -0.467332    21A     -0.396442
      22A     -0.294028

  @DF-RHF Final Energy:  -231.89235608666817

   => Energetics <=

    Nuclear Repulsion Energy =            193.7103011361500648
    One-Electron Energy =                -694.9204298221037561
    Two-Electron Energy =                 269.3177725992854903
    Total Energy =                       -231.8923560866682010
  Basis Set: (AUG-CC-PVTZ AUX)
    Blend: AUG-CC-PVTZ-RI
    Molecular point group: c1

    Geometry (in Angstrom), charge = 0, multiplicity = 1:

       Center              X                  Y                   Z               Mass
    ------------   -----------------  -----------------  -----------------  -----------------
         C           -0.607286069559     0.298508576843    -0.000009697631    12.000000000000
         C            0.607311930441    -0.299011423157     0.000002302369    12.000000000000
         C           -1.864950069559    -0.425605423157     0.000001302369    12.000000000000
         C            1.864975930441     0.425102576843    -0.000006697631    12.000000000000
         C           -3.072129069559     0.169768576843    -0.000007697631    12.000000000000
         C            3.072153930441    -0.170271423157     0.000019302369    12.000000000000
         H           -0.662590069559     1.388683576843    -0.000028697631     1.007825032230
         H            0.661602630441    -1.369211123157     0.000020002369     1.007825032230
         H           -1.806138069559    -1.514259423157     0.000018302369     1.007825032230
         H            1.806163930441     1.513756576843    -0.000035697631     1.007825032230
         H           -3.991558069559    -0.405704423157     0.000001302369     1.007825032230
         H           -3.169960069559     1.252015576843    -0.000024697631     1.007825032230
         H            3.991582930441     0.405200576843     0.000014302369     1.007825032230
         H            3.169984930441    -1.252519423157     0.000049302369     1.007825032230

  Basis Set: AUG-CC-PVTZ
    Blend: AUG-CC-PVTZ
  Basis Set: (AUG-CC-PVTZ AUX)
    Blend: AUG-CC-PVTZ-JKFIT
	 Reference Energy          =    -231.8923560866681726 [Eh]
	 Singles Energy            =      -0.0000000000000000 [Eh]
	 Same-Spin Energy          =      -0.2428321837635462 [Eh]
	 Opposite-Spin Energy      =      -0.8491338826982666 [Eh]
	 Correlation Energy        =      -1.0919660664618127 [Eh]
	 Total Energy              =    -232.9843221531299946 [Eh]

	 ================> DF-SCS-MP2 Energies <==================
	-----------------------------------------------------------
	 SCS Same-Spin Scale       =       0.3333333333333333 [-]
	 SCS Opposite-Spin Scale   =       1.2000000000000000 [-]
	 SCS Same-Spin Energy      =      -0.0809440612545154 [Eh]
	 SCS Opposite-Spin Energy  =      -1.0189606592379199 [Eh]
	 SCS Correlation Energy    =      -1.0999047204924353 [Eh]
	 SCS Total Energy          =    -232.9922608071606192 [Eh]
	-----------------------------------------------------------

  Dipole Moment: [D]
     X:    -0.0036      Y:    -0.0080      Z:     0.0000     Total:     0.0088

*** Psi4 exiting successfully. Buy a developer a beer!
