                               Psi4 1.3.2 release

  ==> Input File <==

--------------------------------------------------------------------------
#psi4
#
memory 32 gb

molecule  {
0 1
  C       -0.5381749     0.4224337    -0.0000141
  C        0.6072830    -0.2987480    -0.0000050
  C       -1.8649420    -0.4253110    -0.0000010
  C        1.8649420     0.4253110    -0.0000100
  C       -3.0721310     0.1700370    -0.0000030
  C        3.0721310    -0.1700390     0.0000280
  H       -0.6626240     1.3889280    -0.0000290
  H        0.6626240    -1.3889260     0.0000110
  H       -1.8062860    -1.5139730     0.0000120
  H        1.8062890     1.5139730    -0.0000480
  H       -3.9914240    -0.4056610     0.0000080
  H       -3.1700740     1.2522570    -0.0000140
  H        3.9914220     0.4056620     0.0000210
  H        3.1700710    -1.2522590     0.0000620
units angstrom
no_reorient  #important for SAPT in psi4, default
symmetry c1  #important for SAPT in psi4, default
}

set PROPERTIES_ORIGIN ["COM"]
properties('MP2/aug-cc-pvtz', properties = ['dipole'])
--------------------------------------------------------------------------

    Molecular point group: c1
  Charge       = 0
  Multiplicity = 1
  Basis Set: AUG-CC-PVTZ
    Blend: AUG-CC-PVTZ
  Basis Set: (AUG-CC-PVTZ AUX)
    Blend: AUG-CC-PVTZ-JKFIT

    Orbital Energies [Eh]
    ---------------------

    Doubly Occupied:

       1A    -11.248777     2A    -11.244791     3A    -11.242342
       4A    -11.240347     5A    -11.228801     6A    -11.227902
       7A     -1.106224     8A     -1.047788     9A     -0.982746
      10A     -0.841104    11A     -0.779885    12A     -0.755693
      13A     -0.665202    14A     -0.631810    15A     -0.602187
      16A     -0.574765    17A     -0.552411    18A     -0.514126
      19A     -0.480129    20A     -0.461091    21A     -0.389728
      22A     -0.299242

  @DF-RHF Final Energy:  -231.87078638201808

   => Energetics <=

    Nuclear Repulsion Energy =            192.9103074430159666
    One-Electron Energy =                -693.3280033343474997
    Two-Electron Energy =                 268.5469095093134229
    Total Energy =                       -231.8707863820180819
  Basis Set: (AUG-CC-PVTZ AUX)
    Blend: AUG-CC-PVTZ-RI
    Molecular point group: c1

    Geometry (in Angstrom), charge = 0, multiplicity = 1:

       Center              X                  Y                   Z               Mass
    ------------   -----------------  -----------------  -----------------  -----------------
         C           -0.548532984570     0.403895638495    -0.000013625121    12.000000000000
         C            0.596924915430    -0.317286061505    -0.000004525121    12.000000000000
         C           -1.875300084570    -0.443849061505    -0.000000525121    12.000000000000
         C            1.854583915430     0.406772938495    -0.000009525121    12.000000000000
         C           -3.082489084570     0.151498938495    -0.000002525121    12.000000000000
         C            3.061772915430    -0.188577061505     0.000028474879    12.000000000000
         H           -0.672982084570     1.370389938495    -0.000028525121     1.007825032230
         H            0.652265915430    -1.407464061505     0.000011474879     1.007825032230
         H           -1.816644084570    -1.532511061505     0.000012474879     1.007825032230
         H            1.795930915430     1.495434938495    -0.000047525121     1.007825032230
         H           -4.001782084570    -0.424199061505     0.000008474879     1.007825032230
         H           -3.180432084570     1.233718938495    -0.000013525121     1.007825032230
         H            3.981063915430     0.387123938495     0.000021474879     1.007825032230
         H            3.159712915430    -1.270797061505     0.000062474879     1.007825032230

  Basis Set: AUG-CC-PVTZ
    Blend: AUG-CC-PVTZ
  Basis Set: (AUG-CC-PVTZ AUX)
    Blend: AUG-CC-PVTZ-JKFIT
	 Reference Energy          =    -231.8707863820180819 [Eh]
	 Singles Energy            =      -0.0000000000000000 [Eh]
	 Same-Spin Energy          =      -0.2417045045367278 [Eh]
	 Opposite-Spin Energy      =      -0.8489655395905165 [Eh]
	 Correlation Energy        =      -1.0906700441272443 [Eh]
	 Total Energy              =    -232.9614564261453324 [Eh]

	 ================> DF-SCS-MP2 Energies <==================
	-----------------------------------------------------------
	 SCS Same-Spin Scale       =       0.3333333333333333 [-]
	 SCS Opposite-Spin Scale   =       1.2000000000000000 [-]
	 SCS Same-Spin Energy      =      -0.0805681681789093 [Eh]
	 SCS Opposite-Spin Energy  =      -1.0187586475086197 [Eh]
	 SCS Correlation Energy    =      -1.0993268156875289 [Eh]
	 SCS Total Energy          =    -232.9701131977056150 [Eh]
	-----------------------------------------------------------

  Dipole Moment: [D]
     X:     0.0149      Y:     0.0230      Z:    -0.0000     Total:     0.0274

*** Psi4 exiting successfully. Buy a developer a beer!
