                               Psi4 1.3.2 release

  ==> Input File <==

--------------------------------------------------------------------------
#psi4
#
memory 32 gb

molecule  {
0 1
  C       -0.6072840     0.2987500    -0.0000130
  C        0.6072830    -0.2987480    -0.0000050
  C       -1.8649420    -0.4253110    -0.0000010
  C        1.8649420     0.4253110    -0.0000100
  C       -3.0721310     0.1700370    -0.0000030
  C        3.0721310    -0.1700390     0.0000280
  H       -0.6626240     1.3889280    -0.0000290
  H        0.6575542    -1.2890546     0.0000095
  H       -1.8062860    -1.5139730     0.0000120
  H        1.8062890     1.5139730    -0.0000480
  H       -3.9914240    -0.4056610     0.0000080
  H       -3.1700740     1.2522570    -0.0000140
  H        3.9914220     0.4056620     0.0000210
  H        3.1700710    -1.2522590     0.0000620
units angstrom
no_reorient  #important for SAPT in psi4, default
symmetry c1  #important for SAPT in psi4, default
}

set PROPERTIES_ORIGIN ["COM"]
properties('MP2/aug-cc-pvtz', properties = ['dipole'])
--------------------------------------------------------------------------

    Molecular point group: c1
  Charge       = 0
  Multiplicity = 1
  Basis Set: AUG-CC-PVTZ
    Blend: AUG-CC-PVTZ
  Basis Set: (AUG-CC-PVTZ AUX)
    Blend: AUG-CC-PVTZ-JKFIT

    Orbital Energies [Eh]
    ---------------------

    Doubly Occupied:

       1A    -11.243566     2A    -11.242488     3A    -11.241515
       4A    -11.232243     5A    -11.231655     6A    -11.230049
       7A     -1.112495     8A     -1.057959     9A     -0.983997
      10A     -0.851027    11A     -0.774126    12A     -0.762306
      13A     -0.666189    14A     -0.637927    15A     -0.602263
      16A     -0.571627    17A     -0.545743    18A     -0.516895
      19A     -0.497790    20A     -0.467037    21A     -0.396310
      22A     -0.293843

  @DF-RHF Final Energy:  -231.88660686669840

   => Energetics <=

    Nuclear Repulsion Energy =            194.0892910964372788
    One-Electron Energy =                -695.6336964419580227
    Two-Electron Energy =                 269.6577984788223716
    Total Energy =                       -231.8866068666984006
  Basis Set: (AUG-CC-PVTZ AUX)
    Blend: AUG-CC-PVTZ-RI
    Molecular point group: c1

    Geometry (in Angstrom), charge = 0, multiplicity = 1:

       Center              X                  Y                   Z               Mass
    ------------   -----------------  -----------------  -----------------  -----------------
         C           -0.607220006488     0.297492809946    -0.000012671110    12.000000000000
         C            0.607346993512    -0.300005190054    -0.000004671110    12.000000000000
         C           -1.864878006488    -0.426568190054    -0.000000671110    12.000000000000
         C            1.865005993512     0.424053809946    -0.000009671110    12.000000000000
         C           -3.072067006488     0.168779809946    -0.000002671110    12.000000000000
         C            3.072194993512    -0.171296190054     0.000028328890    12.000000000000
         H           -0.662560006488     1.387670809946    -0.000028671110     1.007825032230
         H            0.657618193512    -1.290311790054     0.000009828890     1.007825032230
         H           -1.806222006488    -1.515230190054     0.000012328890     1.007825032230
         H            1.806352993512     1.512715809946    -0.000047671110     1.007825032230
         H           -3.991360006488    -0.406918190054     0.000008328890     1.007825032230
         H           -3.170010006488     1.250999809946    -0.000013671110     1.007825032230
         H            3.991485993512     0.404404809946     0.000021328890     1.007825032230
         H            3.170134993512    -1.253516190054     0.000062328890     1.007825032230

  Basis Set: AUG-CC-PVTZ
    Blend: AUG-CC-PVTZ
  Basis Set: (AUG-CC-PVTZ AUX)
    Blend: AUG-CC-PVTZ-JKFIT
	 Reference Energy          =    -231.8866068666984006 [Eh]
	 Singles Energy            =      -0.0000000000000000 [Eh]
	 Same-Spin Energy          =      -0.2426627868658748 [Eh]
	 Opposite-Spin Energy      =      -0.8486964045123954 [Eh]
	 Correlation Energy        =      -1.0913591913782703 [Eh]
	 Total Energy              =    -232.9779660580766745 [Eh]

	 ================> DF-SCS-MP2 Energies <==================
	-----------------------------------------------------------
	 SCS Same-Spin Scale       =       0.3333333333333333 [-]
	 SCS Opposite-Spin Scale   =       1.2000000000000000 [-]
	 SCS Same-Spin Energy      =      -0.0808875956219583 [Eh]
	 SCS Opposite-Spin Energy  =      -1.0184356854148744 [Eh]
	 SCS Correlation Energy    =      -1.0993232810368327 [Eh]
	 SCS Total Energy          =    -232.9859301477352460 [Eh]
	-----------------------------------------------------------

  Dipole Moment: [D]
     X:    -0.0195      Y:    -0.0346      Z:     0.0000     Total:     0.0397

*** Psi4 exiting successfully. Buy a developer a beer!
