                               Psi4 1.3.2 release

  ==> Input File <==

--------------------------------------------------------------------------
#psi4
#
memory 32 gb

molecule  {
0 1
  C       -0.6072840     0.2987500    -0.0000130
  C        0.6072830    -0.2987480    -0.0000050
  C       -1.8649420    -0.4253110    -0.0000010
  C        1.8649420     0.4253110    -0.0000100
  C       -3.0721310     0.1700370    -0.0000030
  C        3.0721310    -0.1700390     0.0000280
  H       -0.6626240     1.3889280    -0.0000290
  H        0.6626240    -1.3889260     0.0000110
  H       -1.8062860    -1.5139730     0.0000120
  H        1.8062890     1.5139730    -0.0000480
  H       -3.9707724    -0.4373932     0.0000082
  H       -3.1700740     1.2522570    -0.0000140
  H        3.9914220     0.4056620     0.0000210
  H        3.1700710    -1.2522590     0.0000620
units angstrom
no_reorient  #important for SAPT in psi4, default
symmetry c1  #important for SAPT in psi4, default
}

set PROPERTIES_ORIGIN ["COM"]
properties('MP2/aug-cc-pvtz', properties = ['dipole'])
--------------------------------------------------------------------------

    Molecular point group: c1
  Charge       = 0
  Multiplicity = 1
  Basis Set: AUG-CC-PVTZ
    Blend: AUG-CC-PVTZ
  Basis Set: (AUG-CC-PVTZ AUX)
    Blend: AUG-CC-PVTZ-JKFIT

    Orbital Energies [Eh]
    ---------------------

    Doubly Occupied:

       1A    -11.243534     2A    -11.243112     3A    -11.242476
       4A    -11.241123     5A    -11.232055     6A    -11.231898
       7A     -1.110066     8A     -1.057864     9A     -0.982698
      10A     -0.848640    11A     -0.762019    12A     -0.760762
      13A     -0.665215    14A     -0.634281    15A     -0.599869
      16A     -0.569349    17A     -0.541287    18A     -0.517142
      19A     -0.495710    20A     -0.467334    21A     -0.396413
      22A     -0.294050

  @DF-RHF Final Energy:  -231.89212596561347

   => Energetics <=

    Nuclear Repulsion Energy =            193.6487102869542412
    One-Electron Energy =                -694.8078729473867270
    Two-Electron Energy =                 269.2670366948190122
    Total Energy =                       -231.8921259656134453
  Basis Set: (AUG-CC-PVTZ AUX)
    Blend: AUG-CC-PVTZ-RI
    Molecular point group: c1

    Geometry (in Angstrom), charge = 0, multiplicity = 1:

       Center              X                  Y                   Z               Mass
    ------------   -----------------  -----------------  -----------------  -----------------
         C           -0.607543786514     0.299149431165    -0.000012692510    12.000000000000
         C            0.607023213486    -0.298348568835    -0.000004692510    12.000000000000
         C           -1.865201786514    -0.424911568835    -0.000000692510    12.000000000000
         C            1.864682213486     0.425710431165    -0.000009692510    12.000000000000
         C           -3.072390786514     0.170436431165    -0.000002692510    12.000000000000
         C            3.071871213486    -0.169639568835     0.000028307490    12.000000000000
         H           -0.662883786514     1.389327431165    -0.000028692510     1.007825032230
         H            0.662364213486    -1.388526568835     0.000011307490     1.007825032230
         H           -1.806545786514    -1.513573568835     0.000012307490     1.007825032230
         H            1.806029213486     1.514372431165    -0.000047692510     1.007825032230
         H           -3.971032186514    -0.436993768835     0.000008507490     1.007825032230
         H           -3.170333786514     1.252656431165    -0.000013692510     1.007825032230
         H            3.991162213486     0.406061431165     0.000021307490     1.007825032230
         H            3.169811213486    -1.251859568835     0.000062307490     1.007825032230

  Basis Set: AUG-CC-PVTZ
    Blend: AUG-CC-PVTZ
  Basis Set: (AUG-CC-PVTZ AUX)
    Blend: AUG-CC-PVTZ-JKFIT
	 Reference Energy          =    -231.8921259656134737 [Eh]
	 Singles Energy            =      -0.0000000000000000 [Eh]
	 Same-Spin Energy          =      -0.2429104142550004 [Eh]
	 Opposite-Spin Energy      =      -0.8492982286766966 [Eh]
	 Correlation Energy        =      -1.0922086429316971 [Eh]
	 Total Energy              =    -232.9843346085451685 [Eh]

	 ================> DF-SCS-MP2 Energies <==================
	-----------------------------------------------------------
	 SCS Same-Spin Scale       =       0.3333333333333333 [-]
	 SCS Opposite-Spin Scale   =       1.2000000000000000 [-]
	 SCS Same-Spin Energy      =      -0.0809701380850001 [Eh]
	 SCS Opposite-Spin Energy  =      -1.0191578744120358 [Eh]
	 SCS Correlation Energy    =      -1.1001280124970358 [Eh]
	 SCS Total Energy          =    -232.9922539781105115 [Eh]
	-----------------------------------------------------------

  Dipole Moment: [D]
     X:     0.0063      Y:    -0.0038      Z:     0.0000     Total:     0.0074

*** Psi4 exiting successfully. Buy a developer a beer!
