                               Psi4 1.3.2 release

  ==> Input File <==

--------------------------------------------------------------------------
#psi4
#
memory 32 gb

molecule  {
0 1
  C       -0.6273965     0.2559982    -0.0000124
  C        0.6072830    -0.2987480    -0.0000050
  C       -1.8649420    -0.4253110    -0.0000010
  C        1.8649420     0.4253110    -0.0000100
  C       -3.0721310     0.1700370    -0.0000030
  C        3.0721310    -0.1700390     0.0000280
  H       -0.6626240     1.3889280    -0.0000290
  H        0.6626240    -1.3889260     0.0000110
  H       -1.8062860    -1.5139730     0.0000120
  H        1.8062890     1.5139730    -0.0000480
  H       -3.9914240    -0.4056610     0.0000080
  H       -3.1700740     1.2522570    -0.0000140
  H        3.9914220     0.4056620     0.0000210
  H        3.1700710    -1.2522590     0.0000620
units angstrom
no_reorient  #important for SAPT in psi4, default
symmetry c1  #important for SAPT in psi4, default
}

set PROPERTIES_ORIGIN ["COM"]
properties('MP2/aug-cc-pvtz', properties = ['dipole'])
--------------------------------------------------------------------------

    Molecular point group: c1
  Charge       = 0
  Multiplicity = 1
  Basis Set: AUG-CC-PVTZ
    Blend: AUG-CC-PVTZ
  Basis Set: (AUG-CC-PVTZ AUX)
    Blend: AUG-CC-PVTZ-JKFIT

    Orbital Energies [Eh]
    ---------------------

    Doubly Occupied:

       1A    -11.244748     2A    -11.243346     3A    -11.241874
       4A    -11.240950     5A    -11.233680     6A    -11.233433
       7A     -1.112853     8A     -1.061039     9A     -0.982812
      10A     -0.853876    11A     -0.765729    12A     -0.754906
      13A     -0.666708    14A     -0.635165    15A     -0.600378
      16A     -0.572105    17A     -0.537298    18A     -0.515977
      19A     -0.492296    20A     -0.470607    21A     -0.398739
      22A     -0.292481

  @DF-RHF Final Energy:  -231.88849865724774

   => Energetics <=

    Nuclear Repulsion Energy =            193.8900201417784785
    One-Electron Energy =                -695.2550360554639610
    Two-Electron Energy =                 269.4765172564377735
    Total Energy =                       -231.8884986572477374
  Basis Set: (AUG-CC-PVTZ AUX)
    Blend: AUG-CC-PVTZ-RI
    Molecular point group: c1

    Geometry (in Angstrom), charge = 0, multiplicity = 1:

       Center              X                  Y                   Z               Mass
    ------------   -----------------  -----------------  -----------------  -----------------
         C           -0.624381808810     0.262405943322    -0.000012179922    12.000000000000
         C            0.610297691190    -0.292340256678    -0.000004779922    12.000000000000
         C           -1.861927308810    -0.418903256678    -0.000000779922    12.000000000000
         C            1.867956691190     0.431718743322    -0.000009779922    12.000000000000
         C           -3.069116308810     0.176444743322    -0.000002779922    12.000000000000
         C            3.075145691190    -0.163631256678     0.000028220078    12.000000000000
         H           -0.659609308810     1.395335743322    -0.000028779922     1.007825032230
         H            0.665638691190    -1.382518256678     0.000011220078     1.007825032230
         H           -1.803271308810    -1.507565256678     0.000012220078     1.007825032230
         H            1.809303691190     1.520380743322    -0.000047779922     1.007825032230
         H           -3.988409308810    -0.399253256678     0.000008220078     1.007825032230
         H           -3.167059308810     1.258664743322    -0.000013779922     1.007825032230
         H            3.994436691190     0.412069743322     0.000021220078     1.007825032230
         H            3.173085691190    -1.245851256678     0.000062220078     1.007825032230

  Basis Set: AUG-CC-PVTZ
    Blend: AUG-CC-PVTZ
  Basis Set: (AUG-CC-PVTZ AUX)
    Blend: AUG-CC-PVTZ-JKFIT
	 Reference Energy          =    -231.8884986572477374 [Eh]
	 Singles Energy            =      -0.0000000000000000 [Eh]
	 Same-Spin Energy          =      -0.2435858258181716 [Eh]
	 Opposite-Spin Energy      =      -0.8500851386241495 [Eh]
	 Correlation Energy        =      -1.0936709644423210 [Eh]
	 Total Energy              =    -232.9821696216900477 [Eh]

	 ================> DF-SCS-MP2 Energies <==================
	-----------------------------------------------------------
	 SCS Same-Spin Scale       =       0.3333333333333333 [-]
	 SCS Opposite-Spin Scale   =       1.2000000000000000 [-]
	 SCS Same-Spin Energy      =      -0.0811952752727239 [Eh]
	 SCS Opposite-Spin Energy  =      -1.0201021663489793 [Eh]
	 SCS Correlation Energy    =      -1.1012974416217032 [Eh]
	 SCS Total Energy          =    -232.9897960988694479 [Eh]
	-----------------------------------------------------------

  Dipole Moment: [D]
     X:     0.0076      Y:    -0.0209      Z:     0.0000     Total:     0.0222

*** Psi4 exiting successfully. Buy a developer a beer!
