                               Psi4 1.3.2 release

  ==> Input File <==

--------------------------------------------------------------------------
#psi4
#
memory 32 gb

molecule  {
0 1
  C       -0.6072840     0.2987500    -0.0000130
  C        0.6072830    -0.2987480    -0.0000050
  C       -1.8649420    -0.4253110    -0.0000010
  C        1.8649420     0.4253110    -0.0000100
  C       -3.0721310     0.1700370    -0.0000030
  C        3.0721310    -0.1700390     0.0000280
  H       -0.6626240     1.3889280    -0.0000290
  H        0.6626240    -1.3889260     0.0000110
  H       -1.8062860    -1.5139730     0.0000120
  H        1.8062890     1.5139730    -0.0000480
  H       -4.0109556    -0.3732274     0.0000078
  H       -3.1700740     1.2522570    -0.0000140
  H        3.9914220     0.4056620     0.0000210
  H        3.1700710    -1.2522590     0.0000620
units angstrom
no_reorient  #important for SAPT in psi4, default
symmetry c1  #important for SAPT in psi4, default
}

set PROPERTIES_ORIGIN ["COM"]
properties('MP2/aug-cc-pvtz', properties = ['dipole'])
--------------------------------------------------------------------------

    Molecular point group: c1
  Charge       = 0
  Multiplicity = 1
  Basis Set: AUG-CC-PVTZ
    Blend: AUG-CC-PVTZ
  Basis Set: (AUG-CC-PVTZ AUX)
    Blend: AUG-CC-PVTZ-JKFIT

    Orbital Energies [Eh]
    ---------------------

    Doubly Occupied:

       1A    -11.244072     2A    -11.243623     3A    -11.242869
       4A    -11.241459     5A    -11.232309     6A    -11.232144
       7A     -1.110153     8A     -1.057646     9A     -0.982412
      10A     -0.849105    11A     -0.763667    12A     -0.760964
      13A     -0.664639    14A     -0.634557    15A     -0.601173
      16A     -0.568738    17A     -0.541989    18A     -0.515550
      19A     -0.495477    20A     -0.467541    21A     -0.396561
      22A     -0.294139

  @DF-RHF Final Energy:  -231.89199951856159

   => Energetics <=

    Nuclear Repulsion Energy =            193.6000573370088773
    One-Electron Energy =                -694.7025420402248983
    Two-Electron Energy =                 269.2104851846544307
    Total Energy =                       -231.8919995185615903
  Basis Set: (AUG-CC-PVTZ AUX)
    Blend: AUG-CC-PVTZ-RI
    Molecular point group: c1

    Geometry (in Angstrom), charge = 0, multiplicity = 1:

       Center              X                  Y                   Z               Mass
    ------------   -----------------  -----------------  -----------------  -----------------
         C           -0.607037961887     0.298341714462    -0.000012687475    12.000000000000
         C            0.607529038113    -0.299156285538    -0.000004687475    12.000000000000
         C           -1.864695961887    -0.425719285538    -0.000000687475    12.000000000000
         C            1.865188038113     0.424902714462    -0.000009687475    12.000000000000
         C           -3.071884961887     0.169628714462    -0.000002687475    12.000000000000
         C            3.072377038113    -0.170447285538     0.000028312525    12.000000000000
         H           -0.662377961887     1.388519714462    -0.000028687475     1.007825032230
         H            0.662870038113    -1.389334285538     0.000011312525     1.007825032230
         H           -1.806039961887    -1.514381285538     0.000012312525     1.007825032230
         H            1.806535038113     1.513564714462    -0.000047687475     1.007825032230
         H           -4.010709561887    -0.373635685538     0.000008112525     1.007825032230
         H           -3.169827961887     1.251848714462    -0.000013687475     1.007825032230
         H            3.991668038113     0.405253714462     0.000021312525     1.007825032230
         H            3.170317038113    -1.252667285538     0.000062312525     1.007825032230

  Basis Set: AUG-CC-PVTZ
    Blend: AUG-CC-PVTZ
  Basis Set: (AUG-CC-PVTZ AUX)
    Blend: AUG-CC-PVTZ-JKFIT
	 Reference Energy          =    -231.8919995185615903 [Eh]
	 Singles Energy            =      -0.0000000000000000 [Eh]
	 Same-Spin Energy          =      -0.2428703647061120 [Eh]
	 Opposite-Spin Energy      =      -0.8492864261227280 [Eh]
	 Correlation Energy        =      -1.0921567908288399 [Eh]
	 Total Energy              =    -232.9841563093904426 [Eh]

	 ================> DF-SCS-MP2 Energies <==================
	-----------------------------------------------------------
	 SCS Same-Spin Scale       =       0.3333333333333333 [-]
	 SCS Opposite-Spin Scale   =       1.2000000000000000 [-]
	 SCS Same-Spin Energy      =      -0.0809567882353706 [Eh]
	 SCS Opposite-Spin Energy  =      -1.0191437113472734 [Eh]
	 SCS Correlation Energy    =      -1.1001004995826440 [Eh]
	 SCS Total Energy          =    -232.9921000181442423 [Eh]
	-----------------------------------------------------------

  Dipole Moment: [D]
     X:    -0.0057      Y:     0.0046      Z:     0.0000     Total:     0.0073

*** Psi4 exiting successfully. Buy a developer a beer!
