                               Psi4 1.3.2 release

  ==> Input File <==

--------------------------------------------------------------------------
#psi4
#
memory 32 gb

molecule  {
0 1
  C       -0.5966712     0.3198561    -0.0000133
  C        0.6072830    -0.2987480    -0.0000050
  C       -1.8649420    -0.4253110    -0.0000010
  C        1.8649420     0.4253110    -0.0000100
  C       -3.0721310     0.1700370    -0.0000030
  C        3.0721310    -0.1700390     0.0000280
  H       -0.6626240     1.3889280    -0.0000290
  H        0.6626240    -1.3889260     0.0000110
  H       -1.8062860    -1.5139730     0.0000120
  H        1.8062890     1.5139730    -0.0000480
  H       -3.9914240    -0.4056610     0.0000080
  H       -3.1700740     1.2522570    -0.0000140
  H        3.9914220     0.4056620     0.0000210
  H        3.1700710    -1.2522590     0.0000620
units angstrom
no_reorient  #important for SAPT in psi4, default
symmetry c1  #important for SAPT in psi4, default
}

set PROPERTIES_ORIGIN ["COM"]
properties('MP2/aug-cc-pvtz', properties = ['dipole'])
--------------------------------------------------------------------------

    Molecular point group: c1
  Charge       = 0
  Multiplicity = 1
  Basis Set: AUG-CC-PVTZ
    Blend: AUG-CC-PVTZ
  Basis Set: (AUG-CC-PVTZ AUX)
    Blend: AUG-CC-PVTZ-JKFIT

    Orbital Energies [Eh]
    ---------------------

    Doubly Occupied:

       1A    -11.244532     2A    -11.243186     3A    -11.242548
       4A    -11.241262     5A    -11.231476     6A    -11.231347
       7A     -1.109021     8A     -1.056071     9A     -0.982476
      10A     -0.846702    11A     -0.764243    12A     -0.761247
      13A     -0.664241    14A     -0.634026    15A     -0.600677
      16A     -0.568108    17A     -0.544773    18A     -0.516205
      19A     -0.495288    20A     -0.466051    21A     -0.395356
      22A     -0.294923

  @DF-RHF Final Energy:  -231.89206086890565

   => Energetics <=

    Nuclear Repulsion Energy =            193.4950719978720599
    One-Electron Energy =                -694.5067480284739077
    Two-Electron Energy =                 269.1196151616961743
    Total Energy =                       -231.8920608689056735
  Basis Set: (AUG-CC-PVTZ AUX)
    Blend: AUG-CC-PVTZ-RI
    Molecular point group: c1

    Geometry (in Angstrom), charge = 0, multiplicity = 1:

       Center              X                  Y                   Z               Mass
    ------------   -----------------  -----------------  -----------------  -----------------
         C           -0.598261700233     0.316692647814    -0.000012945027    12.000000000000
         C            0.605692499767    -0.301911452186    -0.000004645027    12.000000000000
         C           -1.866532500233    -0.428474452186    -0.000000645027    12.000000000000
         C            1.863351499767     0.422147547814    -0.000009645027    12.000000000000
         C           -3.073721500233     0.166873547814    -0.000002645027    12.000000000000
         C            3.070540499767    -0.173202452186     0.000028354973    12.000000000000
         H           -0.664214500233     1.385764547814    -0.000028645027     1.007825032230
         H            0.661033499767    -1.392089452186     0.000011354973     1.007825032230
         H           -1.807876500233    -1.517136452186     0.000012354973     1.007825032230
         H            1.804698499767     1.510809547814    -0.000047645027     1.007825032230
         H           -3.993014500233    -0.408824452186     0.000008354973     1.007825032230
         H           -3.171664500233     1.249093547814    -0.000013645027     1.007825032230
         H            3.989831499767     0.402498547814     0.000021354973     1.007825032230
         H            3.168480499767    -1.255422452186     0.000062354973     1.007825032230

  Basis Set: AUG-CC-PVTZ
    Blend: AUG-CC-PVTZ
  Basis Set: (AUG-CC-PVTZ AUX)
    Blend: AUG-CC-PVTZ-JKFIT
	 Reference Energy          =    -231.8920608689056451 [Eh]
	 Singles Energy            =      -0.0000000000000000 [Eh]
	 Same-Spin Energy          =      -0.2425892579111970 [Eh]
	 Opposite-Spin Energy      =      -0.8490075544959119 [Eh]
	 Correlation Energy        =      -1.0915968124071089 [Eh]
	 Total Energy              =    -232.9836576813127635 [Eh]

	 ================> DF-SCS-MP2 Energies <==================
	-----------------------------------------------------------
	 SCS Same-Spin Scale       =       0.3333333333333333 [-]
	 SCS Opposite-Spin Scale   =       1.2000000000000000 [-]
	 SCS Same-Spin Energy      =      -0.0808630859703990 [Eh]
	 SCS Opposite-Spin Energy  =      -1.0188090653950943 [Eh]
	 SCS Correlation Energy    =      -1.0996721513654932 [Eh]
	 SCS Total Energy          =    -232.9917330202711412 [Eh]
	-----------------------------------------------------------

  Dipole Moment: [D]
     X:    -0.0017      Y:     0.0075      Z:     0.0000     Total:     0.0077

*** Psi4 exiting successfully. Buy a developer a beer!
