                               Psi4 1.3.2 release

  ==> Input File <==

--------------------------------------------------------------------------
#psi4
#
memory 32 gb

molecule  {
0 1
  C       -0.6072840     0.2987500    -0.0000130
  C        0.6072830    -0.2987480    -0.0000050
  C       -1.8649420    -0.4253110    -0.0000010
  C        1.8649420     0.4253110    -0.0000100
  C       -3.0721310     0.1700370    -0.0000030
  C        3.0721310    -0.1700390     0.0000280
  H       -0.6626240     1.3889280    -0.0000290
  H        0.6727636    -1.5886688     0.0000139
  H       -1.8062860    -1.5139730     0.0000120
  H        1.8062890     1.5139730    -0.0000480
  H       -3.9914240    -0.4056610     0.0000080
  H       -3.1700740     1.2522570    -0.0000140
  H        3.9914220     0.4056620     0.0000210
  H        3.1700710    -1.2522590     0.0000620
units angstrom
no_reorient  #important for SAPT in psi4, default
symmetry c1  #important for SAPT in psi4, default
}

set PROPERTIES_ORIGIN ["COM"]
properties('MP2/aug-cc-pvtz', properties = ['dipole'])
--------------------------------------------------------------------------

    Molecular point group: c1
  Charge       = 0
  Multiplicity = 1
  Basis Set: AUG-CC-PVTZ
    Blend: AUG-CC-PVTZ
  Basis Set: (AUG-CC-PVTZ AUX)
    Blend: AUG-CC-PVTZ-JKFIT

    Orbital Energies [Eh]
    ---------------------

    Doubly Occupied:

       1A    -11.263829     2A    -11.245721     3A    -11.244503
       4A    -11.243300     5A    -11.233159     6A    -11.232217
       7A     -1.108168     8A     -1.057994     9A     -0.981631
      10A     -0.847718    11A     -0.763581    12A     -0.743734
      13A     -0.663885    14A     -0.629117    15A     -0.598219
      16A     -0.566079    17A     -0.532403    18A     -0.514265
      19A     -0.484314    20A     -0.468876    21A     -0.397097
      22A     -0.295102

  @DF-RHF Final Energy:  -231.87045145061978

   => Energetics <=

    Nuclear Repulsion Energy =            192.8415458132157028
    One-Electron Energy =                -693.1941711606555145
    Two-Electron Energy =                 268.4821738968200293
    Total Energy =                       -231.8704514506197825
  Basis Set: (AUG-CC-PVTZ AUX)
    Blend: AUG-CC-PVTZ-RI
    Molecular point group: c1

    Geometry (in Angstrom), charge = 0, multiplicity = 1:

       Center              X                  Y                   Z               Mass
    ------------   -----------------  -----------------  -----------------  -----------------
         C           -0.607411461849     0.301264342344    -0.000012726497    12.000000000000
         C            0.607155538151    -0.296233657656    -0.000004726497    12.000000000000
         C           -1.865069461849    -0.422796657656    -0.000000726497    12.000000000000
         C            1.864814538151     0.427825342344    -0.000009726497    12.000000000000
         C           -3.072258461849     0.172551342344    -0.000002726497    12.000000000000
         C            3.072003538151    -0.167524657656     0.000028273503    12.000000000000
         H           -0.662751461849     1.391442342344    -0.000028726497     1.007825032230
         H            0.672636138151    -1.586154457656     0.000014173503     1.007825032230
         H           -1.806413461849    -1.511458657656     0.000012273503     1.007825032230
         H            1.806161538151     1.516487342344    -0.000047726497     1.007825032230
         H           -3.991551461849    -0.403146657656     0.000008273503     1.007825032230
         H           -3.170201461849     1.254771342344    -0.000013726497     1.007825032230
         H            3.991294538151     0.408176342344     0.000021273503     1.007825032230
         H            3.169943538151    -1.249744657656     0.000062273503     1.007825032230

  Basis Set: AUG-CC-PVTZ
    Blend: AUG-CC-PVTZ
  Basis Set: (AUG-CC-PVTZ AUX)
    Blend: AUG-CC-PVTZ-JKFIT
	 Reference Energy          =    -231.8704514506197825 [Eh]
	 Singles Energy            =      -0.0000000000000000 [Eh]
	 Same-Spin Energy          =      -0.2435127549462732 [Eh]
	 Opposite-Spin Energy      =      -0.8514514025903417 [Eh]
	 Correlation Energy        =      -1.0949641575366149 [Eh]
	 Total Energy              =    -232.9654156081564054 [Eh]

	 ================> DF-SCS-MP2 Energies <==================
	-----------------------------------------------------------
	 SCS Same-Spin Scale       =       0.3333333333333333 [-]
	 SCS Opposite-Spin Scale   =       1.2000000000000000 [-]
	 SCS Same-Spin Energy      =      -0.0811709183154244 [Eh]
	 SCS Opposite-Spin Energy  =      -1.0217416831084101 [Eh]
	 SCS Correlation Energy    =      -1.1029126014238344 [Eh]
	 SCS Total Energy          =    -232.9733640520436211 [Eh]
	-----------------------------------------------------------

  Dipole Moment: [D]
     X:     0.0300      Y:     0.1080      Z:     0.0000     Total:     0.1121

*** Psi4 exiting successfully. Buy a developer a beer!
