                               Psi4 1.3.2 release

  ==> Input File <==

--------------------------------------------------------------------------
#psi4
#
memory 32 gb

molecule  {
0 1
  C       -0.6072840     0.2987500    -0.0000130
  C        0.6072830    -0.2987480    -0.0000050
  C       -1.8649420    -0.4253110    -0.0000010
  C        1.8649420     0.4253110    -0.0000100
  C       -3.0721310     0.1700370    -0.0000030
  C        3.0721310    -0.1700390     0.0000280
  H       -0.6626240     1.3889280    -0.0000290
  H        0.6626240    -1.3889260     0.0000110
  H       -1.8062860    -1.5139730     0.0000120
  H        1.8062890     1.5139730    -0.0000480
  H       -4.0293433    -0.3401320     0.0000075
  H       -3.1700740     1.2522570    -0.0000140
  H        3.9914220     0.4056620     0.0000210
  H        3.1700710    -1.2522590     0.0000620
units angstrom
no_reorient  #important for SAPT in psi4, default
symmetry c1  #important for SAPT in psi4, default
}

set PROPERTIES_ORIGIN ["COM"]
properties('MP2/aug-cc-pvtz', properties = ['dipole'])
--------------------------------------------------------------------------

    Molecular point group: c1
  Charge       = 0
  Multiplicity = 1
  Basis Set: AUG-CC-PVTZ
    Blend: AUG-CC-PVTZ
  Basis Set: (AUG-CC-PVTZ AUX)
    Blend: AUG-CC-PVTZ-JKFIT

    Orbital Energies [Eh]
    ---------------------

    Doubly Occupied:

       1A    -11.244591     2A    -11.243695     3A    -11.243038
       4A    -11.241603     5A    -11.232525     6A    -11.232188
       7A     -1.110204     8A     -1.057568     9A     -0.982300
      10A     -0.849371    11A     -0.764621    12A     -0.760993
      13A     -0.664411    14A     -0.634845    15A     -0.601717
      16A     -0.568470    17A     -0.542154    18A     -0.514645
      19A     -0.495209    20A     -0.467646    21A     -0.396646
      22A     -0.294190

  @DF-RHF Final Energy:  -231.89148158859967

   => Energetics <=

    Nuclear Repulsion Energy =            193.5782165362096805
    One-Electron Energy =                -694.6541349185481522
    Two-Electron Energy =                 269.1844367937388256
    Total Energy =                       -231.8914815885996745
  Basis Set: (AUG-CC-PVTZ AUX)
    Blend: AUG-CC-PVTZ-RI
    Molecular point group: c1

    Geometry (in Angstrom), charge = 0, multiplicity = 1:

       Center              X                  Y                   Z               Mass
    ------------   -----------------  -----------------  -----------------  -----------------
         C           -0.606806498204     0.297925110799    -0.000012683698    12.000000000000
         C            0.607760501796    -0.299572889201    -0.000004683698    12.000000000000
         C           -1.864464498204    -0.426135889201    -0.000000683698    12.000000000000
         C            1.865419501796     0.424486110799    -0.000009683698    12.000000000000
         C           -3.071653498204     0.169212110799    -0.000002683698    12.000000000000
         C            3.072608501796    -0.170863889201     0.000028316302    12.000000000000
         H           -0.662146498204     1.388103110799    -0.000028683698     1.007825032230
         H            0.663101501796    -1.389750889201     0.000011316302     1.007825032230
         H           -1.805808498204    -1.514797889201     0.000012316302     1.007825032230
         H            1.806766501796     1.513148110799    -0.000047683698     1.007825032230
         H           -4.028865798204    -0.340956889201     0.000007816302     1.007825032230
         H           -3.169596498204     1.251432110799    -0.000013683698     1.007825032230
         H            3.991899501796     0.404837110799     0.000021316302     1.007825032230
         H            3.170548501796    -1.253083889201     0.000062316302     1.007825032230

  Basis Set: AUG-CC-PVTZ
    Blend: AUG-CC-PVTZ
  Basis Set: (AUG-CC-PVTZ AUX)
    Blend: AUG-CC-PVTZ-JKFIT
	 Reference Energy          =    -231.8914815885996745 [Eh]
	 Singles Energy            =      -0.0000000000000000 [Eh]
	 Same-Spin Energy          =      -0.2428701477187183 [Eh]
	 Opposite-Spin Energy      =      -0.8493134719298234 [Eh]
	 Correlation Energy        =      -1.0921836196485417 [Eh]
	 Total Energy              =    -232.9836652082482260 [Eh]

	 ================> DF-SCS-MP2 Energies <==================
	-----------------------------------------------------------
	 SCS Same-Spin Scale       =       0.3333333333333333 [-]
	 SCS Opposite-Spin Scale   =       1.2000000000000000 [-]
	 SCS Same-Spin Energy      =      -0.0809567159062394 [Eh]
	 SCS Opposite-Spin Energy  =      -1.0191761663157881 [Eh]
	 SCS Correlation Energy    =      -1.1001328822220275 [Eh]
	 SCS Total Energy          =    -232.9916144708217018 [Eh]
	-----------------------------------------------------------

  Dipole Moment: [D]
     X:    -0.0108      Y:     0.0101      Z:     0.0000     Total:     0.0148

*** Psi4 exiting successfully. Buy a developer a beer!
