                               Psi4 1.3.2 release

  ==> Input File <==

--------------------------------------------------------------------------
#psi4
#
memory 32 gb

molecule  {
0 1
  C       -0.6072840     0.2987500    -0.0000130
  C        0.6072830    -0.2987480    -0.0000050
  C       -1.8649420    -0.4253110    -0.0000010
  C        1.8649420     0.4253110    -0.0000100
  C       -3.0721310     0.1700370    -0.0000030
  C        3.0721310    -0.1700390     0.0000280
  H       -0.6626240     1.3889280    -0.0000290
  H        0.6626240    -1.3889260     0.0000110
  H       -1.8062860    -1.5139730     0.0000120
  H        1.8062890     1.5139730    -0.0000480
  H       -4.0465648    -0.3064150     0.0000072
  H       -3.1700740     1.2522570    -0.0000140
  H        3.9914220     0.4056620     0.0000210
  H        3.1700710    -1.2522590     0.0000620
units angstrom
no_reorient  #important for SAPT in psi4, default
symmetry c1  #important for SAPT in psi4, default
}

set PROPERTIES_ORIGIN ["COM"]
properties('MP2/aug-cc-pvtz', properties = ['dipole'])
--------------------------------------------------------------------------

    Molecular point group: c1
  Charge       = 0
  Multiplicity = 1
  Basis Set: AUG-CC-PVTZ
    Blend: AUG-CC-PVTZ
  Basis Set: (AUG-CC-PVTZ AUX)
    Blend: AUG-CC-PVTZ-JKFIT

    Orbital Energies [Eh]
    ---------------------

    Doubly Occupied:

       1A    -11.245145     2A    -11.243767     3A    -11.243194
       4A    -11.241733     5A    -11.232746     6A    -11.232231
       7A     -1.110258     8A     -1.057508     9A     -0.982208
      10A     -0.849661    11A     -0.765623    12A     -0.761011
      13A     -0.664222    14A     -0.635229    15A     -0.602187
      16A     -0.568232    17A     -0.542210    18A     -0.513683
      19A     -0.494817    20A     -0.467751    21A     -0.396736
      22A     -0.294245

  @DF-RHF Final Energy:  -231.89066375183683

   => Energetics <=

    Nuclear Repulsion Energy =            193.5579925937016128
    One-Electron Energy =                -694.6085199908760615
    Two-Electron Energy =                 269.1598636453376230
    Total Energy =                       -231.8906637518368257
  Basis Set: (AUG-CC-PVTZ AUX)
    Blend: AUG-CC-PVTZ-RI
    Molecular point group: c1

    Geometry (in Angstrom), charge = 0, multiplicity = 1:

       Center              X                  Y                   Z               Mass
    ------------   -----------------  -----------------  -----------------  -----------------
         C           -0.606589714603     0.297500682458    -0.000012679922    12.000000000000
         C            0.607977285397    -0.299997317542    -0.000004679922    12.000000000000
         C           -1.864247714603    -0.426560317542    -0.000000679922    12.000000000000
         C            1.865636285397     0.424061682458    -0.000009679922    12.000000000000
         C           -3.071436714603     0.168787682458    -0.000002679922    12.000000000000
         C            3.072825285397    -0.171288317542     0.000028320078    12.000000000000
         H           -0.661929714603     1.387678682458    -0.000028679922     1.007825032230
         H            0.663318285397    -1.390175317542     0.000011320078     1.007825032230
         H           -1.805591714603    -1.515222317542     0.000012320078     1.007825032230
         H            1.806983285397     1.512723682458    -0.000047679922     1.007825032230
         H           -4.045870514603    -0.307664317542     0.000007520078     1.007825032230
         H           -3.169379714603     1.251007682458    -0.000013679922     1.007825032230
         H            3.992116285397     0.404412682458     0.000021320078     1.007825032230
         H            3.170765285397    -1.253508317542     0.000062320078     1.007825032230

  Basis Set: AUG-CC-PVTZ
    Blend: AUG-CC-PVTZ
  Basis Set: (AUG-CC-PVTZ AUX)
    Blend: AUG-CC-PVTZ-JKFIT
	 Reference Energy          =    -231.8906637518368257 [Eh]
	 Singles Energy            =      -0.0000000000000000 [Eh]
	 Same-Spin Energy          =      -0.2428829836061841 [Eh]
	 Opposite-Spin Energy      =      -0.8493628982708279 [Eh]
	 Correlation Energy        =      -1.0922458818770120 [Eh]
	 Total Energy              =    -232.9829096337138310 [Eh]

	 ================> DF-SCS-MP2 Energies <==================
	-----------------------------------------------------------
	 SCS Same-Spin Scale       =       0.3333333333333333 [-]
	 SCS Opposite-Spin Scale   =       1.2000000000000000 [-]
	 SCS Same-Spin Energy      =      -0.0809609945353947 [Eh]
	 SCS Opposite-Spin Energy  =      -1.0192354779249935 [Eh]
	 SCS Correlation Energy    =      -1.1001964724603881 [Eh]
	 SCS Total Energy          =    -232.9908602242972222 [Eh]
	-----------------------------------------------------------

  Dipole Moment: [D]
     X:    -0.0153      Y:     0.0165      Z:     0.0000     Total:     0.0225

*** Psi4 exiting successfully. Buy a developer a beer!
