                               Psi4 1.3.2 release

  ==> Input File <==

--------------------------------------------------------------------------
#psi4
#
memory 32 gb

molecule  {
0 1
  C       -0.5856917     0.3407738    -0.0000136
  C        0.6072830    -0.2987480    -0.0000050
  C       -1.8649420    -0.4253110    -0.0000010
  C        1.8649420     0.4253110    -0.0000100
  C       -3.0721310     0.1700370    -0.0000030
  C        3.0721310    -0.1700390     0.0000280
  H       -0.6626240     1.3889280    -0.0000290
  H        0.6626240    -1.3889260     0.0000110
  H       -1.8062860    -1.5139730     0.0000120
  H        1.8062890     1.5139730    -0.0000480
  H       -3.9914240    -0.4056610     0.0000080
  H       -3.1700740     1.2522570    -0.0000140
  H        3.9914220     0.4056620     0.0000210
  H        3.1700710    -1.2522590     0.0000620
units angstrom
no_reorient  #important for SAPT in psi4, default
symmetry c1  #important for SAPT in psi4, default
}

set PROPERTIES_ORIGIN ["COM"]
properties('MP2/aug-cc-pvtz', properties = ['dipole'])
--------------------------------------------------------------------------

    Molecular point group: c1
  Charge       = 0
  Multiplicity = 1
  Basis Set: AUG-CC-PVTZ
    Blend: AUG-CC-PVTZ
  Basis Set: (AUG-CC-PVTZ AUX)
    Blend: AUG-CC-PVTZ-JKFIT

    Orbital Energies [Eh]
    ---------------------

    Doubly Occupied:

       1A    -11.245511     2A    -11.243120     3A    -11.242194
       4A    -11.241289     5A    -11.230881     6A    -11.230618
       7A     -1.108121     8A     -1.054392     9A     -0.982450
      10A     -0.844820    11A     -0.767447    12A     -0.759992
      13A     -0.663798    14A     -0.633686    15A     -0.600836
      16A     -0.567838    17A     -0.547785    18A     -0.515832
      19A     -0.493854    20A     -0.464798    21A     -0.394229
      22A     -0.295767

  @DF-RHF Final Energy:  -231.89054635011340

   => Energetics <=

    Nuclear Repulsion Energy =            193.3701658668609866
    One-Electron Energy =                -694.2629079599375928
    Two-Electron Energy =                 269.0021957429632380
    Total Energy =                       -231.8905463501133681
  Basis Set: (AUG-CC-PVTZ AUX)
    Blend: AUG-CC-PVTZ-RI
    Molecular point group: c1

    Geometry (in Angstrom), charge = 0, multiplicity = 1:

       Center              X                  Y                   Z               Mass
    ------------   -----------------  -----------------  -----------------  -----------------
         C           -0.588927837516     0.334475146119    -0.000013200063    12.000000000000
         C            0.604046862484    -0.305046653881    -0.000004600063    12.000000000000
         C           -1.868178137516    -0.431609653881    -0.000000600063    12.000000000000
         C            1.861705862484     0.419012346119    -0.000009600063    12.000000000000
         C           -3.075367137516     0.163738346119    -0.000002600063    12.000000000000
         C            3.068894862484    -0.176337653881     0.000028399937    12.000000000000
         H           -0.665860137516     1.382629346119    -0.000028600063     1.007825032230
         H            0.659387862484    -1.395224653881     0.000011399937     1.007825032230
         H           -1.809522137516    -1.520271653881     0.000012399937     1.007825032230
         H            1.803052862484     1.507674346119    -0.000047600063     1.007825032230
         H           -3.994660137516    -0.411959653881     0.000008399937     1.007825032230
         H           -3.173310137516     1.245958346119    -0.000013600063     1.007825032230
         H            3.988185862484     0.399363346119     0.000021399937     1.007825032230
         H            3.166834862484    -1.258557653881     0.000062399937     1.007825032230

  Basis Set: AUG-CC-PVTZ
    Blend: AUG-CC-PVTZ
  Basis Set: (AUG-CC-PVTZ AUX)
    Blend: AUG-CC-PVTZ-JKFIT
	 Reference Energy          =    -231.8905463501133966 [Eh]
	 Singles Energy            =      -0.0000000000000000 [Eh]
	 Same-Spin Energy          =      -0.2423334222151610 [Eh]
	 Opposite-Spin Energy      =      -0.8488212591419693 [Eh]
	 Correlation Energy        =      -1.0911546813571302 [Eh]
	 Total Energy              =    -232.9817010314705215 [Eh]

	 ================> DF-SCS-MP2 Energies <==================
	-----------------------------------------------------------
	 SCS Same-Spin Scale       =       0.3333333333333333 [-]
	 SCS Opposite-Spin Scale   =       1.2000000000000000 [-]
	 SCS Same-Spin Energy      =      -0.0807778074050537 [Eh]
	 SCS Opposite-Spin Energy  =      -1.0185855109703630 [Eh]
	 SCS Correlation Energy    =      -1.0993633183754166 [Eh]
	 SCS Total Energy          =    -232.9899096684888207 [Eh]
	-----------------------------------------------------------

  Dipole Moment: [D]
     X:    -0.0018      Y:     0.0133      Z:     0.0000     Total:     0.0134

*** Psi4 exiting successfully. Buy a developer a beer!
