                               Psi4 1.3.2 release

  ==> Input File <==

--------------------------------------------------------------------------
#psi4
#
memory 32 gb

molecule  {
0 1
  C       -0.6175268     0.2774619    -0.0000128
  C        0.6072830    -0.2987480    -0.0000050
  C       -1.8649420    -0.4253110    -0.0000010
  C        1.8649420     0.4253110    -0.0000100
  C       -3.0721310     0.1700370    -0.0000030
  C        3.0721310    -0.1700390     0.0000280
  H       -0.6626240     1.3889280    -0.0000290
  H        0.6626240    -1.3889260     0.0000110
  H       -1.8062860    -1.5139730     0.0000120
  H        1.8062890     1.5139730    -0.0000480
  H       -3.9914240    -0.4056610     0.0000080
  H       -3.1700740     1.2522570    -0.0000140
  H        3.9914220     0.4056620     0.0000210
  H        3.1700710    -1.2522590     0.0000620
units angstrom
no_reorient  #important for SAPT in psi4, default
symmetry c1  #important for SAPT in psi4, default
}

set PROPERTIES_ORIGIN ["COM"]
properties('MP2/aug-cc-pvtz', properties = ['dipole'])
--------------------------------------------------------------------------

    Molecular point group: c1
  Charge       = 0
  Multiplicity = 1
  Basis Set: AUG-CC-PVTZ
    Blend: AUG-CC-PVTZ
  Basis Set: (AUG-CC-PVTZ AUX)
    Blend: AUG-CC-PVTZ-JKFIT

    Orbital Energies [Eh]
    ---------------------

    Doubly Occupied:

       1A    -11.244134     2A    -11.243156     3A    -11.242258
       4A    -11.241372     5A    -11.232878     6A    -11.232752
       7A     -1.111382     8A     -1.059403     9A     -0.982656
      10A     -0.851264    11A     -0.764181    12A     -0.757879
      13A     -0.665743    14A     -0.634741    15A     -0.600457
      16A     -0.570412    17A     -0.539100    18A     -0.516294
      19A     -0.494706    20A     -0.468955    21A     -0.397611
      22A     -0.293277

  @DF-RHF Final Energy:  -231.89102219258405

   => Energetics <=

    Nuclear Repulsion Energy =            193.7553020935771144
    One-Electron Energy =                -695.0034225392944336
    Two-Electron Energy =                 269.3570982531332447
    Total Energy =                       -231.8910221925840460
  Basis Set: (AUG-CC-PVTZ AUX)
    Blend: AUG-CC-PVTZ-RI
    Molecular point group: c1

    Geometry (in Angstrom), charge = 0, multiplicity = 1:

       Center              X                  Y                   Z               Mass
    ------------   -----------------  -----------------  -----------------  -----------------
         C           -0.615991406255     0.280652605665    -0.000012519969    12.000000000000
         C            0.608818393745    -0.295557294335    -0.000004719969    12.000000000000
         C           -1.863406606255    -0.422120294335    -0.000000719969    12.000000000000
         C            1.866477393745     0.428501705665    -0.000009719969    12.000000000000
         C           -3.070595606255     0.173227705665    -0.000002719969    12.000000000000
         C            3.073666393745    -0.166848294335     0.000028280031    12.000000000000
         H           -0.661088606255     1.392118705665    -0.000028719969     1.007825032230
         H            0.664159393745    -1.385735294335     0.000011280031     1.007825032230
         H           -1.804750606255    -1.510782294335     0.000012280031     1.007825032230
         H            1.807824393745     1.517163705665    -0.000047719969     1.007825032230
         H           -3.989888606255    -0.402470294335     0.000008280031     1.007825032230
         H           -3.168538606255     1.255447705665    -0.000013719969     1.007825032230
         H            3.992957393745     0.408852705665     0.000021280031     1.007825032230
         H            3.171606393745    -1.249068294335     0.000062280031     1.007825032230

  Basis Set: AUG-CC-PVTZ
    Blend: AUG-CC-PVTZ
  Basis Set: (AUG-CC-PVTZ AUX)
    Blend: AUG-CC-PVTZ-JKFIT
	 Reference Energy          =    -231.8910221925840460 [Eh]
	 Singles Energy            =      -0.0000000000000000 [Eh]
	 Same-Spin Energy          =      -0.2432161992052175 [Eh]
	 Opposite-Spin Energy      =      -0.8496413594897763 [Eh]
	 Correlation Energy        =      -1.0928575586949938 [Eh]
	 Total Energy              =    -232.9838797512790336 [Eh]

	 ================> DF-SCS-MP2 Energies <==================
	-----------------------------------------------------------
	 SCS Same-Spin Scale       =       0.3333333333333333 [-]
	 SCS Opposite-Spin Scale   =       1.2000000000000000 [-]
	 SCS Same-Spin Energy      =      -0.0810720664017392 [Eh]
	 SCS Opposite-Spin Energy  =      -1.0195696313877314 [Eh]
	 SCS Correlation Energy    =      -1.1006416977894706 [Eh]
	 SCS Total Energy          =    -232.9916638903735304 [Eh]
	-----------------------------------------------------------

  Dipole Moment: [D]
     X:     0.0031      Y:    -0.0094      Z:     0.0000     Total:     0.0099

*** Psi4 exiting successfully. Buy a developer a beer!
