                               Psi4 1.4a3.dev225

  ==> Input File <==

--------------------------------------------------------------------------
#psi4
#
memory 32 gb

molecule  {
0 1
  C       -0.6072990     0.2987600    -0.0000100
  C        0.6072990    -0.2987600     0.0000020
  C       -1.8649630    -0.4253540     0.0000010
  C        1.8649630     0.4253540    -0.0000070
  C       -3.0721420     0.1700200    -0.0000080
  C        3.0721410    -0.1700200     0.0000190
  H       -0.6626030     1.3889350    -0.0000290
  H        0.6600698    -1.3389982     0.0000192
  H       -1.8061510    -1.5140080     0.0000180
  H        1.8061510     1.5140080    -0.0000360
  H       -3.9915710    -0.4054530     0.0000010
  H       -3.1699730     1.2522670    -0.0000250
  H        3.9915700     0.4054520     0.0000140
  H        3.1699720    -1.2522680     0.0000490
units angstrom
no_reorient  #important for SAPT in psi4, default
symmetry c1  #important for SAPT in psi4, default
}

set PROPERTIES_ORIGIN ["COM"]
properties('MP2/aug-cc-pvtz', properties = ['dipole'])
--------------------------------------------------------------------------

    Molecular point group: c1
  Charge       = 0
  Multiplicity = 1
  Basis Set: AUG-CC-PVTZ
    Blend: AUG-CC-PVTZ
  Basis Set: (AUG-CC-PVTZ AUX)
    Blend: AUG-CC-PVTZ-JKFIT

    Orbital Energies [Eh]
    ---------------------

    Doubly Occupied:

       1A    -11.243549     2A    -11.242951     3A    -11.241815
       4A    -11.236083     5A    -11.232160     6A    -11.231876
       7A     -1.111141     8A     -1.057815     9A     -0.983159
      10A     -0.849738    11A     -0.767285    12A     -0.762426
      13A     -0.665467    14A     -0.636101    15A     -0.601402
      16A     -0.570277    17A     -0.543903    18A     -0.516673
      19A     -0.496878    20A     -0.467203    21A     -0.396387
      22A     -0.293945

  @DF-RHF Final Energy:  -231.89149635197080

   => Energetics <=

    Nuclear Repulsion Energy =            193.8471686158073624
    One-Electron Energy =                -695.1808651039682445
    Two-Electron Energy =                 269.4422001361900811
    Total Energy =                       -231.8914963519707726
  Basis Set: (AUG-CC-PVTZ AUX)
    Blend: AUG-CC-PVTZ-RI
    Molecular point group: c1

    Geometry (in Angstrom), charge = 0, multiplicity = 1:

       Center              X                  Y                   Z               Mass
    ------------   -----------------  -----------------  -----------------  -----------------
         C           -0.607266937114     0.298131422596    -0.000009691337    12.000000000000
         C            0.607331062886    -0.299388577404     0.000002308663    12.000000000000
         C           -1.864930937114    -0.425982577404     0.000001308663    12.000000000000
         C            1.864995062886     0.424725422596    -0.000006691337    12.000000000000
         C           -3.072109937114     0.169391422596    -0.000007691337    12.000000000000
         C            3.072173062886    -0.170648577404     0.000019308663    12.000000000000
         H           -0.662570937114     1.388306422596    -0.000028691337     1.007825032230
         H            0.660101862886    -1.339626777404     0.000019508663     1.007825032230
         H           -1.806118937114    -1.514636577404     0.000018308663     1.007825032230
         H            1.806183062886     1.513379422596    -0.000035691337     1.007825032230
         H           -3.991538937114    -0.406081577404     0.000001308663     1.007825032230
         H           -3.169940937114     1.251638422596    -0.000024691337     1.007825032230
         H            3.991602062886     0.404823422596     0.000014308663     1.007825032230
         H            3.170004062886    -1.252896577404     0.000049308663     1.007825032230

  Basis Set: AUG-CC-PVTZ
    Blend: AUG-CC-PVTZ
  Basis Set: (AUG-CC-PVTZ AUX)
    Blend: AUG-CC-PVTZ-JKFIT
	 Reference Energy          =    -231.8914963519708010 [Eh]
	 Singles Energy            =      -0.0000000000000000 [Eh]
	 Same-Spin Energy          =      -0.2427614405566548 [Eh]
	 Opposite-Spin Energy      =      -0.8489396461197809 [Eh]
	 Correlation Energy        =      -1.0917010866764356 [Eh]
	 Total Energy              =    -232.9831974386472382 [Eh]

	 ================> DF-SCS-MP2 Energies <==================
	-----------------------------------------------------------
	 SCS Same-Spin Scale       =       0.3333333333333333 [-]
	 SCS Opposite-Spin Scale   =       1.2000000000000000 [-]
	 SCS Same-Spin Energy      =      -0.0809204801855516 [Eh]
	 SCS Opposite-Spin Energy  =      -1.0187275753437370 [Eh]
	 SCS Correlation Energy    =      -1.0996480555292887 [Eh]
	 SCS Total Energy          =    -232.9911444075000873 [Eh]
	-----------------------------------------------------------

  Dipole Moment: [D]
     X:    -0.0093      Y:    -0.0189      Z:     0.0000     Total:     0.0211

*** Psi4 exiting successfully. Buy a developer a beer!
