                               Psi4 1.3.2 release

  ==> Input File <==

--------------------------------------------------------------------------
#psi4
#
memory 32 gb

molecule  {
0 1
  C       -0.6072840     0.2987500    -0.0000130
  C        0.6072830    -0.2987480    -0.0000050
  C       -1.8649420    -0.4253110    -0.0000010
  C        1.8649420     0.4253110    -0.0000100
  C       -3.0721310     0.1700370    -0.0000030
  C        3.0721310    -0.1700390     0.0000280
  H       -0.6626240     1.3889280    -0.0000290
  H        0.6676938    -1.4887974     0.0000125
  H       -1.8062860    -1.5139730     0.0000120
  H        1.8062890     1.5139730    -0.0000480
  H       -3.9914240    -0.4056610     0.0000080
  H       -3.1700740     1.2522570    -0.0000140
  H        3.9914220     0.4056620     0.0000210
  H        3.1700710    -1.2522590     0.0000620
units angstrom
no_reorient  #important for SAPT in psi4, default
symmetry c1  #important for SAPT in psi4, default
}

set PROPERTIES_ORIGIN ["COM"]
properties('MP2/aug-cc-pvtz', properties = ['dipole'])
--------------------------------------------------------------------------

    Molecular point group: c1
  Charge       = 0
  Multiplicity = 1
  Basis Set: AUG-CC-PVTZ
    Blend: AUG-CC-PVTZ
  Basis Set: (AUG-CC-PVTZ AUX)
    Blend: AUG-CC-PVTZ-JKFIT

    Orbital Energies [Eh]
    ---------------------

    Doubly Occupied:

       1A    -11.253536     2A    -11.244471     3A    -11.243689
       4A    -11.242754     5A    -11.232596     6A    -11.232090
       7A     -1.108752     8A     -1.057764     9A     -0.981811
      10A     -0.847928    11A     -0.763073    12A     -0.750951
      13A     -0.664161    14A     -0.631337    15A     -0.599153
      16A     -0.567110    17A     -0.536715    18A     -0.515488
      19A     -0.491581    20A     -0.468048    21A     -0.396741
      22A     -0.294512

  @DF-RHF Final Energy:  -231.88494360945850

   => Energetics <=

    Nuclear Repulsion Energy =            193.2114269353940585
    One-Electron Energy =                -693.9442182006282565
    Two-Electron Energy =                 268.8478476557756949
    Total Energy =                       -231.8849436094585030
  Basis Set: (AUG-CC-PVTZ AUX)
    Blend: AUG-CC-PVTZ-RI
    Molecular point group: c1

    Geometry (in Angstrom), charge = 0, multiplicity = 1:

       Center              X                  Y                   Z               Mass
    ------------   -----------------  -----------------  -----------------  -----------------
         C           -0.607347643395     0.300007164878    -0.000012708874    12.000000000000
         C            0.607219356605    -0.297490835122    -0.000004708874    12.000000000000
         C           -1.865005643395    -0.424053835122    -0.000000708874    12.000000000000
         C            1.864878356605     0.426568164878    -0.000009708874    12.000000000000
         C           -3.072194643395     0.171294164878    -0.000002708874    12.000000000000
         C            3.072067356605    -0.168781835122     0.000028291126    12.000000000000
         H           -0.662687643395     1.390185164878    -0.000028708874     1.007825032230
         H            0.667630156605    -1.487540235122     0.000012791126     1.007825032230
         H           -1.806349643395    -1.512715835122     0.000012291126     1.007825032230
         H            1.806225356605     1.515230164878    -0.000047708874     1.007825032230
         H           -3.991487643395    -0.404403835122     0.000008291126     1.007825032230
         H           -3.170137643395     1.253514164878    -0.000013708874     1.007825032230
         H            3.991358356605     0.406919164878     0.000021291126     1.007825032230
         H            3.170007356605    -1.251001835122     0.000062291126     1.007825032230

  Basis Set: AUG-CC-PVTZ
    Blend: AUG-CC-PVTZ
  Basis Set: (AUG-CC-PVTZ AUX)
    Blend: AUG-CC-PVTZ-JKFIT
	 Reference Energy          =    -231.8849436094585030 [Eh]
	 Singles Energy            =      -0.0000000000000000 [Eh]
	 Same-Spin Energy          =      -0.2431776707258241 [Eh]
	 Opposite-Spin Energy      =      -0.8502264789995704 [Eh]
	 Correlation Energy        =      -1.0934041497253946 [Eh]
	 Total Energy              =    -232.9783477591838903 [Eh]

	 ================> DF-SCS-MP2 Energies <==================
	-----------------------------------------------------------
	 SCS Same-Spin Scale       =       0.3333333333333333 [-]
	 SCS Opposite-Spin Scale   =       1.2000000000000000 [-]
	 SCS Same-Spin Energy      =      -0.0810592235752747 [Eh]
	 SCS Opposite-Spin Energy  =      -1.0202717747994845 [Eh]
	 SCS Correlation Energy    =      -1.1013309983747592 [Eh]
	 SCS Total Energy          =    -232.9862746078332520 [Eh]
	-----------------------------------------------------------

  Dipole Moment: [D]
     X:     0.0163      Y:     0.0477      Z:     0.0000     Total:     0.0504

*** Psi4 exiting successfully. Buy a developer a beer!
