                               Psi4 1.3.2 release

  ==> Input File <==

--------------------------------------------------------------------------
#psi4
#
memory 32 gb

molecule  {
0 1
  C       -0.6072840     0.2987500    -0.0000130
  C        0.6072830    -0.2987480    -0.0000050
  C       -1.8649420    -0.4253110    -0.0000010
  C        1.8649420     0.4253110    -0.0000100
  C       -3.0721310     0.1700370    -0.0000030
  C        3.0721310    -0.1700390     0.0000280
  H       -0.6626240     1.3889280    -0.0000290
  H        0.6626240    -1.3889260     0.0000110
  H       -1.8062860    -1.5139730     0.0000120
  H        1.8062890     1.5139730    -0.0000480
  H       -3.9262112    -0.4985996     0.0000086
  H       -3.1700740     1.2522570    -0.0000140
  H        3.9914220     0.4056620     0.0000210
  H        3.1700710    -1.2522590     0.0000620
units angstrom
no_reorient  #important for SAPT in psi4, default
symmetry c1  #important for SAPT in psi4, default
}

set PROPERTIES_ORIGIN ["COM"]
properties('MP2/aug-cc-pvtz', properties = ['dipole'])
--------------------------------------------------------------------------

    Molecular point group: c1
  Charge       = 0
  Multiplicity = 1
  Basis Set: AUG-CC-PVTZ
    Blend: AUG-CC-PVTZ
  Basis Set: (AUG-CC-PVTZ AUX)
    Blend: AUG-CC-PVTZ-JKFIT

    Orbital Energies [Eh]
    ---------------------

    Doubly Occupied:

       1A    -11.243410     2A    -11.242485     3A    -11.241918
       4A    -11.240713     5A    -11.231965     6A    -11.231522
       7A     -1.110008     8A     -1.058179     9A     -0.983077
      10A     -0.848258    11A     -0.761354    12A     -0.759746
      13A     -0.665973    14A     -0.634391    15A     -0.598330
      16A     -0.570020    17A     -0.540043    18A     -0.518410
      19A     -0.495610    20A     -0.467136    21A     -0.396300
      22A     -0.293983

  @DF-RHF Final Energy:  -231.89102105721531

   => Energetics <=

    Nuclear Repulsion Energy =            193.7042243459131328
    One-Electron Energy =                -694.9248266836162884
    Two-Electron Energy =                 269.3295812804878437
    Total Energy =                       -231.8910210572153119
  Basis Set: (AUG-CC-PVTZ AUX)
    Blend: AUG-CC-PVTZ-RI
    Molecular point group: c1

    Geometry (in Angstrom), charge = 0, multiplicity = 1:

       Center              X                  Y                   Z               Mass
    ------------   -----------------  -----------------  -----------------  -----------------
         C           -0.608104721241     0.299919895050    -0.000012697545    12.000000000000
         C            0.606462278759    -0.297578104950    -0.000004697545    12.000000000000
         C           -1.865762721241    -0.424141104950    -0.000000697545    12.000000000000
         C            1.864121278759     0.426480895050    -0.000009697545    12.000000000000
         C           -3.072951721241     0.171206895050    -0.000002697545    12.000000000000
         C            3.071310278759    -0.168869104950     0.000028302455    12.000000000000
         H           -0.663444721241     1.390097895050    -0.000028697545     1.007825032230
         H            0.661803278759    -1.387756104950     0.000011302455     1.007825032230
         H           -1.807106721241    -1.512803104950     0.000012302455     1.007825032230
         H            1.805468278759     1.515142895050    -0.000047697545     1.007825032230
         H           -3.927031921241    -0.497429704950     0.000008902455     1.007825032230
         H           -3.170894721241     1.253426895050    -0.000013697545     1.007825032230
         H            3.990601278759     0.406831895050     0.000021302455     1.007825032230
         H            3.169250278759    -1.251089104950     0.000062302455     1.007825032230

  Basis Set: AUG-CC-PVTZ
    Blend: AUG-CC-PVTZ
  Basis Set: (AUG-CC-PVTZ AUX)
    Blend: AUG-CC-PVTZ-JKFIT
	 Reference Energy          =    -231.8910210572153119 [Eh]
	 Singles Energy            =      -0.0000000000000000 [Eh]
	 Same-Spin Energy          =      -0.2430045799071354 [Eh]
	 Opposite-Spin Energy      =      -0.8493956974913661 [Eh]
	 Correlation Energy        =      -1.0924002773985015 [Eh]
	 Total Energy              =    -232.9834213346138085 [Eh]

	 ================> DF-SCS-MP2 Energies <==================
	-----------------------------------------------------------
	 SCS Same-Spin Scale       =       0.3333333333333333 [-]
	 SCS Opposite-Spin Scale   =       1.2000000000000000 [-]
	 SCS Same-Spin Energy      =      -0.0810015266357118 [Eh]
	 SCS Opposite-Spin Energy  =      -1.0192748369896394 [Eh]
	 SCS Correlation Energy    =      -1.1002763636253512 [Eh]
	 SCS Total Energy          =    -232.9912974208406524 [Eh]
	-----------------------------------------------------------

  Dipole Moment: [D]
     X:     0.0212      Y:    -0.0092      Z:     0.0000     Total:     0.0231

*** Psi4 exiting successfully. Buy a developer a beer!
