                               Psi4 1.3.2 release

  ==> Input File <==

--------------------------------------------------------------------------
#psi4
#
memory 32 gb

molecule  {
0 1
  C       -0.6072840     0.2987500    -0.0000130
  C        0.6072830    -0.2987480    -0.0000050
  C       -1.8649420    -0.4253110    -0.0000010
  C        1.8649420     0.4253110    -0.0000100
  C       -3.0721310     0.1700370    -0.0000030
  C        3.0721310    -0.1700390     0.0000280
  H       -0.6626240     1.3889280    -0.0000290
  H        0.6626240    -1.3889260     0.0000110
  H       -1.8062860    -1.5139730     0.0000120
  H        1.8062890     1.5139730    -0.0000480
  H       -3.9914240    -0.4056610     0.0000080
  H       -3.1700740     1.2522570    -0.0000140
  H        3.9914220     0.4056620     0.0000210
  H        3.1700710    -1.2522590     0.0000620
units angstrom
no_reorient  #important for SAPT in psi4, default
symmetry c1  #important for SAPT in psi4, default
}

set PROPERTIES_ORIGIN ["COM"]
properties('MP2/aug-cc-pvtz', properties = ['dipole'])
--------------------------------------------------------------------------

    Molecular point group: c1
  Charge       = 0
  Multiplicity = 1
  Basis Set: AUG-CC-PVTZ
    Blend: AUG-CC-PVTZ
  Basis Set: (AUG-CC-PVTZ AUX)
    Blend: AUG-CC-PVTZ-JKFIT

    Orbital Energies [Eh]
    ---------------------

    Doubly Occupied:

       1A    -11.243653     2A    -11.243491     3A    -11.242685
       4A    -11.241299     5A    -11.232100     6A    -11.232100
       7A     -1.110106     8A     -1.057744     9A     -0.982544
      10A     -0.848862    11A     -0.762779    12A     -0.760906
      13A     -0.664906    14A     -0.634369    15A     -0.600555
      16A     -0.569033    17A     -0.541703    18A     -0.516384
      19A     -0.495639    20A     -0.467437    21A     -0.396483
      22A     -0.294093

  @DF-RHF Final Energy:  -231.89221518031221

   => Energetics <=

    Nuclear Repulsion Energy =            193.6235445123161867
    One-Electron Energy =                -694.7537758377145565
    Two-Electron Energy =                 269.2380161450861920
    Total Energy =                       -231.8922151803121778
  Basis Set: (AUG-CC-PVTZ AUX)
    Blend: AUG-CC-PVTZ-RI
    Molecular point group: c1

    Geometry (in Angstrom), charge = 0, multiplicity = 1:

       Center              X                  Y                   Z               Mass
    ------------   -----------------  -----------------  -----------------  -----------------
         C           -0.607283824941     0.298749987412    -0.000012689992    12.000000000000
         C            0.607283175059    -0.298748012588    -0.000004689992    12.000000000000
         C           -1.864941824941    -0.425311012588    -0.000000689992    12.000000000000
         C            1.864942175059     0.425310987412    -0.000009689992    12.000000000000
         C           -3.072130824941     0.170036987412    -0.000002689992    12.000000000000
         C            3.072131175059    -0.170039012588     0.000028310008    12.000000000000
         H           -0.662623824941     1.388927987412    -0.000028689992     1.007825032230
         H            0.662624175059    -1.388926012588     0.000011310008     1.007825032230
         H           -1.806285824941    -1.513973012588     0.000012310008     1.007825032230
         H            1.806289175059     1.513972987412    -0.000047689992     1.007825032230
         H           -3.991423824941    -0.405661012588     0.000008310008     1.007825032230
         H           -3.170073824941     1.252256987412    -0.000013689992     1.007825032230
         H            3.991422175059     0.405661987412     0.000021310008     1.007825032230
         H            3.170071175059    -1.252259012588     0.000062310008     1.007825032230

  Basis Set: AUG-CC-PVTZ
    Blend: AUG-CC-PVTZ
  Basis Set: (AUG-CC-PVTZ AUX)
    Blend: AUG-CC-PVTZ-JKFIT
	 Reference Energy          =    -231.8922151803122063 [Eh]
	 Singles Energy            =      -0.0000000000000000 [Eh]
	 Same-Spin Energy          =      -0.2428837355320614 [Eh]
	 Opposite-Spin Energy      =      -0.8492814626042295 [Eh]
	 Correlation Energy        =      -1.0921651981362910 [Eh]
	 Total Energy              =    -232.9843803784484919 [Eh]

	 ================> DF-SCS-MP2 Energies <==================
	-----------------------------------------------------------
	 SCS Same-Spin Scale       =       0.3333333333333333 [-]
	 SCS Opposite-Spin Scale   =       1.2000000000000000 [-]
	 SCS Same-Spin Energy      =      -0.0809612451773538 [Eh]
	 SCS Opposite-Spin Energy  =      -1.0191377551250753 [Eh]
	 SCS Correlation Energy    =      -1.1000990003024291 [Eh]
	 SCS Total Energy          =    -232.9923141806146418 [Eh]
	-----------------------------------------------------------

  Dipole Moment: [D]
     X:    -0.0000      Y:     0.0000      Z:     0.0000     Total:     0.0000

*** Psi4 exiting successfully. Buy a developer a beer!
