                               Psi4 1.3.2 release

  ==> Input File <==

--------------------------------------------------------------------------
#psi4
#
memory 32 gb

molecule  {
0 1
  C       -0.6072840     0.2987500    -0.0000130
  C        0.6072830    -0.2987480    -0.0000050
  C       -1.8649420    -0.4253110    -0.0000010
  C        1.8649420     0.4253110    -0.0000100
  C       -3.0721310     0.1700370    -0.0000030
  C        3.0721310    -0.1700390     0.0000280
  H       -0.6626240     1.3889280    -0.0000290
  H        0.6626240    -1.3889260     0.0000110
  H       -1.8062860    -1.5139730     0.0000120
  H        1.8062890     1.5139730    -0.0000480
  H       -4.0013313    -0.3895294     0.0000079
  H       -3.1700740     1.2522570    -0.0000140
  H        3.9914220     0.4056620     0.0000210
  H        3.1700710    -1.2522590     0.0000620
units angstrom
no_reorient  #important for SAPT in psi4, default
symmetry c1  #important for SAPT in psi4, default
}

set PROPERTIES_ORIGIN ["COM"]
properties('MP2/aug-cc-pvtz', properties = ['dipole'])
--------------------------------------------------------------------------

    Molecular point group: c1
  Charge       = 0
  Multiplicity = 1
  Basis Set: AUG-CC-PVTZ
    Blend: AUG-CC-PVTZ
  Basis Set: (AUG-CC-PVTZ AUX)
    Blend: AUG-CC-PVTZ-JKFIT

    Orbital Energies [Eh]
    ---------------------

    Doubly Occupied:

       1A    -11.243835     2A    -11.243579     3A    -11.242779
       4A    -11.241381     5A    -11.232204     6A    -11.232122
       7A     -1.110129     8A     -1.057693     9A     -0.982475
      10A     -0.848981    11A     -0.763213    12A     -0.760941
      13A     -0.664767    14A     -0.634450    15A     -0.600873
      16A     -0.568883    17A     -0.541862    18A     -0.515976
      19A     -0.495570    20A     -0.467489    21A     -0.396522
      22A     -0.294115

  @DF-RHF Final Energy:  -231.89214529048868

   => Energetics <=

    Nuclear Repulsion Energy =            193.6115933206399973
    One-Electron Energy =                -694.7278037088407245
    Two-Electron Energy =                 269.2240650977120140
    Total Energy =                       -231.8921452904887133
  Basis Set: (AUG-CC-PVTZ AUX)
    Blend: AUG-CC-PVTZ-RI
    Molecular point group: c1

    Geometry (in Angstrom), charge = 0, multiplicity = 1:

       Center              X                  Y                   Z               Mass
    ------------   -----------------  -----------------  -----------------  -----------------
         C           -0.607159112218     0.298546923432    -0.000012688733    12.000000000000
         C            0.607407887782    -0.298951076568    -0.000004688733    12.000000000000
         C           -1.864817112218    -0.425514076568    -0.000000688733    12.000000000000
         C            1.865066887782     0.425107923432    -0.000009688733    12.000000000000
         C           -3.072006112218     0.169833923432    -0.000002688733    12.000000000000
         C            3.072255887782    -0.170242076568     0.000028311267    12.000000000000
         H           -0.662499112218     1.388724923432    -0.000028688733     1.007825032230
         H            0.662748887782    -1.389129076568     0.000011311267     1.007825032230
         H           -1.806161112218    -1.514176076568     0.000012311267     1.007825032230
         H            1.806413887782     1.513769923432    -0.000047688733     1.007825032230
         H           -4.001206412218    -0.389732476568     0.000008211267     1.007825032230
         H           -3.169949112218     1.252053923432    -0.000013688733     1.007825032230
         H            3.991546887782     0.405458923432     0.000021311267     1.007825032230
         H            3.170195887782    -1.252462076568     0.000062311267     1.007825032230

  Basis Set: AUG-CC-PVTZ
    Blend: AUG-CC-PVTZ
  Basis Set: (AUG-CC-PVTZ AUX)
    Blend: AUG-CC-PVTZ-JKFIT
	 Reference Energy          =    -231.8921452904886849 [Eh]
	 Singles Energy            =      -0.0000000000000000 [Eh]
	 Same-Spin Energy          =      -0.2428753975296201 [Eh]
	 Opposite-Spin Energy      =      -0.8492812054156678 [Eh]
	 Correlation Energy        =      -1.0921566029452878 [Eh]
	 Total Energy              =    -232.9843018934339796 [Eh]

	 ================> DF-SCS-MP2 Energies <==================
	-----------------------------------------------------------
	 SCS Same-Spin Scale       =       0.3333333333333333 [-]
	 SCS Opposite-Spin Scale   =       1.2000000000000000 [-]
	 SCS Same-Spin Energy      =      -0.0809584658432067 [Eh]
	 SCS Opposite-Spin Energy  =      -1.0191374464988012 [Eh]
	 SCS Correlation Energy    =      -1.1000959123420080 [Eh]
	 SCS Total Energy          =    -232.9922412028306837 [Eh]
	-----------------------------------------------------------

  Dipole Moment: [D]
     X:    -0.0029      Y:     0.0022      Z:     0.0000     Total:     0.0037

*** Psi4 exiting successfully. Buy a developer a beer!
