                               Psi4 1.3.2 release

  ==> Input File <==

--------------------------------------------------------------------------
#psi4
#
memory 32 gb

molecule  {
0 1
  C       -0.6072840     0.2987500    -0.0000130
  C        0.6072830    -0.2987480    -0.0000050
  C       -1.8649420    -0.4253110    -0.0000010
  C        1.8649420     0.4253110    -0.0000100
  C       -3.0721310     0.1700370    -0.0000030
  C        3.0721310    -0.1700390     0.0000280
  H       -0.6626240     1.3889280    -0.0000290
  H        0.6524844    -1.1891832     0.0000081
  H       -1.8062860    -1.5139730     0.0000120
  H        1.8062890     1.5139730    -0.0000480
  H       -3.9914240    -0.4056610     0.0000080
  H       -3.1700740     1.2522570    -0.0000140
  H        3.9914220     0.4056620     0.0000210
  H        3.1700710    -1.2522590     0.0000620
units angstrom
no_reorient  #important for SAPT in psi4, default
symmetry c1  #important for SAPT in psi4, default
}

set PROPERTIES_ORIGIN ["COM"]
properties('MP2/aug-cc-pvtz', properties = ['dipole'])
--------------------------------------------------------------------------

    Molecular point group: c1
  Charge       = 0
  Multiplicity = 1
  Basis Set: AUG-CC-PVTZ
    Blend: AUG-CC-PVTZ
  Basis Set: (AUG-CC-PVTZ AUX)
    Blend: AUG-CC-PVTZ-JKFIT

    Orbital Energies [Eh]
    ---------------------

    Doubly Occupied:

       1A    -11.243688     2A    -11.241736     3A    -11.241247
       4A    -11.232516     5A    -11.231235     6A    -11.217974
       7A     -1.116306     8A     -1.058440     9A     -0.986382
      10A     -0.855414    11A     -0.789136    12A     -0.762105
      13A     -0.668006    14A     -0.641452    15A     -0.604012
      16A     -0.574299    17A     -0.548396    18A     -0.517178
      19A     -0.499009    20A     -0.466841    21A     -0.396208
      22A     -0.293762

  @DF-RHF Final Energy:  -231.85858347956156

   => Energetics <=

    Nuclear Repulsion Energy =            194.6251276260185534
    One-Electron Energy =                -696.5967413338433971
    Two-Electron Energy =                 270.1130302282633124
    Total Energy =                       -231.8585834795615597
  Basis Set: (AUG-CC-PVTZ AUX)
    Blend: AUG-CC-PVTZ-RI
    Molecular point group: c1

    Geometry (in Angstrom), charge = 0, multiplicity = 1:

       Center              X                  Y                   Z               Mass
    ------------   -----------------  -----------------  -----------------  -----------------
         C           -0.607156188034     0.296235632480    -0.000012653487    12.000000000000
         C            0.607410811966    -0.301262367520    -0.000004653487    12.000000000000
         C           -1.864814188034    -0.427825367520    -0.000000653487    12.000000000000
         C            1.865069811966     0.422796632480    -0.000009653487    12.000000000000
         C           -3.072003188034     0.167522632480    -0.000002653487    12.000000000000
         C            3.072258811966    -0.172553367520     0.000028346513    12.000000000000
         H           -0.662496188034     1.386413632480    -0.000028653487     1.007825032230
         H            0.652612211966    -1.191697567520     0.000008446513     1.007825032230
         H           -1.806158188034    -1.516487367520     0.000012346513     1.007825032230
         H            1.806416811966     1.511458632480    -0.000047653487     1.007825032230
         H           -3.991296188034    -0.408175367520     0.000008346513     1.007825032230
         H           -3.169946188034     1.249742632480    -0.000013653487     1.007825032230
         H            3.991549811966     0.403147632480     0.000021346513     1.007825032230
         H            3.170198811966    -1.254773367520     0.000062346513     1.007825032230

  Basis Set: AUG-CC-PVTZ
    Blend: AUG-CC-PVTZ
  Basis Set: (AUG-CC-PVTZ AUX)
    Blend: AUG-CC-PVTZ-JKFIT
	 Reference Energy          =    -231.8585834795615597 [Eh]
	 Singles Energy            =      -0.0000000000000000 [Eh]
	 Same-Spin Energy          =      -0.2425491902070800 [Eh]
	 Opposite-Spin Energy      =      -0.8485354348662071 [Eh]
	 Correlation Energy        =      -1.0910846250732871 [Eh]
	 Total Energy              =    -232.9496681046348385 [Eh]

	 ================> DF-SCS-MP2 Energies <==================
	-----------------------------------------------------------
	 SCS Same-Spin Scale       =       0.3333333333333333 [-]
	 SCS Opposite-Spin Scale   =       1.2000000000000000 [-]
	 SCS Same-Spin Energy      =      -0.0808497300690267 [Eh]
	 SCS Opposite-Spin Energy  =      -1.0182425218394484 [Eh]
	 SCS Correlation Energy    =      -1.0990922519084751 [Eh]
	 SCS Total Energy          =    -232.9576757314700330 [Eh]
	-----------------------------------------------------------

  Dipole Moment: [D]
     X:    -0.0429      Y:    -0.0560      Z:     0.0000     Total:     0.0705

*** Psi4 exiting successfully. Buy a developer a beer!
