                               Psi4 1.3.2 release

  ==> Input File <==

--------------------------------------------------------------------------
#psi4
#
memory 32 gb

molecule  {
0 1
  C       -0.6630860     0.1685200    -0.0000110
  C        0.6072830    -0.2987480    -0.0000050
  C       -1.8649420    -0.4253110    -0.0000010
  C        1.8649420     0.4253110    -0.0000100
  C       -3.0721310     0.1700370    -0.0000030
  C        3.0721310    -0.1700390     0.0000280
  H       -0.6626240     1.3889280    -0.0000290
  H        0.6626240    -1.3889260     0.0000110
  H       -1.8062860    -1.5139730     0.0000120
  H        1.8062890     1.5139730    -0.0000480
  H       -3.9914240    -0.4056610     0.0000080
  H       -3.1700740     1.2522570    -0.0000140
  H        3.9914220     0.4056620     0.0000210
  H        3.1700710    -1.2522590     0.0000620
units angstrom
no_reorient  #important for SAPT in psi4, default
symmetry c1  #important for SAPT in psi4, default
}

set PROPERTIES_ORIGIN ["COM"]
properties('MP2/aug-cc-pvtz', properties = ['dipole'])
--------------------------------------------------------------------------

    Molecular point group: c1
  Charge       = 0
  Multiplicity = 1
  Basis Set: AUG-CC-PVTZ
    Blend: AUG-CC-PVTZ
  Basis Set: (AUG-CC-PVTZ AUX)
    Blend: AUG-CC-PVTZ-JKFIT

    Orbital Energies [Eh]
    ---------------------

    Doubly Occupied:

       1A    -11.247543     2A    -11.245339     3A    -11.243826
       4A    -11.237807     5A    -11.236429     6A    -11.235875
       7A     -1.120723     8A     -1.067233     9A     -0.983911
      10A     -0.865956    11A     -0.772796    12A     -0.744331
      13A     -0.671182    14A     -0.637651    15A     -0.600327
      16A     -0.580275    17A     -0.536525    18A     -0.515024
      19A     -0.478544    20A     -0.469352    21A     -0.403240
      22A     -0.289554

  @DF-RHF Final Energy:  -231.86557340017450

   => Energetics <=

    Nuclear Repulsion Energy =            194.4504727711030512
    One-Electron Energy =                -696.2652076227921043
    Two-Electron Energy =                 269.9491614515146125
    Total Energy =                       -231.8655734001744690
  Basis Set: (AUG-CC-PVTZ AUX)
    Blend: AUG-CC-PVTZ-RI
    Molecular point group: c1

    Geometry (in Angstrom), charge = 0, multiplicity = 1:

       Center              X                  Y                   Z               Mass
    ------------   -----------------  -----------------  -----------------  -----------------
         C           -0.654722069607     0.188039213555    -0.000010989758    12.000000000000
         C            0.615646930393    -0.279228786445    -0.000004989758    12.000000000000
         C           -1.856578069607    -0.405791786445    -0.000000989758    12.000000000000
         C            1.873305930393     0.444830213555    -0.000009989758    12.000000000000
         C           -3.063767069607     0.189556213555    -0.000002989758    12.000000000000
         C            3.080494930393    -0.150519786445     0.000028010242    12.000000000000
         H           -0.654260069607     1.408447213555    -0.000028989758     1.007825032230
         H            0.670987930393    -1.369406786445     0.000011010242     1.007825032230
         H           -1.797922069607    -1.494453786445     0.000012010242     1.007825032230
         H            1.814652930393     1.533492213555    -0.000047989758     1.007825032230
         H           -3.983060069607    -0.386141786445     0.000008010242     1.007825032230
         H           -3.161710069607     1.271776213555    -0.000013989758     1.007825032230
         H            3.999785930393     0.425181213555     0.000021010242     1.007825032230
         H            3.178434930393    -1.232739786445     0.000062010242     1.007825032230

  Basis Set: AUG-CC-PVTZ
    Blend: AUG-CC-PVTZ
  Basis Set: (AUG-CC-PVTZ AUX)
    Blend: AUG-CC-PVTZ-JKFIT
	 Reference Energy          =    -231.8655734001744975 [Eh]
	 Singles Energy            =      -0.0000000000000000 [Eh]
	 Same-Spin Energy          =      -0.2454126461696821 [Eh]
	 Opposite-Spin Energy      =      -0.8526416978703829 [Eh]
	 Correlation Energy        =      -1.0980543440400650 [Eh]
	 Total Energy              =    -232.9636277442145627 [Eh]

	 ================> DF-SCS-MP2 Energies <==================
	-----------------------------------------------------------
	 SCS Same-Spin Scale       =       0.3333333333333333 [-]
	 SCS Opposite-Spin Scale   =       1.2000000000000000 [-]
	 SCS Same-Spin Energy      =      -0.0818042153898940 [Eh]
	 SCS Opposite-Spin Energy  =      -1.0231700374444594 [Eh]
	 SCS Correlation Energy    =      -1.1049742528343536 [Eh]
	 SCS Total Energy          =    -232.9705476530088504 [Eh]
	-----------------------------------------------------------

  Dipole Moment: [D]
     X:     0.0357      Y:    -0.0923      Z:     0.0000     Total:     0.0990

*** Psi4 exiting successfully. Buy a developer a beer!
