                               Psi4 1.4a3.dev225

  ==> Input File <==

--------------------------------------------------------------------------
#psi4
#
memory 32 gb

molecule  {
0 1
  C       -0.6072990     0.2987600    -0.0000100
  C        0.6072990    -0.2987600     0.0000020
  C       -1.8649630    -0.4253540     0.0000010
  C        1.8649630     0.4253540    -0.0000070
  C       -3.0721420     0.1700200    -0.0000080
  C        3.0721410    -0.1700200     0.0000190
  H       -0.6626030     1.3889350    -0.0000290
  H        0.6651362    -1.4388698     0.0000208
  H       -1.8061510    -1.5140080     0.0000180
  H        1.8061510     1.5140080    -0.0000360
  H       -3.9915710    -0.4054530     0.0000010
  H       -3.1699730     1.2522670    -0.0000250
  H        3.9915700     0.4054520     0.0000140
  H        3.1699720    -1.2522680     0.0000490
units angstrom
no_reorient  #important for SAPT in psi4, default
symmetry c1  #important for SAPT in psi4, default
}

set PROPERTIES_ORIGIN ["COM"]
properties('MP2/aug-cc-pvtz', properties = ['dipole'])
--------------------------------------------------------------------------

    Molecular point group: c1
  Charge       = 0
  Multiplicity = 1
  Basis Set: AUG-CC-PVTZ
    Blend: AUG-CC-PVTZ
  Basis Set: (AUG-CC-PVTZ AUX)
    Blend: AUG-CC-PVTZ-JKFIT

    Orbital Energies [Eh]
    ---------------------

    Doubly Occupied:

       1A    -11.248086     2A    -11.243894     3A    -11.243566
       4A    -11.242316     5A    -11.232345     6A    -11.232082
       7A     -1.109310     8A     -1.057721     9A     -0.982090
      10A     -0.848276    11A     -0.762873    12A     -0.755596
      13A     -0.664459    14A     -0.632752    15A     -0.599816
      16A     -0.567961    17A     -0.539240    18A     -0.515984
      19A     -0.493931    20A     -0.467707    21A     -0.396600
      22A     -0.294279

  @DF-RHF Final Energy:  -231.88976545639784

   => Energetics <=

    Nuclear Repulsion Energy =            193.4099248147985577
    One-Electron Energy =                -694.3376116326365945
    Two-Electron Energy =                 269.0379213614402261
    Total Energy =                       -231.8897654563978108
  Basis Set: (AUG-CC-PVTZ AUX)
    Blend: AUG-CC-PVTZ-RI
    Molecular point group: c1

    Geometry (in Angstrom), charge = 0, multiplicity = 1:

       Center              X                  Y                   Z               Mass
    ------------   -----------------  -----------------  -----------------  -----------------
         C           -0.607330712769     0.299388602580    -0.000009711478    12.000000000000
         C            0.607267287231    -0.298131397420     0.000002288522    12.000000000000
         C           -1.864994712769    -0.424725397420     0.000001288522    12.000000000000
         C            1.864931287231     0.425982602580    -0.000006711478    12.000000000000
         C           -3.072173712769     0.170648602580    -0.000007711478    12.000000000000
         C            3.072109287231    -0.169391397420     0.000019288522    12.000000000000
         H           -0.662634712769     1.389563602580    -0.000028711478     1.007825032230
         H            0.665104487231    -1.438241197420     0.000021088522     1.007825032230
         H           -1.806182712769    -1.513379397420     0.000018288522     1.007825032230
         H            1.806119287231     1.514636602580    -0.000035711478     1.007825032230
         H           -3.991602712769    -0.404824397420     0.000001288522     1.007825032230
         H           -3.170004712769     1.252895602580    -0.000024711478     1.007825032230
         H            3.991538287231     0.406080602580     0.000014288522     1.007825032230
         H            3.169940287231    -1.251639397420     0.000049288522     1.007825032230

  Basis Set: AUG-CC-PVTZ
    Blend: AUG-CC-PVTZ
  Basis Set: (AUG-CC-PVTZ AUX)
    Blend: AUG-CC-PVTZ-JKFIT
	 Reference Energy          =    -231.8897654563978392 [Eh]
	 Singles Energy            =      -0.0000000000000000 [Eh]
	 Same-Spin Energy          =      -0.2430236492835472 [Eh]
	 Opposite-Spin Energy      =      -0.8497156776200437 [Eh]
	 Correlation Energy        =      -1.0927393269035910 [Eh]
	 Total Energy              =    -232.9825047833014366 [Eh]

	 ================> DF-SCS-MP2 Energies <==================
	-----------------------------------------------------------
	 SCS Same-Spin Scale       =       0.3333333333333333 [-]
	 SCS Opposite-Spin Scale   =       1.2000000000000000 [-]
	 SCS Same-Spin Energy      =      -0.0810078830945157 [Eh]
	 SCS Opposite-Spin Energy  =      -1.0196588131440525 [Eh]
	 SCS Correlation Energy    =      -1.1006666962385683 [Eh]
	 SCS Total Energy          =    -232.9904321526364015 [Eh]
	-----------------------------------------------------------

  Dipole Moment: [D]
     X:     0.0085      Y:     0.0222      Z:     0.0000     Total:     0.0238

*** Psi4 exiting successfully. Buy a developer a beer!
