                               Psi4 1.4a3.dev225

  ==> Input File <==

--------------------------------------------------------------------------
#psi4
#
memory 32 gb

molecule  {
0 1
  C       -0.6072990     0.2987600    -0.0000100
  C        0.6072990    -0.2987600     0.0000020
  C       -1.8649630    -0.4253540     0.0000010
  C        1.8649630     0.4253540    -0.0000070
  C       -3.0721420     0.1700200    -0.0000080
  C        3.0721410    -0.1700200     0.0000190
  H       -0.6626030     1.3889350    -0.0000290
  H        0.6636163    -1.4089083     0.0000203
  H       -1.8061510    -1.5140080     0.0000180
  H        1.8061510     1.5140080    -0.0000360
  H       -3.9915710    -0.4054530     0.0000010
  H       -3.1699730     1.2522670    -0.0000250
  H        3.9915700     0.4054520     0.0000140
  H        3.1699720    -1.2522680     0.0000490
units angstrom
no_reorient  #important for SAPT in psi4, default
symmetry c1  #important for SAPT in psi4, default
}

set PROPERTIES_ORIGIN ["COM"]
properties('MP2/aug-cc-pvtz', properties = ['dipole'])
--------------------------------------------------------------------------

    Molecular point group: c1
  Charge       = 0
  Multiplicity = 1
  Basis Set: AUG-CC-PVTZ
    Blend: AUG-CC-PVTZ
  Basis Set: (AUG-CC-PVTZ AUX)
    Blend: AUG-CC-PVTZ-JKFIT

    Orbital Energies [Eh]
    ---------------------

    Doubly Occupied:

       1A    -11.244891     2A    -11.243575     3A    -11.243427
       4A    -11.241955     5A    -11.232199     6A    -11.232092
       7A     -1.109753     8A     -1.057725     9A     -0.982337
      10A     -0.848593    11A     -0.762781    12A     -0.758727
      13A     -0.664705    14A     -0.633696    15A     -0.600257
      16A     -0.568579    17A     -0.540740    18A     -0.516233
      19A     -0.495021    20A     -0.467534    21A     -0.396527
      22A     -0.294161

  @DF-RHF Final Energy:  -231.89156432933709

   => Energetics <=

    Nuclear Repulsion Energy =            193.5355911186725280
    One-Electron Energy =                -694.5832944299984320
    Two-Electron Energy =                 269.1561389819888177
    Total Energy =                       -231.8915643293370863
  Basis Set: (AUG-CC-PVTZ AUX)
    Blend: AUG-CC-PVTZ-RI
    Molecular point group: c1

    Geometry (in Angstrom), charge = 0, multiplicity = 1:

       Center              X                  Y                   Z               Mass
    ------------   -----------------  -----------------  -----------------  -----------------
         C           -0.607311580324     0.299011448333    -0.000009705184    12.000000000000
         C            0.607286419676    -0.298508551667     0.000002294816    12.000000000000
         C           -1.864975580324    -0.425102551667     0.000001294816    12.000000000000
         C            1.864950419676     0.425605448333    -0.000006705184    12.000000000000
         C           -3.072154580324     0.170271448333    -0.000007705184    12.000000000000
         C            3.072128419676    -0.169768551667     0.000019294816    12.000000000000
         H           -0.662615580324     1.389186448333    -0.000028705184     1.007825032230
         H            0.663603719676    -1.408656851667     0.000020594816     1.007825032230
         H           -1.806163580324    -1.513756551667     0.000018294816     1.007825032230
         H            1.806138419676     1.514259448333    -0.000035705184     1.007825032230
         H           -3.991583580324    -0.405201551667     0.000001294816     1.007825032230
         H           -3.169985580324     1.252518448333    -0.000024705184     1.007825032230
         H            3.991557419676     0.405703448333     0.000014294816     1.007825032230
         H            3.169959419676    -1.252016551667     0.000049294816     1.007825032230

  Basis Set: AUG-CC-PVTZ
    Blend: AUG-CC-PVTZ
  Basis Set: (AUG-CC-PVTZ AUX)
    Blend: AUG-CC-PVTZ-JKFIT
	 Reference Energy          =    -231.8915643293370863 [Eh]
	 Singles Energy            =      -0.0000000000000000 [Eh]
	 Same-Spin Energy          =      -0.2429376222140098 [Eh]
	 Opposite-Spin Energy      =      -0.8494456073093488 [Eh]
	 Correlation Energy        =      -1.0923832295233586 [Eh]
	 Total Energy              =    -232.9839475588604500 [Eh]

	 ================> DF-SCS-MP2 Energies <==================
	-----------------------------------------------------------
	 SCS Same-Spin Scale       =       0.3333333333333333 [-]
	 SCS Opposite-Spin Scale   =       1.2000000000000000 [-]
	 SCS Same-Spin Energy      =      -0.0809792074046699 [Eh]
	 SCS Opposite-Spin Energy  =      -1.0193347287712184 [Eh]
	 SCS Correlation Energy    =      -1.1003139361758885 [Eh]
	 SCS Total Energy          =    -232.9918782655129803 [Eh]
	-----------------------------------------------------------

  Dipole Moment: [D]
     X:     0.0035      Y:     0.0085      Z:     0.0000     Total:     0.0092

*** Psi4 exiting successfully. Buy a developer a beer!
