                               Psi4 1.3.2 release

  ==> Input File <==

--------------------------------------------------------------------------
#psi4
#
memory 32 gb

molecule  {
0 1
  C       -0.6072840     0.2987500    -0.0000130
  C        0.6072830    -0.2987480    -0.0000050
  C       -1.8649420    -0.4253110    -0.0000010
  C        1.8649420     0.4253110    -0.0000100
  C       -3.0721310     0.1700370    -0.0000030
  C        3.0721310    -0.1700390     0.0000280
  H       -0.6626240     1.3889280    -0.0000290
  H        0.6626240    -1.3889260     0.0000110
  H       -1.8062860    -1.5139730     0.0000120
  H        1.8062890     1.5139730    -0.0000480
  H       -3.9490260    -0.4683853     0.0000084
  H       -3.1700740     1.2522570    -0.0000140
  H        3.9914220     0.4056620     0.0000210
  H        3.1700710    -1.2522590     0.0000620
units angstrom
no_reorient  #important for SAPT in psi4, default
symmetry c1  #important for SAPT in psi4, default
}

set PROPERTIES_ORIGIN ["COM"]
properties('MP2/aug-cc-pvtz', properties = ['dipole'])
--------------------------------------------------------------------------

    Molecular point group: c1
  Charge       = 0
  Multiplicity = 1
  Basis Set: AUG-CC-PVTZ
    Blend: AUG-CC-PVTZ
  Basis Set: (AUG-CC-PVTZ AUX)
    Blend: AUG-CC-PVTZ-JKFIT

    Orbital Energies [Eh]
    ---------------------

    Doubly Occupied:

       1A    -11.243469     2A    -11.242756     3A    -11.242224
       4A    -11.240928     5A    -11.232010     6A    -11.231705
       7A     -1.110033     8A     -1.058008     9A     -0.982876
      10A     -0.848439    11A     -0.761536    12A     -0.760382
      13A     -0.665570    14A     -0.634290    15A     -0.599124
      16A     -0.569681    17A     -0.540735    18A     -0.517818
      19A     -0.495699    20A     -0.467234    21A     -0.396352
      22A     -0.294014

  @DF-RHF Final Energy:  -231.89172898007672

   => Energetics <=

    Nuclear Repulsion Energy =            193.6755903966898700
    One-Electron Energy =                -694.8648745339613697
    Two-Electron Energy =                 269.2975551571947790
    Total Energy =                       -231.8917289800767207
  Basis Set: (AUG-CC-PVTZ AUX)
    Blend: AUG-CC-PVTZ-RI
    Molecular point group: c1

    Geometry (in Angstrom), charge = 0, multiplicity = 1:

       Center              X                  Y                   Z               Mass
    ------------   -----------------  -----------------  -----------------  -----------------
         C           -0.607817529387     0.299539558566    -0.000012695027    12.000000000000
         C            0.606749470613    -0.297958441434    -0.000004695027    12.000000000000
         C           -1.865475529387    -0.424521441434    -0.000000695027    12.000000000000
         C            1.864408470613     0.426100558566    -0.000009695027    12.000000000000
         C           -3.072664529387     0.170826558566    -0.000002695027    12.000000000000
         C            3.071597470613    -0.169249441434     0.000028304973    12.000000000000
         H           -0.663157529387     1.389717558566    -0.000028695027     1.007825032230
         H            0.662090470613    -1.388136441434     0.000011304973     1.007825032230
         H           -1.806819529387    -1.513183441434     0.000012304973     1.007825032230
         H            1.805755470613     1.514762558566    -0.000047695027     1.007825032230
         H           -3.949559529387    -0.467595741434     0.000008704973     1.007825032230
         H           -3.170607529387     1.253046558566    -0.000013695027     1.007825032230
         H            3.990888470613     0.406451558566     0.000021304973     1.007825032230
         H            3.169537470613    -1.251469441434     0.000062304973     1.007825032230

  Basis Set: AUG-CC-PVTZ
    Blend: AUG-CC-PVTZ
  Basis Set: (AUG-CC-PVTZ AUX)
    Blend: AUG-CC-PVTZ-JKFIT
	 Reference Energy          =    -231.8917289800767207 [Eh]
	 Singles Energy            =      -0.0000000000000000 [Eh]
	 Same-Spin Energy          =      -0.2429506077643332 [Eh]
	 Opposite-Spin Energy      =      -0.8493363848172957 [Eh]
	 Correlation Energy        =      -1.0922869925816290 [Eh]
	 Total Energy              =    -232.9840159726583408 [Eh]

	 ================> DF-SCS-MP2 Energies <==================
	-----------------------------------------------------------
	 SCS Same-Spin Scale       =       0.3333333333333333 [-]
	 SCS Opposite-Spin Scale   =       1.2000000000000000 [-]
	 SCS Same-Spin Energy      =      -0.0809835359214444 [Eh]
	 SCS Opposite-Spin Energy  =      -1.0192036617807547 [Eh]
	 SCS Correlation Energy    =      -1.1001871977021991 [Eh]
	 SCS Total Energy          =    -232.9919161777789327 [Eh]
	-----------------------------------------------------------

  Dipole Moment: [D]
     X:     0.0134      Y:    -0.0069      Z:     0.0000     Total:     0.0151

*** Psi4 exiting successfully. Buy a developer a beer!
