                               Psi4 1.3.2 release

  ==> Input File <==

--------------------------------------------------------------------------
#psi4
#
memory 32 gb

molecule  {
0 1
  C       -0.5626460     0.3820184    -0.0000143
  C        0.6072830    -0.2987480    -0.0000050
  C       -1.8649420    -0.4253110    -0.0000010
  C        1.8649420     0.4253110    -0.0000100
  C       -3.0721310     0.1700370    -0.0000030
  C        3.0721310    -0.1700390     0.0000280
  H       -0.6626240     1.3889280    -0.0000290
  H        0.6626240    -1.3889260     0.0000110
  H       -1.8062860    -1.5139730     0.0000120
  H        1.8062890     1.5139730    -0.0000480
  H       -3.9914240    -0.4056610     0.0000080
  H       -3.1700740     1.2522570    -0.0000140
  H        3.9914220     0.4056620     0.0000210
  H        3.1700710    -1.2522590     0.0000620
units angstrom
no_reorient  #important for SAPT in psi4, default
symmetry c1  #important for SAPT in psi4, default
}

set PROPERTIES_ORIGIN ["COM"]
properties('MP2/aug-cc-pvtz', properties = ['dipole'])
--------------------------------------------------------------------------

    Molecular point group: c1
  Charge       = 0
  Multiplicity = 1
  Basis Set: AUG-CC-PVTZ
    Blend: AUG-CC-PVTZ
  Basis Set: (AUG-CC-PVTZ AUX)
    Blend: AUG-CC-PVTZ-JKFIT

    Orbital Energies [Eh]
    ---------------------

    Doubly Occupied:

       1A    -11.247304     2A    -11.243639     3A    -11.241764
       4A    -11.241120     5A    -11.229779     6A    -11.229226
       7A     -1.106846     8A     -1.051052     9A     -0.982520
      10A     -0.842079    11A     -0.773894    12A     -0.757685
      13A     -0.663781    14A     -0.632900    15A     -0.601328
      16A     -0.569999    17A     -0.551696    18A     -0.514915
      19A     -0.488359    20A     -0.462685    21A     -0.391977
      22A     -0.297487

  @DF-RHF Final Energy:  -231.88340635267849

   => Energetics <=

    Nuclear Repulsion Energy =            193.1319626324700494
    One-Electron Energy =                -693.7866681514068432
    Two-Electron Energy =                 268.7712991662583022
    Total Energy =                       -231.8834063526784917
  Basis Set: (AUG-CC-PVTZ AUX)
    Blend: AUG-CC-PVTZ-RI
    Molecular point group: c1

    Geometry (in Angstrom), charge = 0, multiplicity = 1:

       Center              X                  Y                   Z               Mass
    ------------   -----------------  -----------------  -----------------  -----------------
         C           -0.569336289631     0.369537893439    -0.000013795145    12.000000000000
         C            0.600592710369    -0.311228506561    -0.000004495145    12.000000000000
         C           -1.871632289631    -0.437791506561    -0.000000495145    12.000000000000
         C            1.858251710369     0.412830493439    -0.000009495145    12.000000000000
         C           -3.078821289631     0.157556493439    -0.000002495145    12.000000000000
         C            3.065440710369    -0.182519506561     0.000028504855    12.000000000000
         H           -0.669314289631     1.376447493439    -0.000028495145     1.007825032230
         H            0.655933710369    -1.401406506561     0.000011504855     1.007825032230
         H           -1.812976289631    -1.526453506561     0.000012504855     1.007825032230
         H            1.799598710369     1.501492493439    -0.000047495145     1.007825032230
         H           -3.998114289631    -0.418141506561     0.000008504855     1.007825032230
         H           -3.176764289631     1.239776493439    -0.000013495145     1.007825032230
         H            3.984731710369     0.393181493439     0.000021504855     1.007825032230
         H            3.163380710369    -1.264739506561     0.000062504855     1.007825032230

  Basis Set: AUG-CC-PVTZ
    Blend: AUG-CC-PVTZ
  Basis Set: (AUG-CC-PVTZ AUX)
    Blend: AUG-CC-PVTZ-JKFIT
	 Reference Energy          =    -231.8834063526784917 [Eh]
	 Singles Energy            =      -0.0000000000000000 [Eh]
	 Same-Spin Energy          =      -0.2419395386686282 [Eh]
	 Opposite-Spin Energy      =      -0.8487153076228853 [Eh]
	 Correlation Energy        =      -1.0906548462915135 [Eh]
	 Total Energy              =    -232.9740611989699914 [Eh]

	 ================> DF-SCS-MP2 Energies <==================
	-----------------------------------------------------------
	 SCS Same-Spin Scale       =       0.3333333333333333 [-]
	 SCS Opposite-Spin Scale   =       1.2000000000000000 [-]
	 SCS Same-Spin Energy      =      -0.0806465128895427 [Eh]
	 SCS Opposite-Spin Energy  =      -1.0184583691474622 [Eh]
	 SCS Correlation Energy    =      -1.0991048820370051 [Eh]
	 SCS Total Energy          =    -232.9825112347155027 [Eh]
	-----------------------------------------------------------

  Dipole Moment: [D]
     X:     0.0029      Y:     0.0205      Z:     0.0000     Total:     0.0207

*** Psi4 exiting successfully. Buy a developer a beer!
