                               Psi4 1.3.2 release

  ==> Input File <==

--------------------------------------------------------------------------
#psi4
#
memory 32 gb

molecule  {
0 1
  C       -0.6072840     0.2987500    -0.0000130
  C        0.6072830    -0.2987480    -0.0000050
  C       -1.8649420    -0.4253110    -0.0000010
  C        1.8649420     0.4253110    -0.0000100
  C       -3.0721310     0.1700370    -0.0000030
  C        3.0721310    -0.1700390     0.0000280
  H       -0.6626240     1.3889280    -0.0000290
  H        0.6626240    -1.3889260     0.0000110
  H       -1.8062860    -1.5139730     0.0000120
  H        1.8062890     1.5139730    -0.0000480
  H       -3.9812367    -0.4216172     0.0000081
  H       -3.1700740     1.2522570    -0.0000140
  H        3.9914220     0.4056620     0.0000210
  H        3.1700710    -1.2522590     0.0000620
units angstrom
no_reorient  #important for SAPT in psi4, default
symmetry c1  #important for SAPT in psi4, default
}

set PROPERTIES_ORIGIN ["COM"]
properties('MP2/aug-cc-pvtz', properties = ['dipole'])
--------------------------------------------------------------------------

    Molecular point group: c1
  Charge       = 0
  Multiplicity = 1
  Basis Set: AUG-CC-PVTZ
    Blend: AUG-CC-PVTZ
  Basis Set: (AUG-CC-PVTZ AUX)
    Blend: AUG-CC-PVTZ-JKFIT

    Orbital Energies [Eh]
    ---------------------

    Doubly Occupied:

       1A    -11.243575     2A    -11.243312     3A    -11.242584
       4A    -11.241213     5A    -11.232078     6A    -11.231998
       7A     -1.110085     8A     -1.057801     9A     -0.982619
      10A     -0.848749    11A     -0.762376    12A     -0.760852
      13A     -0.665055    14A     -0.634313    15A     -0.600220
      16A     -0.569189    17A     -0.541512    18A     -0.516773
      19A     -0.495685    20A     -0.467385    21A     -0.396447
      22A     -0.294071

  @DF-RHF Final Energy:  -231.89220885563083

   => Energetics <=

    Nuclear Repulsion Energy =            193.6359152810024966
    One-Electron Energy =                -694.7804637579918108
    Two-Electron Energy =                 269.2523396213584874
    Total Energy =                       -231.8922088556308267
  Basis Set: (AUG-CC-PVTZ AUX)
    Blend: AUG-CC-PVTZ-RI
    Molecular point group: c1

    Geometry (in Angstrom), charge = 0, multiplicity = 1:

       Center              X                  Y                   Z               Mass
    ------------   -----------------  -----------------  -----------------  -----------------
         C           -0.607412062295     0.298950843464    -0.000012691251    12.000000000000
         C            0.607154937705    -0.298547156536    -0.000004691251    12.000000000000
         C           -1.865070062295    -0.425110156536    -0.000000691251    12.000000000000
         C            1.864813937705     0.425511843464    -0.000009691251    12.000000000000
         C           -3.072259062295     0.170237843464    -0.000002691251    12.000000000000
         C            3.072002937705    -0.169838156536     0.000028308749    12.000000000000
         H           -0.662752062295     1.389128843464    -0.000028691251     1.007825032230
         H            0.662495937705    -1.388725156536     0.000011308749     1.007825032230
         H           -1.806414062295    -1.513772156536     0.000012308749     1.007825032230
         H            1.806160937705     1.514173843464    -0.000047691251     1.007825032230
         H           -3.981364762295    -0.421416356536     0.000008408749     1.007825032230
         H           -3.170202062295     1.252457843464    -0.000013691251     1.007825032230
         H            3.991293937705     0.405862843464     0.000021308749     1.007825032230
         H            3.169942937705    -1.252058156536     0.000062308749     1.007825032230

  Basis Set: AUG-CC-PVTZ
    Blend: AUG-CC-PVTZ
  Basis Set: (AUG-CC-PVTZ AUX)
    Blend: AUG-CC-PVTZ-JKFIT
	 Reference Energy          =    -231.8922088556308267 [Eh]
	 Singles Energy            =      -0.0000000000000000 [Eh]
	 Same-Spin Energy          =      -0.2428953998376190 [Eh]
	 Opposite-Spin Energy      =      -0.8492871522976793 [Eh]
	 Correlation Energy        =      -1.0921825521352981 [Eh]
	 Total Energy              =    -232.9843914077661111 [Eh]

	 ================> DF-SCS-MP2 Energies <==================
	-----------------------------------------------------------
	 SCS Same-Spin Scale       =       0.3333333333333333 [-]
	 SCS Opposite-Spin Scale   =       1.2000000000000000 [-]
	 SCS Same-Spin Energy      =      -0.0809651332792063 [Eh]
	 SCS Opposite-Spin Energy  =      -1.0191445827572150 [Eh]
	 SCS Correlation Energy    =      -1.1001097160364213 [Eh]
	 SCS Total Energy          =    -232.9923185716672549 [Eh]
	-----------------------------------------------------------

  Dipole Moment: [D]
     X:     0.0031      Y:    -0.0020      Z:     0.0000     Total:     0.0037

*** Psi4 exiting successfully. Buy a developer a beer!
