                               Psi4 1.3.2 release

  ==> Input File <==

--------------------------------------------------------------------------
#psi4
#
memory 32 gb

molecule  {
0 1
  O       -2.0961900    -0.1258010     0.0000130
  N        1.4061120    -0.6270640    -0.0000300
  C       -0.7219210    -0.0216290     0.0000200
  C        0.1198800    -1.1197570     0.0000420
  C        0.0727050     1.1512910    -0.0000190
  C        1.3966620     0.7411570    -0.0000480
  H       -0.0987760    -2.1768520     0.0000580
  H       -0.2751743     2.1769645     0.2499530
  H        2.2384780    -1.1997090     0.0000240
  H        2.3139960     1.3126250    -0.0000890
  H       -2.4557400     0.7764670     0.0001920
units angstrom
no_reorient  #important for SAPT in psi4, default
symmetry c1  #important for SAPT in psi4, default
}

set PROPERTIES_ORIGIN ["COM"]
properties('MP2/aug-cc-pvtz', properties = ['dipole'])
--------------------------------------------------------------------------

    Molecular point group: c1
  Charge       = 0
  Multiplicity = 1
  Basis Set: AUG-CC-PVTZ
    Blend: AUG-CC-PVTZ
  Basis Set: (AUG-CC-PVTZ AUX)
    Blend: AUG-CC-PVTZ-JKFIT

    Orbital Energies [Eh]
    ---------------------

    Doubly Occupied:

       1A    -20.578534     2A    -15.610132     3A    -11.276896
       4A    -11.264815     5A    -11.243045     6A    -11.218348
       7A     -1.382981     8A     -1.289856     9A     -1.038147
      10A     -0.977706    11A     -0.799685    12A     -0.782155
      13A     -0.741704    14A     -0.652278    15A     -0.612250
      16A     -0.594964    17A     -0.586240    18A     -0.563039
      19A     -0.535080    20A     -0.510866    21A     -0.337715
      22A     -0.289649

  @DF-RHF Final Energy:  -283.76387056149997

   => Energetics <=

    Nuclear Repulsion Energy =            221.8177972431700482
    One-Electron Energy =                -825.3911670788298807
    Two-Electron Energy =                 319.8094992741598617
    Total Energy =                       -283.7638705614999708
  Basis Set: (AUG-CC-PVTZ AUX)
    Blend: AUG-CC-PVTZ-RI
    Molecular point group: c1

    Geometry (in Angstrom), charge = 0, multiplicity = 1:

       Center              X                  Y                   Z               Mass
    ------------   -----------------  -----------------  -----------------  -----------------
         O           -2.075785712487    -0.115157566235    -0.003019658146    15.994914619570
         N            1.426516287513    -0.616420566235    -0.003062658146    14.003074004430
         C           -0.701516712487    -0.010985566235    -0.003012658146    12.000000000000
         C            0.140284287513    -1.109113566235    -0.002990658146    12.000000000000
         C            0.093109287513     1.161934433765    -0.003051658146    12.000000000000
         C            1.417066287513     0.751800433765    -0.003080658146    12.000000000000
         H           -0.078371712487    -2.166208566235    -0.002974658146     1.007825032230
         H           -0.254770012487     2.187607933765     0.246920341854     1.007825032230
         H            2.258882287513    -1.189065566235    -0.003008658146     1.007825032230
         H            2.334400287513     1.323268433765    -0.003121658146     1.007825032230
         H           -2.435335712487     0.787110433765    -0.002840658146     1.007825032230

  Basis Set: AUG-CC-PVTZ
    Blend: AUG-CC-PVTZ
  Basis Set: (AUG-CC-PVTZ AUX)
    Blend: AUG-CC-PVTZ-JKFIT
	 Reference Energy          =    -283.7638705614999708 [Eh]
	 Singles Energy            =      -0.0000000000000000 [Eh]
	 Same-Spin Energy          =      -0.2995803377002942 [Eh]
	 Opposite-Spin Energy      =      -0.9109978269182808 [Eh]
	 Correlation Energy        =      -1.2105781646185751 [Eh]
	 Total Energy              =    -284.9744487261185668 [Eh]

	 ================> DF-SCS-MP2 Energies <==================
	-----------------------------------------------------------
	 SCS Same-Spin Scale       =       0.3333333333333333 [-]
	 SCS Opposite-Spin Scale   =       1.2000000000000000 [-]
	 SCS Same-Spin Energy      =      -0.0998601125667647 [Eh]
	 SCS Opposite-Spin Energy  =      -1.0931973923019369 [Eh]
	 SCS Correlation Energy    =      -1.1930575048687015 [Eh]
	 SCS Total Energy          =    -284.9569280663686754 [Eh]
	-----------------------------------------------------------

  Dipole Moment: [D]
     X:     1.8401      Y:     0.3178      Z:     0.2171     Total:     1.8799

*** Psi4 exiting successfully. Buy a developer a beer!
