                               Psi4 1.3.2 release

  ==> Input File <==

--------------------------------------------------------------------------
#psi4
#
memory 32 gb

molecule  {
0 1
  O       -2.0961900    -0.1258010     0.0000130
  N        1.4061120    -0.6270640    -0.0000300
  C       -0.7219210    -0.0216290     0.0000200
  C        0.1198800    -1.1197570     0.0000420
  C        0.0727047     1.1512991     0.2999810
  C        1.3966620     0.7411570    -0.0000480
  H       -0.0987760    -2.1768520     0.0000580
  H       -0.2751800     2.1769580    -0.0000470
  H        2.2384780    -1.1997090     0.0000240
  H        2.3139960     1.3126250    -0.0000890
  H       -2.4557400     0.7764670     0.0001920
units angstrom
no_reorient  #important for SAPT in psi4, default
symmetry c1  #important for SAPT in psi4, default
}

set PROPERTIES_ORIGIN ["COM"]
properties('MP2/aug-cc-pvtz', properties = ['dipole'])
--------------------------------------------------------------------------

    Molecular point group: c1
  Charge       = 0
  Multiplicity = 1
  Basis Set: AUG-CC-PVTZ
    Blend: AUG-CC-PVTZ
  Basis Set: (AUG-CC-PVTZ AUX)
    Blend: AUG-CC-PVTZ-JKFIT

    Orbital Energies [Eh]
    ---------------------

    Doubly Occupied:

       1A    -20.579224     2A    -15.614412     3A    -11.281840
       4A    -11.274288     5A    -11.244095     6A    -11.223590
       7A     -1.383423     8A     -1.291523     9A     -1.032792
      10A     -0.978077    11A     -0.798796    12A     -0.782457
      13A     -0.740084    14A     -0.649988    15A     -0.613775
      16A     -0.594743    17A     -0.589123    18A     -0.554732
      19A     -0.531128    20A     -0.500470    21A     -0.339003
      22A     -0.289577

  @DF-RHF Final Energy:  -283.74369903248225

   => Energetics <=

    Nuclear Repulsion Energy =            220.9528635727388064
    One-Electron Energy =                -823.6188444493628822
    Two-Electron Energy =                 318.9222818441418212
    Total Energy =                       -283.7436990324822546
  Basis Set: (AUG-CC-PVTZ AUX)
    Blend: AUG-CC-PVTZ-RI
    Molecular point group: c1

    Geometry (in Angstrom), charge = 0, multiplicity = 1:

       Center              X                  Y                   Z               Mass
    ------------   -----------------  -----------------  -----------------  -----------------
         O           -2.075785599952    -0.115158657905    -0.043339505373    15.994914619570
         N            1.426516400048    -0.616421657905    -0.043382505373    14.003074004430
         C           -0.701516599952    -0.010986657905    -0.043332505373    12.000000000000
         C            0.140284400048    -1.109114657905    -0.043310505373    12.000000000000
         C            0.093109100048     1.161941442095     0.256628494627    12.000000000000
         C            1.417066400048     0.751799342095    -0.043400505373    12.000000000000
         H           -0.078371599952    -2.166209657905    -0.043294505373     1.007825032230
         H           -0.254775599952     2.187600342095    -0.043399505373     1.007825032230
         H            2.258882400048    -1.189066657905    -0.043328505373     1.007825032230
         H            2.334400400048     1.323267342095    -0.043441505373     1.007825032230
         H           -2.435335599952     0.787109342095    -0.043160505373     1.007825032230

  Basis Set: AUG-CC-PVTZ
    Blend: AUG-CC-PVTZ
  Basis Set: (AUG-CC-PVTZ AUX)
    Blend: AUG-CC-PVTZ-JKFIT
	 Reference Energy          =    -283.7436990324822546 [Eh]
	 Singles Energy            =      -0.0000000000000000 [Eh]
	 Same-Spin Energy          =      -0.3004601098846081 [Eh]
	 Opposite-Spin Energy      =      -0.9139970615236404 [Eh]
	 Correlation Energy        =      -1.2144571714082484 [Eh]
	 Total Energy              =    -284.9581562038904963 [Eh]

	 ================> DF-SCS-MP2 Energies <==================
	-----------------------------------------------------------
	 SCS Same-Spin Scale       =       0.3333333333333333 [-]
	 SCS Opposite-Spin Scale   =       1.2000000000000000 [-]
	 SCS Same-Spin Energy      =      -0.1001533699615360 [Eh]
	 SCS Opposite-Spin Energy  =      -1.0967964738283684 [Eh]
	 SCS Correlation Energy    =      -1.1969498437899044 [Eh]
	 SCS Total Energy          =    -284.9406488762721779 [Eh]
	-----------------------------------------------------------

  Dipole Moment: [D]
     X:     1.8819      Y:     0.1327      Z:    -0.3457     Total:     1.9180

*** Psi4 exiting successfully. Buy a developer a beer!
