                               Psi4 1.3.2 release

  ==> Input File <==

--------------------------------------------------------------------------
#psi4
#
memory 32 gb

molecule  {
0 1
  O       -2.0961900    -0.1258010     0.0000130
  N        1.4061120    -0.6270640    -0.0000300
  C       -0.7219210    -0.0216290     0.0000200
  C        0.1198800    -1.1197570     0.0000420
  C        0.0727050     1.1512910    -0.0000190
  C        1.3966620     0.7411570    -0.0000480
  H       -0.0987760    -2.1768520     0.0000580
  H       -0.2751732     2.1769658     0.2999530
  H        2.2384780    -1.1997090     0.0000240
  H        2.3139960     1.3126250    -0.0000890
  H       -2.4557400     0.7764670     0.0001920
units angstrom
no_reorient  #important for SAPT in psi4, default
symmetry c1  #important for SAPT in psi4, default
}

set PROPERTIES_ORIGIN ["COM"]
properties('MP2/aug-cc-pvtz', properties = ['dipole'])
--------------------------------------------------------------------------

    Molecular point group: c1
  Charge       = 0
  Multiplicity = 1
  Basis Set: AUG-CC-PVTZ
    Blend: AUG-CC-PVTZ
  Basis Set: (AUG-CC-PVTZ AUX)
    Blend: AUG-CC-PVTZ-JKFIT

    Orbital Energies [Eh]
    ---------------------

    Doubly Occupied:

       1A    -20.578582     2A    -15.610495     3A    -11.277088
       4A    -11.265290     5A    -11.243185     6A    -11.219329
       7A     -1.383024     8A     -1.290166     9A     -1.038105
      10A     -0.977832    11A     -0.798986    12A     -0.782278
      13A     -0.741242    14A     -0.652194    15A     -0.612299
      16A     -0.595518    17A     -0.586127    18A     -0.560440
      19A     -0.535145    20A     -0.510626    21A     -0.337720
      22A     -0.289826

  @DF-RHF Final Energy:  -283.76211946371257

   => Energetics <=

    Nuclear Repulsion Energy =            221.7729244542528022
    One-Electron Energy =                -825.2990904003553396
    Two-Electron Energy =                 319.7640464823899720
    Total Energy =                       -283.7621194637125654
  Basis Set: (AUG-CC-PVTZ AUX)
    Blend: AUG-CC-PVTZ-RI
    Molecular point group: c1

    Geometry (in Angstrom), charge = 0, multiplicity = 1:

       Center              X                  Y                   Z               Mass
    ------------   -----------------  -----------------  -----------------  -----------------
         O           -2.075785725838    -0.115157582013    -0.003626510303    15.994914619570
         N            1.426516274162    -0.616420582013    -0.003669510303    14.003074004430
         C           -0.701516725838    -0.010985582013    -0.003619510303    12.000000000000
         C            0.140284274162    -1.109113582013    -0.003597510303    12.000000000000
         C            0.093109274162     1.161934417987    -0.003658510303    12.000000000000
         C            1.417066274162     0.751800417987    -0.003687510303    12.000000000000
         H           -0.078371725838    -2.166208582013    -0.003581510303     1.007825032230
         H           -0.254768925838     2.187609217987     0.296313489697     1.007825032230
         H            2.258882274162    -1.189065582013    -0.003615510303     1.007825032230
         H            2.334400274162     1.323268417987    -0.003728510303     1.007825032230
         H           -2.435335725838     0.787110417987    -0.003447510303     1.007825032230

  Basis Set: AUG-CC-PVTZ
    Blend: AUG-CC-PVTZ
  Basis Set: (AUG-CC-PVTZ AUX)
    Blend: AUG-CC-PVTZ-JKFIT
	 Reference Energy          =    -283.7621194637125654 [Eh]
	 Singles Energy            =      -0.0000000000000000 [Eh]
	 Same-Spin Energy          =      -0.2996536173662732 [Eh]
	 Opposite-Spin Energy      =      -0.9111861113800350 [Eh]
	 Correlation Energy        =      -1.2108397287463082 [Eh]
	 Total Energy              =    -284.9729591924588590 [Eh]

	 ================> DF-SCS-MP2 Energies <==================
	-----------------------------------------------------------
	 SCS Same-Spin Scale       =       0.3333333333333333 [-]
	 SCS Opposite-Spin Scale   =       1.2000000000000000 [-]
	 SCS Same-Spin Energy      =      -0.0998845391220911 [Eh]
	 SCS Opposite-Spin Energy  =      -1.0934233336560419 [Eh]
	 SCS Correlation Energy    =      -1.1933078727781330 [Eh]
	 SCS Total Energy          =    -284.9554273364906862 [Eh]
	-----------------------------------------------------------

  Dipole Moment: [D]
     X:     1.8499      Y:     0.2935      Z:     0.2580     Total:     1.8907

*** Psi4 exiting successfully. Buy a developer a beer!
