                               Psi4 1.3.2 release

  ==> Input File <==

--------------------------------------------------------------------------
#psi4
#
memory 32 gb

molecule  {
0 1
  O       -2.0961900    -0.1258010     0.0000130
  N        1.4061120    -0.6270640    -0.0000300
  C       -0.7219210    -0.0216290     0.0000200
  C        0.1198800    -1.1197570     0.0000420
  C        0.0727050     1.1512910    -0.0000190
  C        1.3966620     0.7411570    -0.0000480
  H       -0.0987744    -2.1768507     0.0500580
  H       -0.2751800     2.1769580    -0.0000470
  H        2.2384780    -1.1997090     0.0000240
  H        2.3139960     1.3126250    -0.0000890
  H       -2.4557400     0.7764670     0.0001920
units angstrom
no_reorient  #important for SAPT in psi4, default
symmetry c1  #important for SAPT in psi4, default
}

set PROPERTIES_ORIGIN ["COM"]
properties('MP2/aug-cc-pvtz', properties = ['dipole'])
--------------------------------------------------------------------------

    Molecular point group: c1
  Charge       = 0
  Multiplicity = 1
  Basis Set: AUG-CC-PVTZ
    Blend: AUG-CC-PVTZ
  Basis Set: (AUG-CC-PVTZ AUX)
    Blend: AUG-CC-PVTZ-JKFIT

    Orbital Energies [Eh]
    ---------------------

    Doubly Occupied:

       1A    -20.578453     2A    -15.609282     3A    -11.276512
       4A    -11.263757     5A    -11.242804     6A    -11.216080
       7A     -1.382912     8A     -1.289145     9A     -1.038303
      10A     -0.977398    11A     -0.801565    12A     -0.781865
      13A     -0.742686    14A     -0.652522    15A     -0.612185
      16A     -0.593162    17A     -0.586938    18A     -0.569013
      19A     -0.534910    20A     -0.511288    21A     -0.337742
      22A     -0.289261

  @DF-RHF Final Energy:  -283.76726180113593

   => Energetics <=

    Nuclear Repulsion Energy =            221.9196866502221894
    One-Electron Energy =                -825.5983302571090690
    Two-Electron Energy =                 319.9113818057509775
    Total Energy =                       -283.7672618011359305
  Basis Set: (AUG-CC-PVTZ AUX)
    Blend: AUG-CC-PVTZ-RI
    Molecular point group: c1

    Geometry (in Angstrom), charge = 0, multiplicity = 1:

       Center              X                  Y                   Z               Mass
    ------------   -----------------  -----------------  -----------------  -----------------
         O           -2.075785662725    -0.115157503122    -0.000592249518    15.994914619570
         N            1.426516337275    -0.616420503122    -0.000635249518    14.003074004430
         C           -0.701516662725    -0.010985503122    -0.000585249518    12.000000000000
         C            0.140284337275    -1.109113503122    -0.000563249518    12.000000000000
         C            0.093109337275     1.161934496878    -0.000624249518    12.000000000000
         C            1.417066337275     0.751800496878    -0.000653249518    12.000000000000
         H           -0.078370062725    -2.166207203122     0.049452750482     1.007825032230
         H           -0.254775662725     2.187601496878    -0.000652249518     1.007825032230
         H            2.258882337275    -1.189065503122    -0.000581249518     1.007825032230
         H            2.334400337275     1.323268496878    -0.000694249518     1.007825032230
         H           -2.435335662725     0.787110496878    -0.000413249518     1.007825032230

  Basis Set: AUG-CC-PVTZ
    Blend: AUG-CC-PVTZ
  Basis Set: (AUG-CC-PVTZ AUX)
    Blend: AUG-CC-PVTZ-JKFIT
	 Reference Energy          =    -283.7672618011359305 [Eh]
	 Singles Energy            =      -0.0000000000000000 [Eh]
	 Same-Spin Energy          =      -0.2994164966367977 [Eh]
	 Opposite-Spin Energy      =      -0.9106193487123473 [Eh]
	 Correlation Energy        =      -1.2100358453491449 [Eh]
	 Total Energy              =    -284.9772976464850558 [Eh]

	 ================> DF-SCS-MP2 Energies <==================
	-----------------------------------------------------------
	 SCS Same-Spin Scale       =       0.3333333333333333 [-]
	 SCS Opposite-Spin Scale   =       1.2000000000000000 [-]
	 SCS Same-Spin Energy      =      -0.0998054988789326 [Eh]
	 SCS Opposite-Spin Energy  =      -1.0927432184548167 [Eh]
	 SCS Correlation Energy    =      -1.1925487173337492 [Eh]
	 SCS Total Energy          =    -284.9598105184696806 [Eh]
	-----------------------------------------------------------

  Dipole Moment: [D]
     X:     1.8171      Y:     0.3778      Z:     0.0505     Total:     1.8566

*** Psi4 exiting successfully. Buy a developer a beer!
