                               Psi4 1.3.2 release

  ==> Input File <==

--------------------------------------------------------------------------
#psi4
#
memory 32 gb

molecule  {
0 1
  O       -2.0961900    -0.1258010     0.0000130
  N        1.4061120    -0.6270640    -0.0000300
  C       -0.7219210    -0.0216290     0.0000200
  C        0.1198800    -1.1197570     0.0000420
  C        0.0727050     1.1512910    -0.0000190
  C        1.3966620     0.7411570    -0.0000480
  H       -0.0987760    -2.1768520     0.0000580
  H       -0.2751789     2.1769593     0.0499530
  H        2.2384780    -1.1997090     0.0000240
  H        2.3139960     1.3126250    -0.0000890
  H       -2.4557400     0.7764670     0.0001920
units angstrom
no_reorient  #important for SAPT in psi4, default
symmetry c1  #important for SAPT in psi4, default
}

set PROPERTIES_ORIGIN ["COM"]
properties('MP2/aug-cc-pvtz', properties = ['dipole'])
--------------------------------------------------------------------------

    Molecular point group: c1
  Charge       = 0
  Multiplicity = 1
  Basis Set: AUG-CC-PVTZ
    Blend: AUG-CC-PVTZ
  Basis Set: (AUG-CC-PVTZ AUX)
    Blend: AUG-CC-PVTZ-JKFIT

    Orbital Energies [Eh]
    ---------------------

    Doubly Occupied:

       1A    -20.578427     2A    -15.609318     3A    -11.276482
       4A    -11.263754     5A    -11.242747     6A    -11.216154
       7A     -1.382890     8A     -1.289166     9A     -1.038275
      10A     -0.977443    11A     -0.801471    12A     -0.781880
      13A     -0.742800    14A     -0.652511    15A     -0.612175
      16A     -0.592965    17A     -0.587274    18A     -0.568847
      19A     -0.534916    20A     -0.511292    21A     -0.337727
      22A     -0.289257

  @DF-RHF Final Energy:  -283.76724734819862

   => Energetics <=

    Nuclear Repulsion Energy =            221.9197825881293227
    One-Electron Energy =                -825.5985188180056866
    Two-Electron Energy =                 319.9114888816777125
    Total Energy =                       -283.7672473481986231
  Basis Set: (AUG-CC-PVTZ AUX)
    Blend: AUG-CC-PVTZ-RI
    Molecular point group: c1

    Geometry (in Angstrom), charge = 0, multiplicity = 1:

       Center              X                  Y                   Z               Mass
    ------------   -----------------  -----------------  -----------------  -----------------
         O           -2.075785656657    -0.115157503122    -0.000592249518    15.994914619570
         N            1.426516343343    -0.616420503122    -0.000635249518    14.003074004430
         C           -0.701516656657    -0.010985503122    -0.000585249518    12.000000000000
         C            0.140284343343    -1.109113503122    -0.000563249518    12.000000000000
         C            0.093109343343     1.161934496878    -0.000624249518    12.000000000000
         C            1.417066343343     0.751800496878    -0.000653249518    12.000000000000
         H           -0.078371656657    -2.166208503122    -0.000547249518     1.007825032230
         H           -0.254774556657     2.187602796878     0.049347750482     1.007825032230
         H            2.258882343343    -1.189065503122    -0.000581249518     1.007825032230
         H            2.334400343343     1.323268496878    -0.000694249518     1.007825032230
         H           -2.435335656657     0.787110496878    -0.000413249518     1.007825032230

  Basis Set: AUG-CC-PVTZ
    Blend: AUG-CC-PVTZ
  Basis Set: (AUG-CC-PVTZ AUX)
    Blend: AUG-CC-PVTZ-JKFIT
	 Reference Energy          =    -283.7672473481986231 [Eh]
	 Singles Energy            =      -0.0000000000000000 [Eh]
	 Same-Spin Energy          =      -0.2994153141554110 [Eh]
	 Opposite-Spin Energy      =      -0.9106164688193623 [Eh]
	 Correlation Energy        =      -1.2100317829747733 [Eh]
	 Total Energy              =    -284.9772791311734181 [Eh]

	 ================> DF-SCS-MP2 Energies <==================
	-----------------------------------------------------------
	 SCS Same-Spin Scale       =       0.3333333333333333 [-]
	 SCS Opposite-Spin Scale   =       1.2000000000000000 [-]
	 SCS Same-Spin Energy      =      -0.0998051047184703 [Eh]
	 SCS Opposite-Spin Energy  =      -1.0927397625832347 [Eh]
	 SCS Correlation Energy    =      -1.1925448673017049 [Eh]
	 SCS Total Energy          =    -284.9597922155003289 [Eh]
	-----------------------------------------------------------

  Dipole Moment: [D]
     X:     1.8179      Y:     0.3727      Z:     0.0445     Total:     1.8562

*** Psi4 exiting successfully. Buy a developer a beer!
