                               Psi4 1.3.2 release

  ==> Input File <==

--------------------------------------------------------------------------
#psi4
#
memory 32 gb

molecule  {
0 1
  O       -2.0961900    -0.1258010     0.0000130
  N        1.4061120    -0.6270640    -0.0000300
  C       -0.7219210    -0.0216290     0.0000200
  C        0.1198800    -1.1197570     0.0000420
  C        0.0727050     1.1512910    -0.0000190
  C        1.3966620     0.7411570    -0.0000480
  H       -0.0987682    -2.1768453     0.2500580
  H       -0.2751800     2.1769580    -0.0000470
  H        2.2384780    -1.1997090     0.0000240
  H        2.3139960     1.3126250    -0.0000890
  H       -2.4557400     0.7764670     0.0001920
units angstrom
no_reorient  #important for SAPT in psi4, default
symmetry c1  #important for SAPT in psi4, default
}

set PROPERTIES_ORIGIN ["COM"]
properties('MP2/aug-cc-pvtz', properties = ['dipole'])
--------------------------------------------------------------------------

    Molecular point group: c1
  Charge       = 0
  Multiplicity = 1
  Basis Set: AUG-CC-PVTZ
    Blend: AUG-CC-PVTZ
  Basis Set: (AUG-CC-PVTZ AUX)
    Blend: AUG-CC-PVTZ-JKFIT

    Orbital Energies [Eh]
    ---------------------

    Doubly Occupied:

       1A    -20.579159     2A    -15.609250     3A    -11.277597
       4A    -11.264883     5A    -11.244444     6A    -11.216548
       7A     -1.383526     8A     -1.289370     9A     -1.038807
      10A     -0.976637    11A     -0.801856    12A     -0.781849
      13A     -0.739053    14A     -0.652539    15A     -0.612460
      16A     -0.596610    17A     -0.581723    18A     -0.566586
      19A     -0.534903    20A     -0.510704    21A     -0.338083
      22A     -0.289749

  @DF-RHF Final Energy:  -283.76420176911643

   => Energetics <=

    Nuclear Repulsion Energy =            221.8154449722094341
    One-Electron Energy =                -825.3866264467968676
    Two-Electron Energy =                 319.8069797054710079
    Total Energy =                       -283.7642017691164256
  Basis Set: (AUG-CC-PVTZ AUX)
    Blend: AUG-CC-PVTZ-RI
    Molecular point group: c1

    Geometry (in Angstrom), charge = 0, multiplicity = 1:

       Center              X                  Y                   Z               Mass
    ------------   -----------------  -----------------  -----------------  -----------------
         O           -2.075785737975    -0.115157568662    -0.003019658146    15.994914619570
         N            1.426516262025    -0.616420568662    -0.003062658146    14.003074004430
         C           -0.701516737975    -0.010985568662    -0.003012658146    12.000000000000
         C            0.140284262025    -1.109113568662    -0.002990658146    12.000000000000
         C            0.093109262025     1.161934431338    -0.003051658146    12.000000000000
         C            1.417066262025     0.751800431338    -0.003080658146    12.000000000000
         H           -0.078363937975    -2.166201868662     0.247025341854     1.007825032230
         H           -0.254775737975     2.187601431338    -0.003079658146     1.007825032230
         H            2.258882262025    -1.189065568662    -0.003008658146     1.007825032230
         H            2.334400262025     1.323268431338    -0.003121658146     1.007825032230
         H           -2.435335737975     0.787110431338    -0.002840658146     1.007825032230

  Basis Set: AUG-CC-PVTZ
    Blend: AUG-CC-PVTZ
  Basis Set: (AUG-CC-PVTZ AUX)
    Blend: AUG-CC-PVTZ-JKFIT
	 Reference Energy          =    -283.7642017691164256 [Eh]
	 Singles Energy            =      -0.0000000000000000 [Eh]
	 Same-Spin Energy          =      -0.2996069310838714 [Eh]
	 Opposite-Spin Energy      =      -0.9110649855705755 [Eh]
	 Correlation Energy        =      -1.2106719166544468 [Eh]
	 Total Energy              =    -284.9748736857708877 [Eh]

	 ================> DF-SCS-MP2 Energies <==================
	-----------------------------------------------------------
	 SCS Same-Spin Scale       =       0.3333333333333333 [-]
	 SCS Opposite-Spin Scale   =       1.2000000000000000 [-]
	 SCS Same-Spin Energy      =      -0.0998689770279571 [Eh]
	 SCS Opposite-Spin Energy  =      -1.0932779826846906 [Eh]
	 SCS Correlation Energy    =      -1.1931469597126476 [Eh]
	 SCS Total Energy          =    -284.9573487288290607 [Eh]
	-----------------------------------------------------------

  Dipole Moment: [D]
     X:     1.8201      Y:     0.4429      Z:     0.2456     Total:     1.8893

*** Psi4 exiting successfully. Buy a developer a beer!
