                               Psi4 1.3.2 release

  ==> Input File <==

--------------------------------------------------------------------------
#psi4
#
memory 32 gb

molecule  {
0 1
  O       -2.0961900    -0.1258010     0.0000130
  N        1.4061120    -0.6270640    -0.0000300
  C       -0.7219210    -0.0216290     0.0000200
  C        0.1198800    -1.1197570     0.0000420
  C        0.0727050     1.1512910    -0.0000190
  C        1.3966620     0.7411570    -0.0000480
  H       -0.0987667    -2.1768440     0.3000580
  H       -0.2751800     2.1769580    -0.0000470
  H        2.2384780    -1.1997090     0.0000240
  H        2.3139960     1.3126250    -0.0000890
  H       -2.4557400     0.7764670     0.0001920
units angstrom
no_reorient  #important for SAPT in psi4, default
symmetry c1  #important for SAPT in psi4, default
}

set PROPERTIES_ORIGIN ["COM"]
properties('MP2/aug-cc-pvtz', properties = ['dipole'])
--------------------------------------------------------------------------

    Molecular point group: c1
  Charge       = 0
  Multiplicity = 1
  Basis Set: AUG-CC-PVTZ
    Blend: AUG-CC-PVTZ
  Basis Set: (AUG-CC-PVTZ AUX)
    Blend: AUG-CC-PVTZ-JKFIT

    Orbital Energies [Eh]
    ---------------------

    Doubly Occupied:

       1A    -20.579468     2A    -15.609249     3A    -11.278081
       4A    -11.265381     5A    -11.245182     6A    -11.216759
       7A     -1.383795     8A     -1.289476     9A     -1.039035
      10A     -0.976332    11A     -0.801994    12A     -0.781875
      13A     -0.737544    14A     -0.652555    15A     -0.612589
      16A     -0.597374    17A     -0.580560    18A     -0.565131
      19A     -0.534885    20A     -0.510357    21A     -0.338237
      22A     -0.289971

  @DF-RHF Final Energy:  -283.76257896770096

   => Energetics <=

    Nuclear Repulsion Energy =            221.7695785152833707
    One-Electron Energy =                -825.2926501581558796
    Two-Electron Energy =                 319.7604926751715766
    Total Energy =                       -283.7625789677009607
  Basis Set: (AUG-CC-PVTZ AUX)
    Blend: AUG-CC-PVTZ-RI
    Molecular point group: c1

    Geometry (in Angstrom), charge = 0, multiplicity = 1:

       Center              X                  Y                   Z               Mass
    ------------   -----------------  -----------------  -----------------  -----------------
         O           -2.075785756181    -0.115157584440    -0.003626510303    15.994914619570
         N            1.426516243819    -0.616420584440    -0.003669510303    14.003074004430
         C           -0.701516756181    -0.010985584440    -0.003619510303    12.000000000000
         C            0.140284243819    -1.109113584440    -0.003597510303    12.000000000000
         C            0.093109243819     1.161934415560    -0.003658510303    12.000000000000
         C            1.417066243819     0.751800415560    -0.003687510303    12.000000000000
         H           -0.078362456181    -2.166200584440     0.296418489697     1.007825032230
         H           -0.254775756181     2.187601415560    -0.003686510303     1.007825032230
         H            2.258882243819    -1.189065584440    -0.003615510303     1.007825032230
         H            2.334400243819     1.323268415560    -0.003728510303     1.007825032230
         H           -2.435335756181     0.787110415560    -0.003447510303     1.007825032230

  Basis Set: AUG-CC-PVTZ
    Blend: AUG-CC-PVTZ
  Basis Set: (AUG-CC-PVTZ AUX)
    Blend: AUG-CC-PVTZ-JKFIT
	 Reference Energy          =    -283.7625789677009607 [Eh]
	 Singles Energy            =      -0.0000000000000000 [Eh]
	 Same-Spin Energy          =      -0.2996907515260512 [Eh]
	 Opposite-Spin Energy      =      -0.9112793335589460 [Eh]
	 Correlation Energy        =      -1.2109700850849971 [Eh]
	 Total Energy              =    -284.9735490527859838 [Eh]

	 ================> DF-SCS-MP2 Energies <==================
	-----------------------------------------------------------
	 SCS Same-Spin Scale       =       0.3333333333333333 [-]
	 SCS Opposite-Spin Scale   =       1.2000000000000000 [-]
	 SCS Same-Spin Energy      =      -0.0998969171753504 [Eh]
	 SCS Opposite-Spin Energy  =      -1.0935352002707350 [Eh]
	 SCS Correlation Energy    =      -1.1934321174460853 [Eh]
	 SCS Total Energy          =    -284.9560110851470540 [Eh]
	-----------------------------------------------------------

  Dipole Moment: [D]
     X:     1.8217      Y:     0.4716      Z:     0.2917     Total:     1.9042

*** Psi4 exiting successfully. Buy a developer a beer!
