                               Psi4 1.3.2 release

  ==> Input File <==

--------------------------------------------------------------------------
#psi4
#
memory 32 gb

molecule  {
0 1
  O       -2.0961900    -0.1258010     0.0000130
  N        1.4061120    -0.6270640    -0.0000300
  C       -0.7219210    -0.0216290     0.0000200
  C        0.1198800    -1.1197570     0.0000420
  C        0.0727050     1.1512910    -0.0000190
  C        1.3966620     0.7411570    -0.0000480
  H       -0.0987760    -2.1768520     0.0000580
  H       -0.2751800     2.1769580    -0.0000470
  H        2.2384780    -1.1997090     0.0000240
  H        2.3139960     1.3126250    -0.0000890
  H       -2.4557400     0.7764670     0.0001920
units angstrom
no_reorient  #important for SAPT in psi4, default
symmetry c1  #important for SAPT in psi4, default
}

set PROPERTIES_ORIGIN ["COM"]
properties('MP2/aug-cc-pvtz', properties = ['dipole'])
--------------------------------------------------------------------------

    Molecular point group: c1
  Charge       = 0
  Multiplicity = 1
  Basis Set: AUG-CC-PVTZ
    Blend: AUG-CC-PVTZ
  Basis Set: (AUG-CC-PVTZ AUX)
    Blend: AUG-CC-PVTZ-JKFIT

    Orbital Energies [Eh]
    ---------------------

    Doubly Occupied:

       1A    -20.578422     2A    -15.609284     3A    -11.276465
       4A    -11.263709     5A    -11.242735     6A    -11.216061
       7A     -1.382886     8A     -1.289136     9A     -1.038282
      10A     -0.977433    11A     -0.801554    12A     -0.781869
      13A     -0.742848    14A     -0.652522    15A     -0.612174
      16A     -0.592831    17A     -0.587372    18A     -0.569089
      19A     -0.534909    20A     -0.511307    21A     -0.337728
      22A     -0.289240

  @DF-RHF Final Energy:  -283.76737291511068

   => Energetics <=

    Nuclear Repulsion Energy =            221.9241599606486375
    One-Electron Energy =                -825.6073551535702109
    Two-Electron Energy =                 319.9158222778109462
    Total Energy =                       -283.7673729151106841
  Basis Set: (AUG-CC-PVTZ AUX)
    Blend: AUG-CC-PVTZ-RI
    Molecular point group: c1

    Geometry (in Angstrom), charge = 0, multiplicity = 1:

       Center              X                  Y                   Z               Mass
    ------------   -----------------  -----------------  -----------------  -----------------
         O           -2.075785643306    -0.115157487344     0.000014602639    15.994914619570
         N            1.426516356694    -0.616420487344    -0.000028397361    14.003074004430
         C           -0.701516643306    -0.010985487344     0.000021602639    12.000000000000
         C            0.140284356694    -1.109113487344     0.000043602639    12.000000000000
         C            0.093109356694     1.161934512656    -0.000017397361    12.000000000000
         C            1.417066356694     0.751800512656    -0.000046397361    12.000000000000
         H           -0.078371643306    -2.166208487344     0.000059602639     1.007825032230
         H           -0.254775643306     2.187601512656    -0.000045397361     1.007825032230
         H            2.258882356694    -1.189065487344     0.000025602639     1.007825032230
         H            2.334400356694     1.323268512656    -0.000087397361     1.007825032230
         H           -2.435335643306     0.787110512656     0.000193602639     1.007825032230

  Basis Set: AUG-CC-PVTZ
    Blend: AUG-CC-PVTZ
  Basis Set: (AUG-CC-PVTZ AUX)
    Blend: AUG-CC-PVTZ-JKFIT
	 Reference Energy          =    -283.7673729151106841 [Eh]
	 Singles Energy            =      -0.0000000000000000 [Eh]
	 Same-Spin Energy          =      -0.2994083320225944 [Eh]
	 Opposite-Spin Energy      =      -0.9106021523979863 [Eh]
	 Correlation Energy        =      -1.2100104844205806 [Eh]
	 Total Energy              =    -284.9773833995312771 [Eh]

	 ================> DF-SCS-MP2 Energies <==================
	-----------------------------------------------------------
	 SCS Same-Spin Scale       =       0.3333333333333333 [-]
	 SCS Opposite-Spin Scale   =       1.2000000000000000 [-]
	 SCS Same-Spin Energy      =      -0.0998027773408648 [Eh]
	 SCS Opposite-Spin Energy  =      -1.0927225828775835 [Eh]
	 SCS Correlation Energy    =      -1.1925253602184482 [Eh]
	 SCS Total Energy          =    -284.9598982753291239 [Eh]
	-----------------------------------------------------------

  Dipole Moment: [D]
     X:     1.8170      Y:     0.3750      Z:     0.0003     Total:     1.8553

*** Psi4 exiting successfully. Buy a developer a beer!
