                               Psi4 1.3.2 release

  ==> Input File <==

--------------------------------------------------------------------------
#psi4
#
memory 32 gb

molecule  {
0 1
  O       -2.0961900    -0.1258010     0.0000130
  N        1.4061120    -0.6270640    -0.0000300
  C       -0.7219210    -0.0216290     0.0000200
  C        0.1198800    -1.1197570     0.0000420
  C        0.0727050     1.1512910    -0.0000190
  C        1.3966620     0.7411570    -0.0000480
  H       -0.0987698    -2.1768467     0.2000580
  H       -0.2751800     2.1769580    -0.0000470
  H        2.2384780    -1.1997090     0.0000240
  H        2.3139960     1.3126250    -0.0000890
  H       -2.4557400     0.7764670     0.0001920
units angstrom
no_reorient  #important for SAPT in psi4, default
symmetry c1  #important for SAPT in psi4, default
}

set PROPERTIES_ORIGIN ["COM"]
properties('MP2/aug-cc-pvtz', properties = ['dipole'])
--------------------------------------------------------------------------

    Molecular point group: c1
  Charge       = 0
  Multiplicity = 1
  Basis Set: AUG-CC-PVTZ
    Blend: AUG-CC-PVTZ
  Basis Set: (AUG-CC-PVTZ AUX)
    Blend: AUG-CC-PVTZ-JKFIT

    Orbital Energies [Eh]
    ---------------------

    Doubly Occupied:

       1A    -20.578899     2A    -15.609257     3A    -11.277195
       4A    -11.264467     5A    -11.243833     6A    -11.216373
       7A     -1.383300     8A     -1.289284     9A     -1.038619
      10A     -0.976906    11A     -0.801745    12A     -0.781842
      13A     -0.740359    14A     -0.652530    15A     -0.612355
      16A     -0.595761    17A     -0.583079    18A     -0.567630
      19A     -0.534911    20A     -0.510950    21A     -0.337955
      22A     -0.289567

  @DF-RHF Final Energy:  -283.76543240461672

   => Energetics <=

    Nuclear Repulsion Energy =            221.8538439839315117
    One-Electron Energy =                -825.4649175835093047
    Two-Electron Energy =                 319.8456411949611038
    Total Energy =                       -283.7654324046167176
  Basis Set: (AUG-CC-PVTZ AUX)
    Blend: AUG-CC-PVTZ-RI
    Molecular point group: c1

    Geometry (in Angstrom), charge = 0, multiplicity = 1:

       Center              X                  Y                   Z               Mass
    ------------   -----------------  -----------------  -----------------  -----------------
         O           -2.075785718556    -0.115157551670    -0.002412805989    15.994914619570
         N            1.426516281444    -0.616420551670    -0.002455805989    14.003074004430
         C           -0.701516718556    -0.010985551670    -0.002405805989    12.000000000000
         C            0.140284281444    -1.109113551670    -0.002383805989    12.000000000000
         C            0.093109281444     1.161934448330    -0.002444805989    12.000000000000
         C            1.417066281444     0.751800448330    -0.002473805989    12.000000000000
         H           -0.078365518556    -2.166203251670     0.197632194011     1.007825032230
         H           -0.254775718556     2.187601448330    -0.002472805989     1.007825032230
         H            2.258882281444    -1.189065551670    -0.002401805989     1.007825032230
         H            2.334400281444     1.323268448330    -0.002514805989     1.007825032230
         H           -2.435335718556     0.787110448330    -0.002233805989     1.007825032230

  Basis Set: AUG-CC-PVTZ
    Blend: AUG-CC-PVTZ
  Basis Set: (AUG-CC-PVTZ AUX)
    Blend: AUG-CC-PVTZ-JKFIT
	 Reference Energy          =    -283.7654324046167176 [Eh]
	 Singles Energy            =      -0.0000000000000000 [Eh]
	 Same-Spin Energy          =      -0.2995367553537206 [Eh]
	 Opposite-Spin Energy      =      -0.9108928731624177 [Eh]
	 Correlation Energy        =      -1.2104296285161382 [Eh]
	 Total Energy              =    -284.9758620331328416 [Eh]

	 ================> DF-SCS-MP2 Energies <==================
	-----------------------------------------------------------
	 SCS Same-Spin Scale       =       0.3333333333333333 [-]
	 SCS Opposite-Spin Scale   =       1.2000000000000000 [-]
	 SCS Same-Spin Energy      =      -0.0998455851179069 [Eh]
	 SCS Opposite-Spin Energy  =      -1.0930714477949013 [Eh]
	 SCS Correlation Energy    =      -1.1929170329128080 [Eh]
	 SCS Total Energy          =    -284.9583494375295345 [Eh]
	-----------------------------------------------------------

  Dipole Moment: [D]
     X:     1.8189      Y:     0.4190      Z:     0.1982     Total:     1.8770

*** Psi4 exiting successfully. Buy a developer a beer!
