                               Psi4 1.3.2 release

  ==> Input File <==

--------------------------------------------------------------------------
#psi4
#
memory 32 gb

molecule  {
0 1
  O       -2.0961900    -0.1258010     0.0000130
  N        1.4061120    -0.6270640    -0.0000300
  C       -0.7219210    -0.0216290     0.0000200
  C        0.1198800    -1.1197570     0.0000420
  C        0.0727050     1.1512910    -0.0000190
  C        1.3966620     0.7411570    -0.0000480
  H       -0.0987713    -2.1768480     0.1500580
  H       -0.2751800     2.1769580    -0.0000470
  H        2.2384780    -1.1997090     0.0000240
  H        2.3139960     1.3126250    -0.0000890
  H       -2.4557400     0.7764670     0.0001920
units angstrom
no_reorient  #important for SAPT in psi4, default
symmetry c1  #important for SAPT in psi4, default
}

set PROPERTIES_ORIGIN ["COM"]
properties('MP2/aug-cc-pvtz', properties = ['dipole'])
--------------------------------------------------------------------------

    Molecular point group: c1
  Charge       = 0
  Multiplicity = 1
  Basis Set: AUG-CC-PVTZ
    Blend: AUG-CC-PVTZ
  Basis Set: (AUG-CC-PVTZ AUX)
    Blend: AUG-CC-PVTZ-JKFIT

    Orbital Energies [Eh]
    ---------------------

    Doubly Occupied:

       1A    -20.578693     2A    -15.609266     3A    -11.276878
       4A    -11.264138     5A    -11.243354     6A    -11.216237
       7A     -1.383121     8A     -1.289219     9A     -1.038472
      10A     -0.977128    11A     -0.801660    12A     -0.781847
      13A     -0.741422    14A     -0.652525    15A     -0.612275
      16A     -0.594850    17A     -0.584512    18A     -0.568333
      19A     -0.534912    20A     -0.511118    21A     -0.337856
      22A     -0.289424

  @DF-RHF Final Energy:  -283.76632270313888

   => Energetics <=

    Nuclear Repulsion Energy =            221.8842768478608036
    One-Electron Energy =                -825.5267139436847401
    Two-Electron Energy =                 319.8761143926849968
    Total Energy =                       -283.7663227031388828
  Basis Set: (AUG-CC-PVTZ AUX)
    Blend: AUG-CC-PVTZ-RI
    Molecular point group: c1

    Geometry (in Angstrom), charge = 0, multiplicity = 1:

       Center              X                  Y                   Z               Mass
    ------------   -----------------  -----------------  -----------------  -----------------
         O           -2.075785700350    -0.115157535892    -0.001805953832    15.994914619570
         N            1.426516299650    -0.616420535892    -0.001848953832    14.003074004430
         C           -0.701516700350    -0.010985535892    -0.001798953832    12.000000000000
         C            0.140284299650    -1.109113535892    -0.001776953832    12.000000000000
         C            0.093109299650     1.161934464108    -0.001837953832    12.000000000000
         C            1.417066299650     0.751800464108    -0.001866953832    12.000000000000
         H           -0.078367000350    -2.166204535892     0.148239046168     1.007825032230
         H           -0.254775700350     2.187601464108    -0.001865953832     1.007825032230
         H            2.258882299650    -1.189065535892    -0.001794953832     1.007825032230
         H            2.334400299650     1.323268464108    -0.001907953832     1.007825032230
         H           -2.435335700350     0.787110464108    -0.001626953832     1.007825032230

  Basis Set: AUG-CC-PVTZ
    Blend: AUG-CC-PVTZ
  Basis Set: (AUG-CC-PVTZ AUX)
    Blend: AUG-CC-PVTZ-JKFIT
	 Reference Energy          =    -283.7663227031388828 [Eh]
	 Singles Energy            =      -0.0000000000000000 [Eh]
	 Same-Spin Energy          =      -0.2994811544626695 [Eh]
	 Opposite-Spin Energy      =      -0.9107623792090809 [Eh]
	 Correlation Energy        =      -1.2102435336717505 [Eh]
	 Total Energy              =    -284.9765662368106405 [Eh]

	 ================> DF-SCS-MP2 Energies <==================
	-----------------------------------------------------------
	 SCS Same-Spin Scale       =       0.3333333333333333 [-]
	 SCS Opposite-Spin Scale   =       1.2000000000000000 [-]
	 SCS Same-Spin Energy      =      -0.0998270514875565 [Eh]
	 SCS Opposite-Spin Energy  =      -1.0929148550508969 [Eh]
	 SCS Correlation Energy    =      -1.1927419065384535 [Eh]
	 SCS Total Energy          =    -284.9590646096773412 [Eh]
	-----------------------------------------------------------

  Dipole Moment: [D]
     X:     1.8180      Y:     0.3999      Z:     0.1497     Total:     1.8675

*** Psi4 exiting successfully. Buy a developer a beer!
