                               Psi4 1.3.2 release

  ==> Input File <==

--------------------------------------------------------------------------
#psi4
#
memory 32 gb

molecule  {
0 1
  O       -2.0961900    -0.1258010     0.0000130
  N        1.4061120    -0.6270640    -0.0000300
  C       -0.7219210    -0.0216290     0.0000200
  C        0.1198800    -1.1197570     0.0000420
  C        0.0727048     1.1512950     0.1499810
  C        1.3966620     0.7411570    -0.0000480
  H       -0.0987760    -2.1768520     0.0000580
  H       -0.2751800     2.1769580    -0.0000470
  H        2.2384780    -1.1997090     0.0000240
  H        2.3139960     1.3126250    -0.0000890
  H       -2.4557400     0.7764670     0.0001920
units angstrom
no_reorient  #important for SAPT in psi4, default
symmetry c1  #important for SAPT in psi4, default
}

set PROPERTIES_ORIGIN ["COM"]
properties('MP2/aug-cc-pvtz', properties = ['dipole'])
--------------------------------------------------------------------------

    Molecular point group: c1
  Charge       = 0
  Multiplicity = 1
  Basis Set: AUG-CC-PVTZ
    Blend: AUG-CC-PVTZ
  Basis Set: (AUG-CC-PVTZ AUX)
    Blend: AUG-CC-PVTZ-JKFIT

    Orbital Energies [Eh]
    ---------------------

    Doubly Occupied:

       1A    -20.578621     2A    -15.610559     3A    -11.277880
       4A    -11.266444     5A    -11.243050     6A    -11.217977
       7A     -1.383022     8A     -1.289714     9A     -1.036895
      10A     -0.977595    11A     -0.800748    12A     -0.782002
      13A     -0.741984    14A     -0.651872    15A     -0.612592
      16A     -0.593637    17A     -0.587633    18A     -0.564665
      19A     -0.534649    20A     -0.508504    21A     -0.337971
      22A     -0.289298

  @DF-RHF Final Energy:  -283.76157281465640

   => Energetics <=

    Nuclear Repulsion Energy =            221.6757461393449091
    One-Electron Energy =                -825.1000170424003954
    Two-Electron Energy =                 319.6626980883990541
    Total Energy =                       -283.7615728146564038
  Basis Set: (AUG-CC-PVTZ AUX)
    Blend: AUG-CC-PVTZ-RI
    Molecular point group: c1

    Geometry (in Angstrom), charge = 0, multiplicity = 1:

       Center              X                  Y                   Z               Mass
    ------------   -----------------  -----------------  -----------------  -----------------
         O           -2.075785614403    -0.115158065399    -0.021662451367    15.994914619570
         N            1.426516385597    -0.616421065399    -0.021705451367    14.003074004430
         C           -0.701516614403    -0.010986065399    -0.021655451367    12.000000000000
         C            0.140284385597    -1.109114065399    -0.021633451367    12.000000000000
         C            0.093109185597     1.161937934601     0.128305548633    12.000000000000
         C            1.417066385597     0.751799934601    -0.021723451367    12.000000000000
         H           -0.078371614403    -2.166209065399    -0.021617451367     1.007825032230
         H           -0.254775614403     2.187600934601    -0.021722451367     1.007825032230
         H            2.258882385597    -1.189066065399    -0.021651451367     1.007825032230
         H            2.334400385597     1.323267934601    -0.021764451367     1.007825032230
         H           -2.435335614403     0.787109934601    -0.021483451367     1.007825032230

  Basis Set: AUG-CC-PVTZ
    Blend: AUG-CC-PVTZ
  Basis Set: (AUG-CC-PVTZ AUX)
    Blend: AUG-CC-PVTZ-JKFIT
	 Reference Energy          =    -283.7615728146564038 [Eh]
	 Singles Energy            =      -0.0000000000000000 [Eh]
	 Same-Spin Energy          =      -0.2996818151751312 [Eh]
	 Opposite-Spin Energy      =      -0.9113877447212222 [Eh]
	 Correlation Energy        =      -1.2110695598963535 [Eh]
	 Total Energy              =    -284.9726423745527768 [Eh]

	 ================> DF-SCS-MP2 Energies <==================
	-----------------------------------------------------------
	 SCS Same-Spin Scale       =       0.3333333333333333 [-]
	 SCS Opposite-Spin Scale   =       1.2000000000000000 [-]
	 SCS Same-Spin Energy      =      -0.0998939383917104 [Eh]
	 SCS Opposite-Spin Energy  =      -1.0936652936654665 [Eh]
	 SCS Correlation Energy    =      -1.1935592320571768 [Eh]
	 SCS Total Energy          =    -284.9551320467135724 [Eh]
	-----------------------------------------------------------

  Dipole Moment: [D]
     X:     1.8339      Y:     0.3126      Z:    -0.1694     Total:     1.8680

*** Psi4 exiting successfully. Buy a developer a beer!
