                               Psi4 1.3.2 release

  ==> Input File <==

--------------------------------------------------------------------------
#psi4
#
memory 32 gb

molecule  {
0 1
  O       -2.0961900    -0.1258010     0.0000130
  N        1.4061120    -0.6270640    -0.0000300
  C       -0.7219210    -0.0216290     0.0000200
  C        0.1198800    -1.1197570     0.0000420
  C        0.0727049     1.1512937     0.0999810
  C        1.3966620     0.7411570    -0.0000480
  H       -0.0987760    -2.1768520     0.0000580
  H       -0.2751800     2.1769580    -0.0000470
  H        2.2384780    -1.1997090     0.0000240
  H        2.3139960     1.3126250    -0.0000890
  H       -2.4557400     0.7764670     0.0001920
units angstrom
no_reorient  #important for SAPT in psi4, default
symmetry c1  #important for SAPT in psi4, default
}

set PROPERTIES_ORIGIN ["COM"]
properties('MP2/aug-cc-pvtz', properties = ['dipole'])
--------------------------------------------------------------------------

    Molecular point group: c1
  Charge       = 0
  Multiplicity = 1
  Basis Set: AUG-CC-PVTZ
    Blend: AUG-CC-PVTZ
  Basis Set: (AUG-CC-PVTZ AUX)
    Blend: AUG-CC-PVTZ-JKFIT

    Orbital Energies [Eh]
    ---------------------

    Doubly Occupied:

       1A    -20.578509     2A    -15.609849     3A    -11.277100
       4A    -11.264931     5A    -11.242871     6A    -11.216914
       7A     -1.382945     8A     -1.289390     9A     -1.037664
      10A     -0.977503    11A     -0.801184    12A     -0.781926
      13A     -0.742447    14A     -0.652232    15A     -0.612361
      16A     -0.593247    17A     -0.587445    18A     -0.567061
      19A     -0.534841    20A     -0.510049    21A     -0.337829
      22A     -0.289264

  @DF-RHF Final Energy:  -283.76480649670305

   => Energetics <=

    Nuclear Repulsion Energy =            221.8132673711267842
    One-Electron Energy =                -825.3810251188135680
    Two-Electron Energy =                 319.8029512509837105
    Total Energy =                       -283.7648064967030450
  Basis Set: (AUG-CC-PVTZ AUX)
    Blend: AUG-CC-PVTZ-RI
    Molecular point group: c1

    Geometry (in Angstrom), charge = 0, multiplicity = 1:

       Center              X                  Y                   Z               Mass
    ------------   -----------------  -----------------  -----------------  -----------------
         O           -2.075785628855    -0.115157877531    -0.014436766699    15.994914619570
         N            1.426516371145    -0.616420877531    -0.014479766699    14.003074004430
         C           -0.701516628855    -0.010985877531    -0.014429766699    12.000000000000
         C            0.140284371145    -1.109113877531    -0.014407766699    12.000000000000
         C            0.093109271145     1.161936822469     0.085531233301    12.000000000000
         C            1.417066371145     0.751800122469    -0.014497766699    12.000000000000
         H           -0.078371628855    -2.166208877531    -0.014391766699     1.007825032230
         H           -0.254775628855     2.187601122469    -0.014496766699     1.007825032230
         H            2.258882371145    -1.189065877531    -0.014425766699     1.007825032230
         H            2.334400371145     1.323268122469    -0.014538766699     1.007825032230
         H           -2.435335628855     0.787110122469    -0.014257766699     1.007825032230

  Basis Set: AUG-CC-PVTZ
    Blend: AUG-CC-PVTZ
  Basis Set: (AUG-CC-PVTZ AUX)
    Blend: AUG-CC-PVTZ-JKFIT
	 Reference Energy          =    -283.7648064967030450 [Eh]
	 Singles Energy            =      -0.0000000000000000 [Eh]
	 Same-Spin Energy          =      -0.2995304739128754 [Eh]
	 Opposite-Spin Energy      =      -0.9109293338902387 [Eh]
	 Correlation Energy        =      -1.2104598078031139 [Eh]
	 Total Energy              =    -284.9752663045061354 [Eh]

	 ================> DF-SCS-MP2 Energies <==================
	-----------------------------------------------------------
	 SCS Same-Spin Scale       =       0.3333333333333333 [-]
	 SCS Opposite-Spin Scale   =       1.2000000000000000 [-]
	 SCS Same-Spin Energy      =      -0.0998434913042918 [Eh]
	 SCS Opposite-Spin Energy  =      -1.0931152006682863 [Eh]
	 SCS Correlation Energy    =      -1.1929586919725781 [Eh]
	 SCS Total Energy          =    -284.9577651886756371 [Eh]
	-----------------------------------------------------------

  Dipole Moment: [D]
     X:     1.8244      Y:     0.3471      Z:    -0.1123     Total:     1.8605

*** Psi4 exiting successfully. Buy a developer a beer!
