                               Psi4 1.3.2 release

  ==> Input File <==

--------------------------------------------------------------------------
#psi4
#
memory 32 gb

molecule  {
0 1
  O       -2.0961900    -0.1258010     0.0000130
  N        1.4061120    -0.6270640    -0.0000300
  C       -0.7219210    -0.0216290     0.0000200
  C        0.1198800    -1.1197570     0.0000420
  C        0.0727050     1.1512910    -0.0000190
  C        1.3966620     0.7411570    -0.0000480
  H       -0.0987729    -2.1768493     0.1000580
  H       -0.2751800     2.1769580    -0.0000470
  H        2.2384780    -1.1997090     0.0000240
  H        2.3139960     1.3126250    -0.0000890
  H       -2.4557400     0.7764670     0.0001920
units angstrom
no_reorient  #important for SAPT in psi4, default
symmetry c1  #important for SAPT in psi4, default
}

set PROPERTIES_ORIGIN ["COM"]
properties('MP2/aug-cc-pvtz', properties = ['dipole'])
--------------------------------------------------------------------------

    Molecular point group: c1
  Charge       = 0
  Multiplicity = 1
  Basis Set: AUG-CC-PVTZ
    Blend: AUG-CC-PVTZ
  Basis Set: (AUG-CC-PVTZ AUX)
    Blend: AUG-CC-PVTZ-JKFIT

    Orbital Energies [Eh]
    ---------------------

    Doubly Occupied:

       1A    -20.578543     2A    -15.609275     3A    -11.276650
       4A    -11.263901     5A    -11.243011     6A    -11.216139
       7A     -1.382991     8A     -1.289173     9A     -1.038367
      10A     -0.977295    11A     -0.801601    12A     -0.781857
      13A     -0.742206    14A     -0.652523    15A     -0.612219
      16A     -0.593935    17A     -0.585871    18A     -0.568773
      19A     -0.534911    20A     -0.511227    21A     -0.337785
      22A     -0.289322

  @DF-RHF Final Energy:  -283.76691988909198

   => Energetics <=

    Nuclear Repulsion Energy =            221.9063282313792058
    One-Electron Energy =                -825.5713494188828463
    Two-Electron Energy =                 319.8981012984116319
    Total Energy =                       -283.7669198890919802
  Basis Set: (AUG-CC-PVTZ AUX)
    Blend: AUG-CC-PVTZ-RI
    Molecular point group: c1

    Geometry (in Angstrom), charge = 0, multiplicity = 1:

       Center              X                  Y                   Z               Mass
    ------------   -----------------  -----------------  -----------------  -----------------
         O           -2.075785680931    -0.115157520114    -0.001199101675    15.994914619570
         N            1.426516319069    -0.616420520114    -0.001242101675    14.003074004430
         C           -0.701516680931    -0.010985520114    -0.001192101675    12.000000000000
         C            0.140284319069    -1.109113520114    -0.001170101675    12.000000000000
         C            0.093109319069     1.161934479886    -0.001231101675    12.000000000000
         C            1.417066319069     0.751800479886    -0.001260101675    12.000000000000
         H           -0.078368580931    -2.166205820114     0.098845898325     1.007825032230
         H           -0.254775680931     2.187601479886    -0.001259101675     1.007825032230
         H            2.258882319069    -1.189065520114    -0.001188101675     1.007825032230
         H            2.334400319069     1.323268479886    -0.001301101675     1.007825032230
         H           -2.435335680931     0.787110479886    -0.001020101675     1.007825032230

  Basis Set: AUG-CC-PVTZ
    Blend: AUG-CC-PVTZ
  Basis Set: (AUG-CC-PVTZ AUX)
    Blend: AUG-CC-PVTZ-JKFIT
	 Reference Energy          =    -283.7669198890919802 [Eh]
	 Singles Energy            =      -0.0000000000000000 [Eh]
	 Same-Spin Energy          =      -0.2994408828936355 [Eh]
	 Opposite-Spin Energy      =      -0.9106719762693134 [Eh]
	 Correlation Energy        =      -1.2101128591629489 [Eh]
	 Total Energy              =    -284.9770327482549419 [Eh]

	 ================> DF-SCS-MP2 Energies <==================
	-----------------------------------------------------------
	 SCS Same-Spin Scale       =       0.3333333333333333 [-]
	 SCS Opposite-Spin Scale   =       1.2000000000000000 [-]
	 SCS Same-Spin Energy      =      -0.0998136276312118 [Eh]
	 SCS Opposite-Spin Energy  =      -1.0928063715231759 [Eh]
	 SCS Correlation Energy    =      -1.1926199991543878 [Eh]
	 SCS Total Energy          =    -284.9595398882463542 [Eh]
	-----------------------------------------------------------

  Dipole Moment: [D]
     X:     1.8174      Y:     0.3862      Z:     0.1004     Total:     1.8607

*** Psi4 exiting successfully. Buy a developer a beer!
