                               Psi4 1.3.2 release

  ==> Input File <==

--------------------------------------------------------------------------
#psi4
#
memory 32 gb

molecule  {
0 1
  O       -2.0961900    -0.1258010     0.0000130
  N        1.4061120    -0.6270640    -0.0000300
  C       -0.7219210    -0.0216290     0.0000200
  C        0.1198800    -1.1197570     0.0000420
  C        0.0727049     1.1512923     0.0499810
  C        1.3966620     0.7411570    -0.0000480
  H       -0.0987760    -2.1768520     0.0000580
  H       -0.2751800     2.1769580    -0.0000470
  H        2.2384780    -1.1997090     0.0000240
  H        2.3139960     1.3126250    -0.0000890
  H       -2.4557400     0.7764670     0.0001920
units angstrom
no_reorient  #important for SAPT in psi4, default
symmetry c1  #important for SAPT in psi4, default
}

set PROPERTIES_ORIGIN ["COM"]
properties('MP2/aug-cc-pvtz', properties = ['dipole'])
--------------------------------------------------------------------------

    Molecular point group: c1
  Charge       = 0
  Multiplicity = 1
  Basis Set: AUG-CC-PVTZ
    Blend: AUG-CC-PVTZ
  Basis Set: (AUG-CC-PVTZ AUX)
    Blend: AUG-CC-PVTZ-JKFIT

    Orbital Energies [Eh]
    ---------------------

    Doubly Occupied:

       1A    -20.578444     2A    -15.609425     3A    -11.276625
       4A    -11.264016     5A    -11.242768     6A    -11.216274
       7A     -1.382901     8A     -1.289199     9A     -1.038127
      10A     -0.977450    11A     -0.801459    12A     -0.781883
      13A     -0.742745    14A     -0.652449    15A     -0.612221
      16A     -0.592946    17A     -0.587380    18A     -0.568572
      19A     -0.534898    20A     -0.510991    21A     -0.337752
      22A     -0.289246

  @DF-RHF Final Energy:  -283.76673296883462

   => Energetics <=

    Nuclear Repulsion Energy =            221.8963570257065498
    One-Electron Energy =                -825.5506395115884288
    Two-Electron Energy =                 319.8875495170472050
    Total Energy =                       -283.7667329688346172
  Basis Set: (AUG-CC-PVTZ AUX)
    Blend: AUG-CC-PVTZ-RI
    Molecular point group: c1

    Geometry (in Angstrom), charge = 0, multiplicity = 1:

       Center              X                  Y                   Z               Mass
    ------------   -----------------  -----------------  -----------------  -----------------
         O           -2.075785628855    -0.115157675212    -0.007211082030    15.994914619570
         N            1.426516371145    -0.616420675212    -0.007254082030    14.003074004430
         C           -0.701516628855    -0.010985675212    -0.007204082030    12.000000000000
         C            0.140284371145    -1.109113675212    -0.007182082030    12.000000000000
         C            0.093109271145     1.161935624788     0.042756917970    12.000000000000
         C            1.417066371145     0.751800324788    -0.007272082030    12.000000000000
         H           -0.078371628855    -2.166208675212    -0.007166082030     1.007825032230
         H           -0.254775628855     2.187601324788    -0.007271082030     1.007825032230
         H            2.258882371145    -1.189065675212    -0.007200082030     1.007825032230
         H            2.334400371145     1.323268324788    -0.007313082030     1.007825032230
         H           -2.435335628855     0.787110324788    -0.007032082030     1.007825032230

  Basis Set: AUG-CC-PVTZ
    Blend: AUG-CC-PVTZ
  Basis Set: (AUG-CC-PVTZ AUX)
    Blend: AUG-CC-PVTZ-JKFIT
	 Reference Energy          =    -283.7667329688346172 [Eh]
	 Singles Energy            =      -0.0000000000000000 [Eh]
	 Same-Spin Energy          =      -0.2994389207175591 [Eh]
	 Opposite-Spin Energy      =      -0.9106776132183803 [Eh]
	 Correlation Energy        =      -1.2101165339359392 [Eh]
	 Total Energy              =    -284.9768495027705626 [Eh]

	 ================> DF-SCS-MP2 Energies <==================
	-----------------------------------------------------------
	 SCS Same-Spin Scale       =       0.3333333333333333 [-]
	 SCS Opposite-Spin Scale   =       1.2000000000000000 [-]
	 SCS Same-Spin Energy      =      -0.0998129735725197 [Eh]
	 SCS Opposite-Spin Energy  =      -1.0928131358620563 [Eh]
	 SCS Correlation Energy    =      -1.1926261094345760 [Eh]
	 SCS Total Energy          =    -284.9593590782691876 [Eh]
	-----------------------------------------------------------

  Dipole Moment: [D]
     X:     1.8188      Y:     0.3680      Z:    -0.0558     Total:     1.8565

*** Psi4 exiting successfully. Buy a developer a beer!
