                               Psi4 1.3.2 release

  ==> Input File <==

--------------------------------------------------------------------------
#psi4
#
memory 32 gb

molecule  {
0 1
  O       -2.0961900    -0.1258010     0.0000130
  N        1.4061120    -0.6270640    -0.0000300
  C       -0.7219210    -0.0216290     0.0000200
  C        0.1198800    -1.1197570     0.0000420
  C        0.0727050     1.1512910    -0.0000190
  C        1.3966620     0.7411570    -0.0000480
  H       -0.0987760    -2.1768520     0.0000580
  H       -0.2751754     2.1769632     0.1999530
  H        2.2384780    -1.1997090     0.0000240
  H        2.3139960     1.3126250    -0.0000890
  H       -2.4557400     0.7764670     0.0001920
units angstrom
no_reorient  #important for SAPT in psi4, default
symmetry c1  #important for SAPT in psi4, default
}

set PROPERTIES_ORIGIN ["COM"]
properties('MP2/aug-cc-pvtz', properties = ['dipole'])
--------------------------------------------------------------------------

    Molecular point group: c1
  Charge       = 0
  Multiplicity = 1
  Basis Set: AUG-CC-PVTZ
    Blend: AUG-CC-PVTZ
  Basis Set: (AUG-CC-PVTZ AUX)
    Blend: AUG-CC-PVTZ-JKFIT

    Orbital Energies [Eh]
    ---------------------

    Doubly Occupied:

       1A    -20.578494     2A    -15.609830     3A    -11.276740
       4A    -11.264421     5A    -11.242932     6A    -11.217534
       7A     -1.382947     8A     -1.289599     9A     -1.038188
      10A     -0.977605    11A     -0.800310    12A     -0.782053
      13A     -0.742101    14A     -0.652357    15A     -0.612216
      16A     -0.594391    17A     -0.586445    18A     -0.565204
      19A     -0.535021    20A     -0.511040    21A     -0.337716
      22A     -0.289502

  @DF-RHF Final Energy:  -283.76521370689079

   => Energetics <=

    Nuclear Repulsion Energy =            221.8553649640219021
    One-Electron Energy =                -825.4678656820213973
    Two-Electron Energy =                 319.8472870111087332
    Total Energy =                       -283.7652137068907905
  Basis Set: (AUG-CC-PVTZ AUX)
    Blend: AUG-CC-PVTZ-RI
    Molecular point group: c1

    Geometry (in Angstrom), charge = 0, multiplicity = 1:

       Center              X                  Y                   Z               Mass
    ------------   -----------------  -----------------  -----------------  -----------------
         O           -2.075785699136    -0.115157550457    -0.002412805989    15.994914619570
         N            1.426516300864    -0.616420550457    -0.002455805989    14.003074004430
         C           -0.701516699136    -0.010985550457    -0.002405805989    12.000000000000
         C            0.140284300864    -1.109113550457    -0.002383805989    12.000000000000
         C            0.093109300864     1.161934449543    -0.002444805989    12.000000000000
         C            1.417066300864     0.751800449543    -0.002473805989    12.000000000000
         H           -0.078371699136    -2.166208550457    -0.002367805989     1.007825032230
         H           -0.254771099136     2.187606649543     0.197527194011     1.007825032230
         H            2.258882300864    -1.189065550457    -0.002401805989     1.007825032230
         H            2.334400300864     1.323268449543    -0.002514805989     1.007825032230
         H           -2.435335699136     0.787110449543    -0.002233805989     1.007825032230

  Basis Set: AUG-CC-PVTZ
    Blend: AUG-CC-PVTZ
  Basis Set: (AUG-CC-PVTZ AUX)
    Blend: AUG-CC-PVTZ-JKFIT
	 Reference Energy          =    -283.7652137068907905 [Eh]
	 Singles Energy            =      -0.0000000000000000 [Eh]
	 Same-Spin Energy          =      -0.2995192043387978 [Eh]
	 Opposite-Spin Energy      =      -0.9108485746664413 [Eh]
	 Correlation Energy        =      -1.2103677790052392 [Eh]
	 Total Energy              =    -284.9755814858960434 [Eh]

	 ================> DF-SCS-MP2 Energies <==================
	-----------------------------------------------------------
	 SCS Same-Spin Scale       =       0.3333333333333333 [-]
	 SCS Opposite-Spin Scale   =       1.2000000000000000 [-]
	 SCS Same-Spin Energy      =      -0.0998397347795992 [Eh]
	 SCS Opposite-Spin Energy  =      -1.0930182895997296 [Eh]
	 SCS Correlation Energy    =      -1.1928580243793288 [Eh]
	 SCS Total Energy          =    -284.9580717312701381 [Eh]
	-----------------------------------------------------------

  Dipole Moment: [D]
     X:     1.8319      Y:     0.3381      Z:     0.1750     Total:     1.8711

*** Psi4 exiting successfully. Buy a developer a beer!
