                               Psi4 1.3.2 release

  ==> Input File <==

--------------------------------------------------------------------------
#psi4
#
memory 32 gb

molecule  {
0 1
  O       -2.0961900    -0.1258010     0.0000130
  N        1.4061120    -0.6270640    -0.0000300
  C       -0.7219210    -0.0216290     0.0000200
  C        0.1198800    -1.1197570     0.0000420
  C        0.0727050     1.1512910    -0.0000190
  C        1.3966620     0.7411570    -0.0000480
  H       -0.0987760    -2.1768520     0.0000580
  H       -0.2751766     2.1769619     0.1499530
  H        2.2384780    -1.1997090     0.0000240
  H        2.3139960     1.3126250    -0.0000890
  H       -2.4557400     0.7764670     0.0001920
units angstrom
no_reorient  #important for SAPT in psi4, default
symmetry c1  #important for SAPT in psi4, default
}

set PROPERTIES_ORIGIN ["COM"]
properties('MP2/aug-cc-pvtz', properties = ['dipole'])
--------------------------------------------------------------------------

    Molecular point group: c1
  Charge       = 0
  Multiplicity = 1
  Basis Set: AUG-CC-PVTZ
    Blend: AUG-CC-PVTZ
  Basis Set: (AUG-CC-PVTZ AUX)
    Blend: AUG-CC-PVTZ-JKFIT

    Orbital Energies [Eh]
    ---------------------

    Doubly Occupied:

       1A    -20.578462     2A    -15.609593     3A    -11.276619
       4A    -11.264111     5A    -11.242845     6A    -11.216893
       7A     -1.382920     8A     -1.289398     9A     -1.038226
      10A     -0.977528    11A     -0.800833    12A     -0.781973
      13A     -0.742421    14A     -0.652425    15A     -0.612195
      16A     -0.593828    17A     -0.586724    18A     -0.566903
      19A     -0.534973    20A     -0.511163    21A     -0.337719
      22A     -0.289388

  @DF-RHF Final Energy:  -283.76619657859601

   => Energetics <=

    Nuclear Repulsion Energy =            221.8851385690626046
    One-Electron Energy =                -825.5283925652212247
    Two-Electron Energy =                 319.8770574175625825
    Total Energy =                       -283.7661965785960092
  Basis Set: (AUG-CC-PVTZ AUX)
    Blend: AUG-CC-PVTZ-RI
    Molecular point group: c1

    Geometry (in Angstrom), charge = 0, multiplicity = 1:

       Center              X                  Y                   Z               Mass
    ------------   -----------------  -----------------  -----------------  -----------------
         O           -2.075785684572    -0.115157534679    -0.001805953832    15.994914619570
         N            1.426516315428    -0.616420534679    -0.001848953832    14.003074004430
         C           -0.701516684572    -0.010985534679    -0.001798953832    12.000000000000
         C            0.140284315428    -1.109113534679    -0.001776953832    12.000000000000
         C            0.093109315428     1.161934465321    -0.001837953832    12.000000000000
         C            1.417066315428     0.751800465321    -0.001866953832    12.000000000000
         H           -0.078371684572    -2.166208534679    -0.001760953832     1.007825032230
         H           -0.254772284572     2.187605365321     0.148134046168     1.007825032230
         H            2.258882315428    -1.189065534679    -0.001794953832     1.007825032230
         H            2.334400315428     1.323268465321    -0.001907953832     1.007825032230
         H           -2.435335684572     0.787110465321    -0.001626953832     1.007825032230

  Basis Set: AUG-CC-PVTZ
    Blend: AUG-CC-PVTZ
  Basis Set: (AUG-CC-PVTZ AUX)
    Blend: AUG-CC-PVTZ-JKFIT
	 Reference Energy          =    -283.7661965785960092 [Eh]
	 Singles Energy            =      -0.0000000000000000 [Eh]
	 Same-Spin Energy          =      -0.2994709865420352 [Eh]
	 Opposite-Spin Energy      =      -0.9107369143629724 [Eh]
	 Correlation Energy        =      -1.2102079009050075 [Eh]
	 Total Energy              =    -284.9764044795010136 [Eh]

	 ================> DF-SCS-MP2 Energies <==================
	-----------------------------------------------------------
	 SCS Same-Spin Scale       =       0.3333333333333333 [-]
	 SCS Opposite-Spin Scale   =       1.2000000000000000 [-]
	 SCS Same-Spin Energy      =      -0.0998236621806784 [Eh]
	 SCS Opposite-Spin Energy  =      -1.0928842972355668 [Eh]
	 SCS Correlation Energy    =      -1.1927079594162451 [Eh]
	 SCS Total Energy          =    -284.9589045380122343 [Eh]
	-----------------------------------------------------------

  Dipole Moment: [D]
     X:     1.8254      Y:     0.3541      Z:     0.1322     Total:     1.8642

*** Psi4 exiting successfully. Buy a developer a beer!
