                               Psi4 1.3.2 release

  ==> Input File <==

--------------------------------------------------------------------------
#psi4
#
memory 32 gb

molecule  {
0 1
  O       -2.0961900    -0.1258010     0.0000130
  N        1.4061120    -0.6270640    -0.0000300
  C       -0.7219210    -0.0216290     0.0000200
  C        0.1198800    -1.1197570     0.0000420
  C        0.0727050     1.1512910    -0.0000190
  C        1.3966620     0.7411570    -0.0000480
  H       -0.0987760    -2.1768520     0.0000580
  H       -0.2751777     2.1769606     0.0999530
  H        2.2384780    -1.1997090     0.0000240
  H        2.3139960     1.3126250    -0.0000890
  H       -2.4557400     0.7764670     0.0001920
units angstrom
no_reorient  #important for SAPT in psi4, default
symmetry c1  #important for SAPT in psi4, default
}

set PROPERTIES_ORIGIN ["COM"]
properties('MP2/aug-cc-pvtz', properties = ['dipole'])
--------------------------------------------------------------------------

    Molecular point group: c1
  Charge       = 0
  Multiplicity = 1
  Basis Set: AUG-CC-PVTZ
    Blend: AUG-CC-PVTZ
  Basis Set: (AUG-CC-PVTZ AUX)
    Blend: AUG-CC-PVTZ-JKFIT

    Orbital Energies [Eh]
    ---------------------

    Doubly Occupied:

       1A    -20.578440     2A    -15.609422     3A    -11.276533
       4A    -11.263888     5A    -11.242784     6A    -11.216432
       7A     -1.382901     8A     -1.289253     9A     -1.038256
      10A     -0.977475    11A     -0.801226    12A     -0.781915
      13A     -0.742656    14A     -0.652477    15A     -0.612182
      16A     -0.593327    17A     -0.587027    18A     -0.568119
      19A     -0.534938    20A     -0.511245    21A     -0.337724
      22A     -0.289306

  @DF-RHF Final Energy:  -283.76686279316016

   => Energetics <=

    Nuclear Repulsion Energy =            221.9067126286886378
    One-Electron Energy =                -825.5721020319713261
    Two-Electron Energy =                 319.8985266101225307
    Total Energy =                       -283.7668627931601577
  Basis Set: (AUG-CC-PVTZ AUX)
    Blend: AUG-CC-PVTZ-RI
    Molecular point group: c1

    Geometry (in Angstrom), charge = 0, multiplicity = 1:

       Center              X                  Y                   Z               Mass
    ------------   -----------------  -----------------  -----------------  -----------------
         O           -2.075785671221    -0.115157518900    -0.001199101675    15.994914619570
         N            1.426516328779    -0.616420518900    -0.001242101675    14.003074004430
         C           -0.701516671221    -0.010985518900    -0.001192101675    12.000000000000
         C            0.140284328779    -1.109113518900    -0.001170101675    12.000000000000
         C            0.093109328779     1.161934481100    -0.001231101675    12.000000000000
         C            1.417066328779     0.751800481100    -0.001260101675    12.000000000000
         H           -0.078371671221    -2.166208518900    -0.001154101675     1.007825032230
         H           -0.254773371221     2.187604081100     0.098740898325     1.007825032230
         H            2.258882328779    -1.189065518900    -0.001188101675     1.007825032230
         H            2.334400328779     1.323268481100    -0.001301101675     1.007825032230
         H           -2.435335671221     0.787110481100    -0.001020101675     1.007825032230

  Basis Set: AUG-CC-PVTZ
    Blend: AUG-CC-PVTZ
  Basis Set: (AUG-CC-PVTZ AUX)
    Blend: AUG-CC-PVTZ-JKFIT
	 Reference Energy          =    -283.7668627931601577 [Eh]
	 Singles Energy            =      -0.0000000000000000 [Eh]
	 Same-Spin Energy          =      -0.2994362448210887 [Eh]
	 Opposite-Spin Energy      =      -0.9106605157031469 [Eh]
	 Correlation Energy        =      -1.2100967605242356 [Eh]
	 Total Energy              =    -284.9769595536843667 [Eh]

	 ================> DF-SCS-MP2 Energies <==================
	-----------------------------------------------------------
	 SCS Same-Spin Scale       =       0.3333333333333333 [-]
	 SCS Opposite-Spin Scale   =       1.2000000000000000 [-]
	 SCS Same-Spin Energy      =      -0.0998120816070295 [Eh]
	 SCS Opposite-Spin Energy  =      -1.0927926188437762 [Eh]
	 SCS Correlation Energy    =      -1.1926047004508058 [Eh]
	 SCS Total Energy          =    -284.9594674936109868 [Eh]
	-----------------------------------------------------------

  Dipole Moment: [D]
     X:     1.8207      Y:     0.3657      Z:     0.0886     Total:     1.8592

*** Psi4 exiting successfully. Buy a developer a beer!
