                               Psi4 1.3.2 release

  ==> Input File <==

--------------------------------------------------------------------------
#psi4
#
memory 32 gb

molecule  {
0 1
  O       -2.0961900    -0.1258010     0.0000130
  N        1.4061120    -0.6270640    -0.0000300
  C       -0.7219210    -0.0216290     0.0000200
  C        0.1198800    -1.1197570     0.0000420
  C        0.0727047     1.1512977     0.2499810
  C        1.3966620     0.7411570    -0.0000480
  H       -0.0987760    -2.1768520     0.0000580
  H       -0.2751800     2.1769580    -0.0000470
  H        2.2384780    -1.1997090     0.0000240
  H        2.3139960     1.3126250    -0.0000890
  H       -2.4557400     0.7764670     0.0001920
units angstrom
no_reorient  #important for SAPT in psi4, default
symmetry c1  #important for SAPT in psi4, default
}

set PROPERTIES_ORIGIN ["COM"]
properties('MP2/aug-cc-pvtz', properties = ['dipole'])
--------------------------------------------------------------------------

    Molecular point group: c1
  Charge       = 0
  Multiplicity = 1
  Basis Set: AUG-CC-PVTZ
    Blend: AUG-CC-PVTZ
  Basis Set: (AUG-CC-PVTZ AUX)
    Blend: AUG-CC-PVTZ-JKFIT

    Orbital Energies [Eh]
    ---------------------

    Doubly Occupied:

       1A    -20.578980     2A    -15.612841     3A    -11.280279
       4A    -11.271159     5A    -11.243657     6A    -11.221329
       7A     -1.383263     8A     -1.290775     9A     -1.034452
      10A     -0.977886    11A     -0.799518    12A     -0.782265
      13A     -0.740745    14A     -0.650742    15A     -0.613303
      16A     -0.594403    17A     -0.588494    18A     -0.558122
      19A     -0.533117    20A     -0.503701    21A     -0.338531
      22A     -0.289447

  @DF-RHF Final Energy:  -283.75105468721648

   => Energetics <=

    Nuclear Repulsion Energy =            221.2434480978748752
    One-Electron Energy =                -824.2149871741496554
    Two-Electron Energy =                 319.2204843890582993
    Total Energy =                       -283.7510546872164809
  Basis Set: (AUG-CC-PVTZ AUX)
    Blend: AUG-CC-PVTZ-RI
    Molecular point group: c1

    Geometry (in Angstrom), charge = 0, multiplicity = 1:

       Center              X                  Y                   Z               Mass
    ------------   -----------------  -----------------  -----------------  -----------------
         O           -2.075785599952    -0.115158455586    -0.036113820704    15.994914619570
         N            1.426516400048    -0.616421455586    -0.036156820704    14.003074004430
         C           -0.701516599952    -0.010986455586    -0.036106820704    12.000000000000
         C            0.140284400048    -1.109114455586    -0.036084820704    12.000000000000
         C            0.093109100048     1.161940244414     0.213854179296    12.000000000000
         C            1.417066400048     0.751799544414    -0.036174820704    12.000000000000
         H           -0.078371599952    -2.166209455586    -0.036068820704     1.007825032230
         H           -0.254775599952     2.187600544414    -0.036173820704     1.007825032230
         H            2.258882400048    -1.189066455586    -0.036102820704     1.007825032230
         H            2.334400400048     1.323267544414    -0.036215820704     1.007825032230
         H           -2.435335599952     0.787109544414    -0.035934820704     1.007825032230

  Basis Set: AUG-CC-PVTZ
    Blend: AUG-CC-PVTZ
  Basis Set: (AUG-CC-PVTZ AUX)
    Blend: AUG-CC-PVTZ-JKFIT
	 Reference Energy          =    -283.7510546872164809 [Eh]
	 Singles Energy            =      -0.0000000000000000 [Eh]
	 Same-Spin Energy          =      -0.3001515182861453 [Eh]
	 Opposite-Spin Energy      =      -0.9129344329977768 [Eh]
	 Correlation Energy        =      -1.2130859512839220 [Eh]
	 Total Energy              =    -284.9641406385003961 [Eh]

	 ================> DF-SCS-MP2 Energies <==================
	-----------------------------------------------------------
	 SCS Same-Spin Scale       =       0.3333333333333333 [-]
	 SCS Opposite-Spin Scale   =       1.2000000000000000 [-]
	 SCS Same-Spin Energy      =      -0.1000505060953818 [Eh]
	 SCS Opposite-Spin Energy  =      -1.0955213195973321 [Eh]
	 SCS Correlation Energy    =      -1.1955718256927139 [Eh]
	 SCS Total Energy          =    -284.9466265129091767 [Eh]
	-----------------------------------------------------------

  Dipole Moment: [D]
     X:     1.8630      Y:     0.2047      Z:    -0.2862     Total:     1.8959

*** Psi4 exiting successfully. Buy a developer a beer!
