                               Psi4 1.3.2 release

  ==> Input File <==

--------------------------------------------------------------------------
#psi4
#
memory 32 gb

molecule  {
0 1
  O       -2.0961900    -0.1258010     0.0000130
  N        1.4061120    -0.6270640    -0.0000300
  C       -0.7219210    -0.0216290     0.0000200
  C        0.1198800    -1.1197570     0.0000420
  C        0.0727048     1.1512964     0.1999810
  C        1.3966620     0.7411570    -0.0000480
  H       -0.0987760    -2.1768520     0.0000580
  H       -0.2751800     2.1769580    -0.0000470
  H        2.2384780    -1.1997090     0.0000240
  H        2.3139960     1.3126250    -0.0000890
  H       -2.4557400     0.7764670     0.0001920
units angstrom
no_reorient  #important for SAPT in psi4, default
symmetry c1  #important for SAPT in psi4, default
}

set PROPERTIES_ORIGIN ["COM"]
properties('MP2/aug-cc-pvtz', properties = ['dipole'])
--------------------------------------------------------------------------

    Molecular point group: c1
  Charge       = 0
  Multiplicity = 1
  Basis Set: AUG-CC-PVTZ
    Blend: AUG-CC-PVTZ
  Basis Set: (AUG-CC-PVTZ AUX)
    Blend: AUG-CC-PVTZ-JKFIT

    Orbital Energies [Eh]
    ---------------------

    Doubly Occupied:

       1A    -20.578778     2A    -15.611556     3A    -11.278949
       4A    -11.268530     5A    -11.243310     6A    -11.219453
       7A     -1.383128     8A     -1.290174     9A     -1.035823
      10A     -0.977723    11A     -0.800181    12A     -0.782115
      13A     -0.741398    14A     -0.651374    15A     -0.612907
      16A     -0.594036    17A     -0.587984    18A     -0.561581
      19A     -0.534161    20A     -0.506382    21A     -0.338196
      22A     -0.289357

  @DF-RHF Final Energy:  -283.75700092361188

   => Energetics <=

    Nuclear Repulsion Energy =            221.4851787890698915
    One-Electron Energy =                -824.7101645361937017
    Two-Electron Energy =                 319.4679848235119266
    Total Energy =                       -283.7570009236118835
  Basis Set: (AUG-CC-PVTZ AUX)
    Blend: AUG-CC-PVTZ-RI
    Molecular point group: c1

    Geometry (in Angstrom), charge = 0, multiplicity = 1:

       Center              X                  Y                   Z               Mass
    ------------   -----------------  -----------------  -----------------  -----------------
         O           -2.075785614403    -0.115158267718    -0.028888136036    15.994914619570
         N            1.426516385597    -0.616421267718    -0.028931136036    14.003074004430
         C           -0.701516614403    -0.010986267718    -0.028881136036    12.000000000000
         C            0.140284385597    -1.109114267718    -0.028859136036    12.000000000000
         C            0.093109185597     1.161939132282     0.171079863964    12.000000000000
         C            1.417066385597     0.751799732282    -0.028949136036    12.000000000000
         H           -0.078371614403    -2.166209267718    -0.028843136036     1.007825032230
         H           -0.254775614403     2.187600732282    -0.028948136036     1.007825032230
         H            2.258882385597    -1.189066267718    -0.028877136036     1.007825032230
         H            2.334400385597     1.323267732282    -0.028990136036     1.007825032230
         H           -2.435335614403     0.787109732282    -0.028709136036     1.007825032230

  Basis Set: AUG-CC-PVTZ
    Blend: AUG-CC-PVTZ
  Basis Set: (AUG-CC-PVTZ AUX)
    Blend: AUG-CC-PVTZ-JKFIT
	 Reference Energy          =    -283.7570009236118835 [Eh]
	 Singles Energy            =      -0.0000000000000000 [Eh]
	 Same-Spin Energy          =      -0.2998902113454026 [Eh]
	 Opposite-Spin Energy      =      -0.9120590290346795 [Eh]
	 Correlation Energy        =      -1.2119492403800822 [Eh]
	 Total Energy              =    -284.9689501639919627 [Eh]

	 ================> DF-SCS-MP2 Energies <==================
	-----------------------------------------------------------
	 SCS Same-Spin Scale       =       0.3333333333333333 [-]
	 SCS Opposite-Spin Scale   =       1.2000000000000000 [-]
	 SCS Same-Spin Energy      =      -0.0999634037818009 [Eh]
	 SCS Opposite-Spin Energy  =      -1.0944708348416154 [Eh]
	 SCS Correlation Energy    =      -1.1944342386234164 [Eh]
	 SCS Total Energy          =    -284.9514351622353274 [Eh]
	-----------------------------------------------------------

  Dipole Moment: [D]
     X:     1.8469      Y:     0.2649      Z:    -0.2274     Total:     1.8796

*** Psi4 exiting successfully. Buy a developer a beer!
