                               Psi4 1.3.2 release

  ==> Input File <==

--------------------------------------------------------------------------
#psi4
#
memory 32 gb

molecule  {
0 1
  O       -0.1027990     2.1661630    -0.1573240
  O       -2.2585870    -1.3354710    -0.3679860
  O       -2.3909180     0.7817600     0.4224630
  C       -0.2229310    -0.2124960     0.0158460
  C        0.5432600     0.9664360    -0.0570110
  C        0.4335280    -1.4494910     0.0925130
  C        1.9402870     0.8816050    -0.0559020
  C        1.8233140    -1.5265410     0.1016630
  C        2.5770400    -0.3539830     0.0301550
  C       -1.7066960    -0.1573290     0.0554370
  H       -0.1661180    -2.3524960     0.1439440
  H        2.5301710     1.7954230    -0.1182500
  H        2.3148760    -2.4929130     0.1687580
  H        3.6635200    -0.3964420     0.0343940
  H        0.7121112     3.0063565    -0.2547222
  H       -3.2241600    -1.2056690    -0.2641310
units angstrom
no_reorient  #important for SAPT in psi4, default
symmetry c1  #important for SAPT in psi4, default
}

set PROPERTIES_ORIGIN ["COM"]
properties('MP2/aug-cc-pvtz', properties = ['dipole'])
--------------------------------------------------------------------------

    Molecular point group: c1
  Charge       = 0
  Multiplicity = 1
  Basis Set: AUG-CC-PVTZ
    Blend: AUG-CC-PVTZ
  Basis Set: (AUG-CC-PVTZ AUX)
    Blend: AUG-CC-PVTZ-JKFIT

    Orbital Energies [Eh]
    ---------------------

    Doubly Occupied:

       1A    -20.615321     2A    -20.609170     3A    -20.542099
       4A    -11.388588     5A    -11.329476     6A    -11.264702
       7A    -11.262225     8A    -11.255650     9A    -11.248478
      10A    -11.241259    11A     -1.452797    12A     -1.385286
      13A     -1.347383    14A     -1.164290    15A     -1.053611
      16A     -1.017760    17A     -0.896150    18A     -0.851568
      19A     -0.798568    20A     -0.726297    21A     -0.700529
      22A     -0.694654    23A     -0.671853    24A     -0.642072
      25A     -0.622864    26A     -0.619797    27A     -0.591754
      28A     -0.586054    29A     -0.568060    30A     -0.533591
      31A     -0.520682    32A     -0.496166    33A     -0.475830
      34A     -0.445243    35A     -0.361079    36A     -0.329870

  @DF-RHF Final Energy:  -493.31774992633336

   => Energetics <=

    Nuclear Repulsion Energy =            497.8458275109555302
    One-Electron Energy =               -1661.7056020543257091
    Two-Electron Energy =                 670.5420246170367591
    Total Energy =                       -493.3177499263333630
  Basis Set: (AUG-CC-PVTZ AUX)
    Blend: AUG-CC-PVTZ-RI
    Molecular point group: c1

    Geometry (in Angstrom), charge = 0, multiplicity = 1:

       Center              X                  Y                   Z               Mass
    ------------   -----------------  -----------------  -----------------  -----------------
         O           -0.063075880651     2.152319617081    -0.159172173365    15.994914619570
         O           -2.218863880651    -1.349314382919    -0.369834173365    15.994914619570
         O           -2.351194880651     0.767916617081     0.420614826635    15.994914619570
         C           -0.183207880651    -0.226339382919     0.013997826635    12.000000000000
         C            0.582983119349     0.952592617081    -0.058859173365    12.000000000000
         C            0.473251119349    -1.463334382919     0.090664826635    12.000000000000
         C            1.980010119349     0.867761617081    -0.057750173365    12.000000000000
         C            1.863037119349    -1.540384382919     0.099814826635    12.000000000000
         C            2.616763119349    -0.367826382919     0.028306826635    12.000000000000
         C           -1.666972880651    -0.171172382919     0.053588826635    12.000000000000
         H           -0.126394880651    -2.366339382919     0.142095826635     1.007825032230
         H            2.569894119349     1.781579617081    -0.120098173365     1.007825032230
         H            2.354599119349    -2.506756382919     0.166909826635     1.007825032230
         H            3.703243119349    -0.410285382919     0.032545826635     1.007825032230
         H            0.751834319349     2.992513117081    -0.256570373365     1.007825032230
         H           -3.184436880651    -1.219512382919    -0.265979173365     1.007825032230

  Basis Set: AUG-CC-PVTZ
    Blend: AUG-CC-PVTZ
  Basis Set: (AUG-CC-PVTZ AUX)
    Blend: AUG-CC-PVTZ-JKFIT
	 Reference Energy          =    -493.3177499263333630 [Eh]
	 Singles Energy            =      -0.0000000000000000 [Eh]
	 Same-Spin Energy          =      -0.5078812938452983 [Eh]
	 Opposite-Spin Energy      =      -1.5114421378198046 [Eh]
	 Correlation Energy        =      -2.0193234316651028 [Eh]
	 Total Energy              =    -495.3370733579984631 [Eh]

	 ================> DF-SCS-MP2 Energies <==================
	-----------------------------------------------------------
	 SCS Same-Spin Scale       =       0.3333333333333333 [-]
	 SCS Opposite-Spin Scale   =       1.2000000000000000 [-]
	 SCS Same-Spin Energy      =      -0.1692937646150994 [Eh]
	 SCS Opposite-Spin Energy  =      -1.8137305653837654 [Eh]
	 SCS Correlation Energy    =      -1.9830243299988648 [Eh]
	 SCS Total Energy          =    -495.3007742563322040 [Eh]
	-----------------------------------------------------------

  Dipole Moment: [D]
     X:     2.7279      Y:    -0.2914      Z:    -0.4799     Total:     2.7851

*** Psi4 exiting successfully. Buy a developer a beer!
