                               Psi4 1.3.2 release

  ==> Input File <==

--------------------------------------------------------------------------
#psi4
#
memory 32 gb

molecule  {
0 1
  O       -0.1027990     2.1661630    -0.1573240
  O       -2.2585870    -1.3354710    -0.3679860
  O       -2.3909180     0.7817600     0.4224630
  C       -0.2229310    -0.2124960     0.0158460
  C        0.4155957     1.0399123    -0.0615784
  C        0.4335280    -1.4494910     0.0925130
  C        1.9402870     0.8816050    -0.0559020
  C        1.8233140    -1.5265410     0.1016630
  C        2.5770400    -0.3539830     0.0301550
  C       -1.7066960    -0.1573290     0.0554370
  H       -0.1661180    -2.3524960     0.1439440
  H        2.5301710     1.7954230    -0.1182500
  H        2.3148760    -2.4929130     0.1687580
  H        3.6635200    -0.3964420     0.0343940
  H        0.5733460     2.8632860    -0.2381370
  H       -3.2241600    -1.2056690    -0.2641310
units angstrom
no_reorient  #important for SAPT in psi4, default
symmetry c1  #important for SAPT in psi4, default
}

set PROPERTIES_ORIGIN ["COM"]
properties('MP2/aug-cc-pvtz', properties = ['dipole'])
--------------------------------------------------------------------------

    Molecular point group: c1
  Charge       = 0
  Multiplicity = 1
  Basis Set: AUG-CC-PVTZ
    Blend: AUG-CC-PVTZ
  Basis Set: (AUG-CC-PVTZ AUX)
    Blend: AUG-CC-PVTZ-JKFIT

    Orbital Energies [Eh]
    ---------------------

    Doubly Occupied:

       1A    -20.629504     2A    -20.605723     3A    -20.539683
       4A    -11.383251     5A    -11.347050     6A    -11.260366
       7A    -11.259053     8A    -11.254173     9A    -11.249052
      10A    -11.234216    11A     -1.491894    12A     -1.449507
      13A     -1.346459    14A     -1.153165    15A     -1.051033
      16A     -1.006386    17A     -0.892279    18A     -0.876349
      19A     -0.801508    20A     -0.772328    21A     -0.707843
      22A     -0.698888    23A     -0.686353    24A     -0.651868
      25A     -0.644401    26A     -0.621545    27A     -0.615384
      28A     -0.582921    29A     -0.577060    30A     -0.535455
      31A     -0.504066    32A     -0.493065    33A     -0.474476
      34A     -0.439395    35A     -0.359416    36A     -0.312273

  @DF-RHF Final Energy:  -493.32954623674601

   => Energetics <=

    Nuclear Repulsion Energy =            499.2901997830005030
    One-Electron Energy =               -1664.2247210182347317
    Two-Electron Energy =                 671.6049749984881601
    Total Energy =                       -493.3295462367459550
  Basis Set: (AUG-CC-PVTZ AUX)
    Blend: AUG-CC-PVTZ-RI
    Molecular point group: c1

    Geometry (in Angstrom), charge = 0, multiplicity = 1:

       Center              X                  Y                   Z               Mass
    ------------   -----------------  -----------------  -----------------  -----------------
         O           -0.050964005522     2.146976456050    -0.158896194572    15.994914619570
         O           -2.206752005522    -1.354657543950    -0.369558194572    15.994914619570
         O           -2.339083005522     0.762573456050     0.420890805428    15.994914619570
         C           -0.171096005522    -0.231682543950     0.014273805428    12.000000000000
         C            0.467430694478     1.020725756050    -0.063150594572    12.000000000000
         C            0.485362994478    -1.468677543950     0.090940805428    12.000000000000
         C            1.992121994478     0.862418456050    -0.057474194572    12.000000000000
         C            1.875148994478    -1.545727543950     0.100090805428    12.000000000000
         C            2.628874994478    -0.373169543950     0.028582805428    12.000000000000
         C           -1.654861005522    -0.176515543950     0.053864805428    12.000000000000
         H           -0.114283005522    -2.371682543950     0.142371805428     1.007825032230
         H            2.582005994478     1.776236456050    -0.119822194572     1.007825032230
         H            2.366710994478    -2.512099543950     0.167185805428     1.007825032230
         H            3.715354994478    -0.415628543950     0.032821805428     1.007825032230
         H            0.625180994478     2.844099456050    -0.239709194572     1.007825032230
         H           -3.172325005522    -1.224855543950    -0.265703194572     1.007825032230

  Basis Set: AUG-CC-PVTZ
    Blend: AUG-CC-PVTZ
  Basis Set: (AUG-CC-PVTZ AUX)
    Blend: AUG-CC-PVTZ-JKFIT
	 Reference Energy          =    -493.3295462367460118 [Eh]
	 Singles Energy            =      -0.0000000000000000 [Eh]
	 Same-Spin Energy          =      -0.5051393384972800 [Eh]
	 Opposite-Spin Energy      =      -1.5032581534842162 [Eh]
	 Correlation Energy        =      -2.0083974919814960 [Eh]
	 Total Energy              =    -495.3379437287275096 [Eh]

	 ================> DF-SCS-MP2 Energies <==================
	-----------------------------------------------------------
	 SCS Same-Spin Scale       =       0.3333333333333333 [-]
	 SCS Opposite-Spin Scale   =       1.2000000000000000 [-]
	 SCS Same-Spin Energy      =      -0.1683797794990933 [Eh]
	 SCS Opposite-Spin Energy  =      -1.8039097841810594 [Eh]
	 SCS Correlation Energy    =      -1.9722895636801527 [Eh]
	 SCS Total Energy          =    -495.3018358004261472 [Eh]
	-----------------------------------------------------------

  Dipole Moment: [D]
     X:     2.3776      Y:     0.3678      Z:    -0.5382     Total:     2.4653

*** Psi4 exiting successfully. Buy a developer a beer!
