                               Psi4 1.3.2 release

  ==> Input File <==

--------------------------------------------------------------------------
#psi4
#
memory 32 gb

molecule  {
0 1
  O       -0.1027990     2.1661630    -0.1573240
  O       -2.2585870    -1.3354710    -0.3679860
  O       -2.3909180     0.7817600     0.4224630
  C       -0.2229310    -0.2124960     0.0158460
  C        0.5225289     0.9796026    -0.0578291
  C        0.4335280    -1.4494910     0.0925130
  C        1.9402870     0.8816050    -0.0559020
  C        1.8233140    -1.5265410     0.1016630
  C        2.5770400    -0.3539830     0.0301550
  C       -1.7066960    -0.1573290     0.0554370
  H       -0.1661180    -2.3524960     0.1439440
  H        2.5301710     1.7954230    -0.1182500
  H        2.3148760    -2.4929130     0.1687580
  H        3.6635200    -0.3964420     0.0343940
  H        0.5733460     2.8632860    -0.2381370
  H       -3.2241600    -1.2056690    -0.2641310
units angstrom
no_reorient  #important for SAPT in psi4, default
symmetry c1  #important for SAPT in psi4, default
}

set PROPERTIES_ORIGIN ["COM"]
properties('MP2/aug-cc-pvtz', properties = ['dipole'])
--------------------------------------------------------------------------

    Molecular point group: c1
  Charge       = 0
  Multiplicity = 1
  Basis Set: AUG-CC-PVTZ
    Blend: AUG-CC-PVTZ
  Basis Set: (AUG-CC-PVTZ AUX)
    Blend: AUG-CC-PVTZ-JKFIT

    Orbital Energies [Eh]
    ---------------------

    Doubly Occupied:

       1A    -20.609189     2A    -20.606966     3A    -20.542292
       4A    -11.388368     5A    -11.333644     6A    -11.264825
       7A    -11.262261     8A    -11.255314     9A    -11.250891
      10A    -11.241273    11A     -1.453310    12A     -1.426678
      13A     -1.348179    14A     -1.164819    15A     -1.054015
      16A     -1.020161    17A     -0.896193    18A     -0.863903
      19A     -0.800189    20A     -0.750611    21A     -0.709445
      22A     -0.697451    23A     -0.677379    24A     -0.644996
      25A     -0.625745    26A     -0.624105    27A     -0.601031
      28A     -0.587391    29A     -0.581206    30A     -0.536929
      31A     -0.521505    32A     -0.497896    33A     -0.476224
      34A     -0.445751    35A     -0.361200    36A     -0.328739

  @DF-RHF Final Energy:  -493.35349273350522

   => Energetics <=

    Nuclear Repulsion Energy =            498.9894288633890937
    One-Electron Energy =               -1663.7856877662327406
    Two-Electron Energy =                 671.4427661693383698
    Total Energy =                       -493.3534927335052771
  Basis Set: (AUG-CC-PVTZ AUX)
    Blend: AUG-CC-PVTZ-RI
    Molecular point group: c1

    Geometry (in Angstrom), charge = 0, multiplicity = 1:

       Center              X                  Y                   Z               Mass
    ------------   -----------------  -----------------  -----------------  -----------------
         O           -0.060260409575     2.152219573618    -0.159222145799    15.994914619570
         O           -2.216048409575    -1.349414426382    -0.369884145799    15.994914619570
         O           -2.348379409575     0.767816573618     0.420564854201    15.994914619570
         C           -0.180392409575    -0.226439426382     0.013947854201    12.000000000000
         C            0.565067490425     0.965659173618    -0.059727245799    12.000000000000
         C            0.476066590425    -1.463434426382     0.090614854201    12.000000000000
         C            1.982825590425     0.867661573618    -0.057800145799    12.000000000000
         C            1.865852590425    -1.540484426382     0.099764854201    12.000000000000
         C            2.619578590425    -0.367926426382     0.028256854201    12.000000000000
         C           -1.664157409575    -0.171272426382     0.053538854201    12.000000000000
         H           -0.123579409575    -2.366439426382     0.142045854201     1.007825032230
         H            2.572709590425     1.781479573618    -0.120148145799     1.007825032230
         H            2.357414590425    -2.506856426382     0.166859854201     1.007825032230
         H            3.706058590425    -0.410385426382     0.032495854201     1.007825032230
         H            0.615884590425     2.849342573618    -0.240035145799     1.007825032230
         H           -3.181621409575    -1.219612426382    -0.266029145799     1.007825032230

  Basis Set: AUG-CC-PVTZ
    Blend: AUG-CC-PVTZ
  Basis Set: (AUG-CC-PVTZ AUX)
    Blend: AUG-CC-PVTZ-JKFIT
	 Reference Energy          =    -493.3534927335052203 [Eh]
	 Singles Energy            =      -0.0000000000000000 [Eh]
	 Same-Spin Energy          =      -0.5052988218085130 [Eh]
	 Opposite-Spin Energy      =      -1.5041003297090092 [Eh]
	 Correlation Energy        =      -2.0093991515175222 [Eh]
	 Total Energy              =    -495.3628918850227478 [Eh]

	 ================> DF-SCS-MP2 Energies <==================
	-----------------------------------------------------------
	 SCS Same-Spin Scale       =       0.3333333333333333 [-]
	 SCS Opposite-Spin Scale   =       1.2000000000000000 [-]
	 SCS Same-Spin Energy      =      -0.1684329406028377 [Eh]
	 SCS Opposite-Spin Energy  =      -1.8049203956508109 [Eh]
	 SCS Correlation Energy    =      -1.9733533362536486 [Eh]
	 SCS Total Energy          =    -495.3268460697588580 [Eh]
	-----------------------------------------------------------

  Dipole Moment: [D]
     X:     2.6089      Y:    -0.3377      Z:    -0.4747     Total:     2.6732

*** Psi4 exiting successfully. Buy a developer a beer!
