                               Psi4 1.3.2 release

  ==> Input File <==

--------------------------------------------------------------------------
#psi4
#
memory 32 gb

molecule  {
0 1
  O        0.0265562     2.2271202    -0.1594439
  O       -2.2585870    -1.3354710    -0.3679860
  O       -2.3909180     0.7817600     0.4224630
  C       -0.2229310    -0.2124960     0.0158460
  C        0.5432600     0.9664360    -0.0570110
  C        0.4335280    -1.4494910     0.0925130
  C        1.9402870     0.8816050    -0.0559020
  C        1.8233140    -1.5265410     0.1016630
  C        2.5770400    -0.3539830     0.0301550
  C       -1.7066960    -0.1573290     0.0554370
  H       -0.1661180    -2.3524960     0.1439440
  H        2.5301710     1.7954230    -0.1182500
  H        2.3148760    -2.4929130     0.1687580
  H        3.6635200    -0.3964420     0.0343940
  H        0.5733460     2.8632860    -0.2381370
  H       -3.2241600    -1.2056690    -0.2641310
units angstrom
no_reorient  #important for SAPT in psi4, default
symmetry c1  #important for SAPT in psi4, default
}

set PROPERTIES_ORIGIN ["COM"]
properties('MP2/aug-cc-pvtz', properties = ['dipole'])
--------------------------------------------------------------------------

    Molecular point group: c1
  Charge       = 0
  Multiplicity = 1
  Basis Set: AUG-CC-PVTZ
    Blend: AUG-CC-PVTZ
  Basis Set: (AUG-CC-PVTZ AUX)
    Blend: AUG-CC-PVTZ-JKFIT

    Orbital Energies [Eh]
    ---------------------

    Doubly Occupied:

       1A    -20.611295     2A    -20.585074     3A    -20.544835
       4A    -11.391191     5A    -11.335244     6A    -11.264544
       7A    -11.264442     8A    -11.261320     9A    -11.247860
      10A    -11.243558    11A     -1.455431    12A     -1.441176
      13A     -1.350400    14A     -1.170745    15A     -1.056372
      16A     -1.029422    17A     -0.902562    18A     -0.872528
      19A     -0.809675    20A     -0.768617    21A     -0.713979
      22A     -0.699080    23A     -0.674280    24A     -0.649319
      25A     -0.628235    26A     -0.626163    27A     -0.598574
      28A     -0.588465    29A     -0.578834    30A     -0.532693
      31A     -0.525081    32A     -0.500110    33A     -0.478125
      34A     -0.448854    35A     -0.362563    36A     -0.333221

  @DF-RHF Final Energy:  -493.33831194350876

   => Energetics <=

    Nuclear Repulsion Energy =            498.5334812497005146
    One-Electron Energy =               -1662.6558477130020037
    Two-Electron Energy =                 670.7840545197926758
    Total Energy =                       -493.3383119435087565
  Basis Set: (AUG-CC-PVTZ AUX)
    Blend: AUG-CC-PVTZ-RI
    Molecular point group: c1

    Geometry (in Angstrom), charge = 0, multiplicity = 1:

       Center              X                  Y                   Z               Mass
    ------------   -----------------  -----------------  -----------------  -----------------
         O            0.052303005063     2.207257799609    -0.161167517625    15.994914619570
         O           -2.232840194937    -1.355333400391    -0.369709617625    15.994914619570
         O           -2.365171194937     0.761897599609     0.420739382375    15.994914619570
         C           -0.197184194937    -0.232358400391     0.014122382375    12.000000000000
         C            0.569006805063     0.946573599609    -0.058734617625    12.000000000000
         C            0.459274805063    -1.469353400391     0.090789382375    12.000000000000
         C            1.966033805063     0.861742599609    -0.057625617625    12.000000000000
         C            1.849060805063    -1.546403400391     0.099939382375    12.000000000000
         C            2.602786805063    -0.373845400391     0.028431382375    12.000000000000
         C           -1.680949194937    -0.177191400391     0.053713382375    12.000000000000
         H           -0.140371194937    -2.372358400391     0.142220382375     1.007825032230
         H            2.555917805063     1.775560599609    -0.119973617625     1.007825032230
         H            2.340622805063    -2.512775400391     0.167034382375     1.007825032230
         H            3.689266805063    -0.416304400391     0.032670382375     1.007825032230
         H            0.599092805063     2.843423599609    -0.239860617625     1.007825032230
         H           -3.198413194937    -1.225531400391    -0.265854617625     1.007825032230

  Basis Set: AUG-CC-PVTZ
    Blend: AUG-CC-PVTZ
  Basis Set: (AUG-CC-PVTZ AUX)
    Blend: AUG-CC-PVTZ-JKFIT
	 Reference Energy          =    -493.3383119435087565 [Eh]
	 Singles Energy            =      -0.0000000000000000 [Eh]
	 Same-Spin Energy          =      -0.5032208351898935 [Eh]
	 Opposite-Spin Energy      =      -1.4997366447909515 [Eh]
	 Correlation Energy        =      -2.0029574799808447 [Eh]
	 Total Energy              =    -495.3412694234896207 [Eh]

	 ================> DF-SCS-MP2 Energies <==================
	-----------------------------------------------------------
	 SCS Same-Spin Scale       =       0.3333333333333333 [-]
	 SCS Opposite-Spin Scale   =       1.2000000000000000 [-]
	 SCS Same-Spin Energy      =      -0.1677402783966311 [Eh]
	 SCS Opposite-Spin Energy  =      -1.7996839737491417 [Eh]
	 SCS Correlation Energy    =      -1.9674242521457728 [Eh]
	 SCS Total Energy          =    -495.3057361956545037 [Eh]
	-----------------------------------------------------------

  Dipole Moment: [D]
     X:     2.5788      Y:    -0.6506      Z:    -0.4630     Total:     2.6996

*** Psi4 exiting successfully. Buy a developer a beer!
