                               Psi4 1.3.2 release

  ==> Input File <==

--------------------------------------------------------------------------
#psi4
#
memory 32 gb

molecule  {
0 1
  O       -0.1027990     2.1661630    -0.1573240
  O       -2.2585870    -1.3354710    -0.3679860
  O       -2.3909180     0.7817600     0.4224630
  C       -0.2229310    -0.2124960     0.0158460
  C        0.4577301     0.9246537    -0.0512034
  C        0.4335280    -1.4494910     0.0925130
  C        1.9402870     0.8816050    -0.0559020
  C        1.8233140    -1.5265410     0.1016630
  C        2.5770400    -0.3539830     0.0301550
  C       -1.7066960    -0.1573290     0.0554370
  H       -0.1661180    -2.3524960     0.1439440
  H        2.5301710     1.7954230    -0.1182500
  H        2.3148760    -2.4929130     0.1687580
  H        3.6635200    -0.3964420     0.0343940
  H        0.5733460     2.8632860    -0.2381370
  H       -3.2241600    -1.2056690    -0.2641310
units angstrom
no_reorient  #important for SAPT in psi4, default
symmetry c1  #important for SAPT in psi4, default
}

set PROPERTIES_ORIGIN ["COM"]
properties('MP2/aug-cc-pvtz', properties = ['dipole'])
--------------------------------------------------------------------------

    Molecular point group: c1
  Charge       = 0
  Multiplicity = 1
  Basis Set: AUG-CC-PVTZ
    Blend: AUG-CC-PVTZ
  Basis Set: (AUG-CC-PVTZ AUX)
    Blend: AUG-CC-PVTZ-JKFIT

    Orbital Energies [Eh]
    ---------------------

    Doubly Occupied:

       1A    -20.610794     2A    -20.600068     3A    -20.544210
       4A    -11.389828     5A    -11.331437     6A    -11.262815
       7A    -11.262074     8A    -11.257616     9A    -11.249251
      10A    -11.242801    11A     -1.454926    12A     -1.411969
      13A     -1.349849    14A     -1.170060    15A     -1.062630
      16A     -1.015331    17A     -0.894589    18A     -0.868732
      19A     -0.797834    20A     -0.749825    21A     -0.710044
      22A     -0.697265    23A     -0.673550    24A     -0.653719
      25A     -0.626898    26A     -0.624571    27A     -0.594944
      28A     -0.585969    29A     -0.577950    30A     -0.534061
      31A     -0.520574    32A     -0.498357    33A     -0.477381
      34A     -0.445494    35A     -0.366976    36A     -0.328861

  @DF-RHF Final Energy:  -493.34310614898851

   => Energetics <=

    Nuclear Repulsion Energy =            499.6600598796221675
    One-Electron Energy =               -1665.1198272242415896
    Two-Electron Energy =                 672.1166611956309680
    Total Energy =                       -493.3431061489884542
  Basis Set: (AUG-CC-PVTZ AUX)
    Blend: AUG-CC-PVTZ-RI
    Molecular point group: c1

    Geometry (in Angstrom), charge = 0, multiplicity = 1:

       Center              X                  Y                   Z               Mass
    ------------   -----------------  -----------------  -----------------  -----------------
         O           -0.054627025117     2.156996641700    -0.159798161333    15.994914619570
         O           -2.210415025117    -1.344637358300    -0.370460161333    15.994914619570
         O           -2.342746025117     0.772593641700     0.419988838667    15.994914619570
         C           -0.174759025117    -0.221662358300     0.013371838667    12.000000000000
         C            0.505902074883     0.915487341700    -0.053677561333    12.000000000000
         C            0.481699974883    -1.458657358300     0.090038838667    12.000000000000
         C            1.988458974883     0.872438641700    -0.058376161333    12.000000000000
         C            1.871485974883    -1.535707358300     0.099188838667    12.000000000000
         C            2.625211974883    -0.363149358300     0.027680838667    12.000000000000
         C           -1.658524025117    -0.166495358300     0.052962838667    12.000000000000
         H           -0.117946025117    -2.361662358300     0.141469838667     1.007825032230
         H            2.578342974883     1.786256641700    -0.120724161333     1.007825032230
         H            2.363047974883    -2.502079358300     0.166283838667     1.007825032230
         H            3.711691974883    -0.405608358300     0.031919838667     1.007825032230
         H            0.621517974883     2.854119641700    -0.240611161333     1.007825032230
         H           -3.175988025117    -1.214835358300    -0.266605161333     1.007825032230

  Basis Set: AUG-CC-PVTZ
    Blend: AUG-CC-PVTZ
  Basis Set: (AUG-CC-PVTZ AUX)
    Blend: AUG-CC-PVTZ-JKFIT
	 Reference Energy          =    -493.3431061489885110 [Eh]
	 Singles Energy            =      -0.0000000000000000 [Eh]
	 Same-Spin Energy          =      -0.5048152531977170 [Eh]
	 Opposite-Spin Energy      =      -1.5044898708588361 [Eh]
	 Correlation Energy        =      -2.0093051240565529 [Eh]
	 Total Energy              =    -495.3524112730450497 [Eh]

	 ================> DF-SCS-MP2 Energies <==================
	-----------------------------------------------------------
	 SCS Same-Spin Scale       =       0.3333333333333333 [-]
	 SCS Opposite-Spin Scale   =       1.2000000000000000 [-]
	 SCS Same-Spin Energy      =      -0.1682717510659057 [Eh]
	 SCS Opposite-Spin Energy  =      -1.8053878450306033 [Eh]
	 SCS Correlation Energy    =      -1.9736595960965091 [Eh]
	 SCS Total Energy          =    -495.3167657450850356 [Eh]
	-----------------------------------------------------------

  Dipole Moment: [D]
     X:     2.6113      Y:    -0.4864      Z:    -0.4579     Total:     2.6954

*** Psi4 exiting successfully. Buy a developer a beer!
