                               Psi4 1.3.2 release

  ==> Input File <==

--------------------------------------------------------------------------
#psi4
#
memory 32 gb

molecule  {
0 1
  O       -0.1027990     2.1661630    -0.1573240
  O       -2.3019383    -1.3168463    -0.3606105
  O       -2.3909180     0.7817600     0.4224630
  C       -0.2229310    -0.2124960     0.0158460
  C        0.5432600     0.9664360    -0.0570110
  C        0.4335280    -1.4494910     0.0925130
  C        1.9402870     0.8816050    -0.0559020
  C        1.8233140    -1.5265410     0.1016630
  C        2.5770400    -0.3539830     0.0301550
  C       -1.7066960    -0.1573290     0.0554370
  H       -0.1661180    -2.3524960     0.1439440
  H        2.5301710     1.7954230    -0.1182500
  H        2.3148760    -2.4929130     0.1687580
  H        3.6635200    -0.3964420     0.0343940
  H        0.5733460     2.8632860    -0.2381370
  H       -3.2241600    -1.2056690    -0.2641310
units angstrom
no_reorient  #important for SAPT in psi4, default
symmetry c1  #important for SAPT in psi4, default
}

set PROPERTIES_ORIGIN ["COM"]
properties('MP2/aug-cc-pvtz', properties = ['dipole'])
--------------------------------------------------------------------------

    Molecular point group: c1
  Charge       = 0
  Multiplicity = 1
  Basis Set: AUG-CC-PVTZ
    Blend: AUG-CC-PVTZ
  Basis Set: (AUG-CC-PVTZ AUX)
    Blend: AUG-CC-PVTZ-JKFIT

    Orbital Energies [Eh]
    ---------------------

    Doubly Occupied:

       1A    -20.603311     2A    -20.603249     3A    -20.540370
       4A    -11.389195     5A    -11.332346     6A    -11.266655
       7A    -11.264223     8A    -11.258619     9A    -11.250812
      10A    -11.243491    11A     -1.458166    12A     -1.415976
      13A     -1.348557    14A     -1.168663    15A     -1.056674
      16A     -1.023949    17A     -0.901889    18A     -0.863489
      19A     -0.807358    20A     -0.746584    21A     -0.714870
      22A     -0.696714    23A     -0.677083    24A     -0.644734
      25A     -0.625157    26A     -0.624176    27A     -0.596999
      28A     -0.590737    29A     -0.580117    30A     -0.537225
      31A     -0.524438    32A     -0.499528    33A     -0.474958
      34A     -0.445786    35A     -0.362904    36A     -0.332939

  @DF-RHF Final Energy:  -493.35513640955725

   => Energetics <=

    Nuclear Repulsion Energy =            498.8240936469637745
    One-Electron Energy =               -1663.4145726214799197
    Two-Electron Energy =                 671.2353425649589553
    Total Energy =                       -493.3551364095571898
  Basis Set: (AUG-CC-PVTZ AUX)
    Blend: AUG-CC-PVTZ-RI
    Molecular point group: c1

    Geometry (in Angstrom), charge = 0, multiplicity = 1:

       Center              X                  Y                   Z               Mass
    ------------   -----------------  -----------------  -----------------  -----------------
         O           -0.057039213565     2.151206028959    -0.160147930950    15.994914619570
         O           -2.256178513565    -1.331803271041    -0.363434430950    15.994914619570
         O           -2.345158213565     0.766803028959     0.419639069050    15.994914619570
         C           -0.177171213565    -0.227452971041     0.013022069050    12.000000000000
         C            0.589019786435     0.951479028959    -0.059834930950    12.000000000000
         C            0.479287786435    -1.464447971041     0.089689069050    12.000000000000
         C            1.986046786435     0.866648028959    -0.058725930950    12.000000000000
         C            1.869073786435    -1.541497971041     0.098839069050    12.000000000000
         C            2.622799786435    -0.368939971041     0.027331069050    12.000000000000
         C           -1.660936213565    -0.172285971041     0.052613069050    12.000000000000
         H           -0.120358213565    -2.367452971041     0.141120069050     1.007825032230
         H            2.575930786435     1.780466028959    -0.121073930950     1.007825032230
         H            2.360635786435    -2.507869971041     0.165934069050     1.007825032230
         H            3.709279786435    -0.411398971041     0.031570069050     1.007825032230
         H            0.619105786435     2.848329028959    -0.240960930950     1.007825032230
         H           -3.178400213565    -1.220625971041    -0.266954930950     1.007825032230

  Basis Set: AUG-CC-PVTZ
    Blend: AUG-CC-PVTZ
  Basis Set: (AUG-CC-PVTZ AUX)
    Blend: AUG-CC-PVTZ-JKFIT
	 Reference Energy          =    -493.3551364095572467 [Eh]
	 Singles Energy            =      -0.0000000000000000 [Eh]
	 Same-Spin Energy          =      -0.5043991568435771 [Eh]
	 Opposite-Spin Energy      =      -1.5025102427986941 [Eh]
	 Correlation Energy        =      -2.0069093996422711 [Eh]
	 Total Energy              =    -495.3620458091995147 [Eh]

	 ================> DF-SCS-MP2 Energies <==================
	-----------------------------------------------------------
	 SCS Same-Spin Scale       =       0.3333333333333333 [-]
	 SCS Opposite-Spin Scale   =       1.2000000000000000 [-]
	 SCS Same-Spin Energy      =      -0.1681330522811924 [Eh]
	 SCS Opposite-Spin Energy  =      -1.8030122913584328 [Eh]
	 SCS Correlation Energy    =      -1.9711453436396251 [Eh]
	 SCS Total Energy          =    -495.3262817531968949 [Eh]
	-----------------------------------------------------------

  Dipole Moment: [D]
     X:     2.7821      Y:    -0.4644      Z:    -0.4612     Total:     2.8581

*** Psi4 exiting successfully. Buy a developer a beer!
