                               Psi4 1.4a3.dev225

  ==> Input File <==

--------------------------------------------------------------------------
#psi4
#
memory 32 gb

molecule  {
0 1
  O       -0.1026610     2.1662260    -0.1575610
  O       -2.2584930    -1.3355120    -0.3678820
  O       -2.3910220     0.7817980     0.4224010
  C       -0.2229580    -0.2124560     0.0160270
  C        0.5527363     0.9488887    -0.0556142
  C        0.4334420    -1.4495130     0.0922690
  C        1.9403100     0.8815900    -0.0555280
  C        1.8232300    -1.5265840     0.1016960
  C        2.5770020    -0.3540720     0.0300640
  C       -1.7067020    -0.1572630     0.0555130
  H       -0.1662180    -2.3524950     0.1438230
  H        2.5302810     1.7953260    -0.1182260
  H        2.3147800    -2.4929990     0.1682820
  H        3.6634790    -0.3965710     0.0346780
  H        0.5735000     2.8633950    -0.2378390
  H       -3.2240480    -1.2056750    -0.2641070
units angstrom
no_reorient  #important for SAPT in psi4, default
symmetry c1  #important for SAPT in psi4, default
}

set PROPERTIES_ORIGIN ["COM"]
properties('MP2/aug-cc-pvtz', properties = ['dipole'])
--------------------------------------------------------------------------

    Molecular point group: c1
  Charge       = 0
  Multiplicity = 1
  Basis Set: AUG-CC-PVTZ
    Blend: AUG-CC-PVTZ
  Basis Set: (AUG-CC-PVTZ AUX)
    Blend: AUG-CC-PVTZ-JKFIT

    Orbital Energies [Eh]
    ---------------------

    Doubly Occupied:

       1A    -20.610455     2A    -20.598501     3A    -20.543271
       4A    -11.390220     5A    -11.328860     6A    -11.266155
       7A    -11.263465     8A    -11.256932     9A    -11.249856
      10A    -11.243666    11A     -1.454053    12A     -1.404603
      13A     -1.348808    14A     -1.170085    15A     -1.056720
      16A     -1.024700    17A     -0.898875    18A     -0.861084
      19A     -0.801869    20A     -0.742502    21A     -0.708073
      22A     -0.698152    23A     -0.674875    24A     -0.644784
      25A     -0.625453    26A     -0.623061    27A     -0.592373
      28A     -0.589381    29A     -0.578935    30A     -0.536146
      31A     -0.525712    32A     -0.498835    33A     -0.476853
      34A     -0.447291    35A     -0.362613    36A     -0.334849

  @DF-RHF Final Energy:  -493.35299692852897

   => Energetics <=

    Nuclear Repulsion Energy =            499.0381586343193590
    One-Electron Energy =               -1663.9181775571169055
    Two-Electron Energy =                 671.5270219942685799
    Total Energy =                       -493.3529969285289098
  Basis Set: (AUG-CC-PVTZ AUX)
    Blend: AUG-CC-PVTZ-RI
    Molecular point group: c1

    Geometry (in Angstrom), charge = 0, multiplicity = 1:

       Center              X                  Y                   Z               Mass
    ------------   -----------------  -----------------  -----------------  -----------------
         O           -0.062745432057     2.154952777264    -0.159657948328    15.994914619570
         O           -2.218577432057    -1.346785222736    -0.369978948328    15.994914619570
         O           -2.351106432057     0.770524777264     0.420304051672    15.994914619570
         C           -0.183042432057    -0.223729222736     0.013930051672    12.000000000000
         C            0.592651867943     0.937615477264    -0.057711148328    12.000000000000
         C            0.473357567943    -1.460786222736     0.090172051672    12.000000000000
         C            1.980225567943     0.870316777264    -0.057624948328    12.000000000000
         C            1.863145567943    -1.537857222736     0.099599051672    12.000000000000
         C            2.616917567943    -0.365345222736     0.027967051672    12.000000000000
         C           -1.666786432057    -0.168536222736     0.053416051672    12.000000000000
         H           -0.126302432057    -2.363768222736     0.141726051672     1.007825032230
         H            2.570196567943     1.784052777264    -0.120322948328     1.007825032230
         H            2.354695567943    -2.504272222736     0.166185051672     1.007825032230
         H            3.703394567943    -0.407844222736     0.032581051672     1.007825032230
         H            0.613415567943     2.852121777264    -0.239935948328     1.007825032230
         H           -3.184132432057    -1.216948222736    -0.266203948328     1.007825032230

  Basis Set: AUG-CC-PVTZ
    Blend: AUG-CC-PVTZ
  Basis Set: (AUG-CC-PVTZ AUX)
    Blend: AUG-CC-PVTZ-JKFIT
	 Reference Energy          =    -493.3529969285289667 [Eh]
	 Singles Energy            =      -0.0000000000000000 [Eh]
	 Same-Spin Energy          =      -0.5053780626654607 [Eh]
	 Opposite-Spin Energy      =      -1.5047366848959391 [Eh]
	 Correlation Energy        =      -2.0101147475614001 [Eh]
	 Total Energy              =    -495.3631116760903410 [Eh]

	 ================> DF-SCS-MP2 Energies <==================
	-----------------------------------------------------------
	 SCS Same-Spin Scale       =       0.3333333333333333 [-]
	 SCS Opposite-Spin Scale   =       1.2000000000000000 [-]
	 SCS Same-Spin Energy      =      -0.1684593542218202 [Eh]
	 SCS Opposite-Spin Energy  =      -1.8056840218751269 [Eh]
	 SCS Correlation Energy    =      -1.9741433760969471 [Eh]
	 SCS Total Energy          =    -495.3271403046259138 [Eh]
	-----------------------------------------------------------

  Dipole Moment: [D]
     X:     2.6922      Y:    -0.5939      Z:    -0.4502     Total:     2.7935

*** Psi4 exiting successfully. Buy a developer a beer!
