                               Psi4 1.3.2 release

  ==> Input File <==

--------------------------------------------------------------------------
#psi4
#
memory 32 gb

molecule  {
0 1
  O       -0.1027990     2.1661630    -0.1573240
  O       -2.2585870    -1.3354710    -0.3679860
  O       -2.3909180     0.7817600     0.4224630
  C       -0.2229310    -0.2124960     0.0158460
  C        0.5641666     0.9778034    -0.0585404
  C        0.4335280    -1.4494910     0.0925130
  C        1.9402870     0.8816050    -0.0559020
  C        1.8233140    -1.5265410     0.1016630
  C        2.5770400    -0.3539830     0.0301550
  C       -1.7066960    -0.1573290     0.0554370
  H       -0.1661180    -2.3524960     0.1439440
  H        2.5301710     1.7954230    -0.1182500
  H        2.3148760    -2.4929130     0.1687580
  H        3.6635200    -0.3964420     0.0343940
  H        0.5733460     2.8632860    -0.2381370
  H       -3.2241600    -1.2056690    -0.2641310
units angstrom
no_reorient  #important for SAPT in psi4, default
symmetry c1  #important for SAPT in psi4, default
}

set PROPERTIES_ORIGIN ["COM"]
properties('MP2/aug-cc-pvtz', properties = ['dipole'])
--------------------------------------------------------------------------

    Molecular point group: c1
  Charge       = 0
  Multiplicity = 1
  Basis Set: AUG-CC-PVTZ
    Blend: AUG-CC-PVTZ
  Basis Set: (AUG-CC-PVTZ AUX)
    Blend: AUG-CC-PVTZ-JKFIT

    Orbital Energies [Eh]
    ---------------------

    Doubly Occupied:

       1A    -20.609549     2A    -20.603283     3A    -20.542376
       4A    -11.389170     5A    -11.330474     6A    -11.266284
       7A    -11.263064     8A    -11.258199     9A    -11.247688
      10A    -11.242702    11A     -1.453260    12A     -1.415937
      13A     -1.348109    14A     -1.167243    15A     -1.054095
      16A     -1.024475    17A     -0.898784    18A     -0.859545
      19A     -0.802154    20A     -0.744907    21A     -0.709049
      22A     -0.697806    23A     -0.676658    24A     -0.641797
      25A     -0.625283    26A     -0.622954    27A     -0.596696
      28A     -0.589699    29A     -0.580532    30A     -0.539309
      31A     -0.521528    32A     -0.498541    33A     -0.476286
      34A     -0.446680    35A     -0.361844    36A     -0.332188

  @DF-RHF Final Energy:  -493.35287388920716

   => Energetics <=

    Nuclear Repulsion Energy =            498.8109501257379179
    One-Electron Energy =               -1663.4513477973666795
    Two-Electron Energy =                 671.2875237824216583
    Total Energy =                       -493.3528738892071033
  Basis Set: (AUG-CC-PVTZ AUX)
    Blend: AUG-CC-PVTZ-RI
    Molecular point group: c1

    Geometry (in Angstrom), charge = 0, multiplicity = 1:

       Center              X                  Y                   Z               Mass
    ------------   -----------------  -----------------  -----------------  -----------------
         O           -0.063880247783     2.152375989868    -0.159160307827    15.994914619570
         O           -2.219668247783    -1.349258010132    -0.369822307827    15.994914619570
         O           -2.351999247783     0.767972989868     0.420626692173    15.994914619570
         C           -0.184012247783    -0.226283010132     0.014009692173    12.000000000000
         C            0.603085352217     0.964016389868    -0.060376707827    12.000000000000
         C            0.472446752217    -1.463278010132     0.090676692173    12.000000000000
         C            1.979205752217     0.867817989868    -0.057738307827    12.000000000000
         C            1.862232752217    -1.540328010132     0.099826692173    12.000000000000
         C            2.615958752217    -0.367770010132     0.028318692173    12.000000000000
         C           -1.667777247783    -0.171116010132     0.053600692173    12.000000000000
         H           -0.127199247783    -2.366283010132     0.142107692173     1.007825032230
         H            2.569089752217     1.781635989868    -0.120086307827     1.007825032230
         H            2.353794752217    -2.506700010132     0.166921692173     1.007825032230
         H            3.702438752217    -0.410229010132     0.032557692173     1.007825032230
         H            0.612264752217     2.849498989868    -0.239973307827     1.007825032230
         H           -3.185241247783    -1.219456010132    -0.265967307827     1.007825032230

  Basis Set: AUG-CC-PVTZ
    Blend: AUG-CC-PVTZ
  Basis Set: (AUG-CC-PVTZ AUX)
    Blend: AUG-CC-PVTZ-JKFIT
	 Reference Energy          =    -493.3528738892071601 [Eh]
	 Singles Energy            =      -0.0000000000000000 [Eh]
	 Same-Spin Energy          =      -0.5054041506029641 [Eh]
	 Opposite-Spin Energy      =      -1.5045726953039580 [Eh]
	 Correlation Energy        =      -2.0099768459069223 [Eh]
	 Total Energy              =    -495.3628507351140797 [Eh]

	 ================> DF-SCS-MP2 Energies <==================
	-----------------------------------------------------------
	 SCS Same-Spin Scale       =       0.3333333333333333 [-]
	 SCS Opposite-Spin Scale   =       1.2000000000000000 [-]
	 SCS Same-Spin Energy      =      -0.1684680502009880 [Eh]
	 SCS Opposite-Spin Energy  =      -1.8054872343647494 [Eh]
	 SCS Correlation Energy    =      -1.9739552845657375 [Eh]
	 SCS Total Energy          =    -495.3268291737729214 [Eh]
	-----------------------------------------------------------

  Dipole Moment: [D]
     X:     2.6623      Y:    -0.4691      Z:    -0.4634     Total:     2.7427

*** Psi4 exiting successfully. Buy a developer a beer!
