                               Psi4 1.3.2 release

  ==> Input File <==

--------------------------------------------------------------------------
#psi4
#
memory 32 gb

molecule  {
0 1
  O       -0.1027990     2.1661630    -0.1573240
  O       -2.2585870    -1.3354710    -0.3679860
  O       -2.3909180     0.7817600     0.4224630
  C       -0.2229310    -0.2124960     0.0158460
  C        0.5848701     0.9895329    -0.0600999
  C        0.4335280    -1.4494910     0.0925130
  C        1.9402870     0.8816050    -0.0559020
  C        1.8233140    -1.5265410     0.1016630
  C        2.5770400    -0.3539830     0.0301550
  C       -1.7066960    -0.1573290     0.0554370
  H       -0.1661180    -2.3524960     0.1439440
  H        2.5301710     1.7954230    -0.1182500
  H        2.3148760    -2.4929130     0.1687580
  H        3.6635200    -0.3964420     0.0343940
  H        0.5733460     2.8632860    -0.2381370
  H       -3.2241600    -1.2056690    -0.2641310
units angstrom
no_reorient  #important for SAPT in psi4, default
symmetry c1  #important for SAPT in psi4, default
}

set PROPERTIES_ORIGIN ["COM"]
properties('MP2/aug-cc-pvtz', properties = ['dipole'])
--------------------------------------------------------------------------

    Molecular point group: c1
  Charge       = 0
  Multiplicity = 1
  Basis Set: AUG-CC-PVTZ
    Blend: AUG-CC-PVTZ
  Basis Set: (AUG-CC-PVTZ AUX)
    Blend: AUG-CC-PVTZ-JKFIT

    Orbital Energies [Eh]
    ---------------------

    Doubly Occupied:

       1A    -20.609294     2A    -20.603882     3A    -20.542038
       4A    -11.389026     5A    -11.329782     6A    -11.266853
       7A    -11.263184     8A    -11.259716     9A    -11.245453
      10A    -11.242913    11A     -1.452940    12A     -1.416649
      13A     -1.347784    14A     -1.167211    15A     -1.053696
      16A     -1.025655    17A     -0.899796    18A     -0.857163
      19A     -0.803077    20A     -0.743912    21A     -0.709236
      22A     -0.697748    23A     -0.677214    24A     -0.639644
      25A     -0.625268    26A     -0.622332    27A     -0.597202
      28A     -0.590275    29A     -0.580715    30A     -0.541492
      31A     -0.518973    32A     -0.498607    33A     -0.476064
      34A     -0.446682    35A     -0.362443    36A     -0.332048

  @DF-RHF Final Energy:  -493.35051690825958

   => Energetics <=

    Nuclear Repulsion Energy =            498.6553837588201645
    One-Electron Energy =               -1663.1398697326794718
    Two-Electron Energy =                 671.1339690655997856
    Total Energy =                       -493.3505169082595785
  Basis Set: (AUG-CC-PVTZ AUX)
    Blend: AUG-CC-PVTZ-RI
    Molecular point group: c1

    Geometry (in Angstrom), charge = 0, multiplicity = 1:

       Center              X                  Y                   Z               Mass
    ------------   -----------------  -----------------  -----------------  -----------------
         O           -0.065680138755     2.151356267543    -0.159024730269    15.994914619570
         O           -2.221468138755    -1.350277732457    -0.369686730269    15.994914619570
         O           -2.353799138755     0.766953267543     0.420762269731    15.994914619570
         C           -0.185812138755    -0.227302732457     0.014145269731    12.000000000000
         C            0.621988961245     0.974726167543    -0.061800630269    12.000000000000
         C            0.470646861245    -1.464297732457     0.090812269731    12.000000000000
         C            1.977405861245     0.866798267543    -0.057602730269    12.000000000000
         C            1.860432861245    -1.541347732457     0.099962269731    12.000000000000
         C            2.614158861245    -0.368789732457     0.028454269731    12.000000000000
         C           -1.669577138755    -0.172135732457     0.053736269731    12.000000000000
         H           -0.128999138755    -2.367302732457     0.142243269731     1.007825032230
         H            2.567289861245     1.780616267543    -0.119950730269     1.007825032230
         H            2.351994861245    -2.507719732457     0.167057269731     1.007825032230
         H            3.700638861245    -0.411248732457     0.032693269731     1.007825032230
         H            0.610464861245     2.848479267543    -0.239837730269     1.007825032230
         H           -3.187041138755    -1.220475732457    -0.265831730269     1.007825032230

  Basis Set: AUG-CC-PVTZ
    Blend: AUG-CC-PVTZ
  Basis Set: (AUG-CC-PVTZ AUX)
    Blend: AUG-CC-PVTZ-JKFIT
	 Reference Energy          =    -493.3505169082595785 [Eh]
	 Singles Energy            =      -0.0000000000000000 [Eh]
	 Same-Spin Energy          =      -0.5054263566548584 [Eh]
	 Opposite-Spin Energy      =      -1.5047738441152099 [Eh]
	 Correlation Energy        =      -2.0102002007700683 [Eh]
	 Total Energy              =    -495.3607171090296220 [Eh]

	 ================> DF-SCS-MP2 Energies <==================
	-----------------------------------------------------------
	 SCS Same-Spin Scale       =       0.3333333333333333 [-]
	 SCS Opposite-Spin Scale   =       1.2000000000000000 [-]
	 SCS Same-Spin Energy      =      -0.1684754522182861 [Eh]
	 SCS Opposite-Spin Energy  =      -1.8057286129382517 [Eh]
	 SCS Correlation Energy    =      -1.9742040651565378 [Eh]
	 SCS Total Energy          =    -495.3247209734161061 [Eh]
	-----------------------------------------------------------

  Dipole Moment: [D]
     X:     2.6700      Y:    -0.4668      Z:    -0.4644     Total:     2.7500

*** Psi4 exiting successfully. Buy a developer a beer!
