                               Psi4 1.3.2 release

  ==> Input File <==

--------------------------------------------------------------------------
#psi4
#
memory 32 gb

molecule  {
0 1
  O       -0.1027990     2.1661630    -0.1573240
  O       -2.2585870    -1.3354710    -0.3679860
  O       -2.3909180     0.7817600     0.4224630
  C       -0.2229310    -0.2124960     0.0158460
  C        0.6378300     0.7908202    -0.0423272
  C        0.4335280    -1.4494910     0.0925130
  C        1.9402870     0.8816050    -0.0559020
  C        1.8233140    -1.5265410     0.1016630
  C        2.5770400    -0.3539830     0.0301550
  C       -1.7066960    -0.1573290     0.0554370
  H       -0.1661180    -2.3524960     0.1439440
  H        2.5301710     1.7954230    -0.1182500
  H        2.3148760    -2.4929130     0.1687580
  H        3.6635200    -0.3964420     0.0343940
  H        0.5733460     2.8632860    -0.2381370
  H       -3.2241600    -1.2056690    -0.2641310
units angstrom
no_reorient  #important for SAPT in psi4, default
symmetry c1  #important for SAPT in psi4, default
}

set PROPERTIES_ORIGIN ["COM"]
properties('MP2/aug-cc-pvtz', properties = ['dipole'])
--------------------------------------------------------------------------

    Molecular point group: c1
  Charge       = 0
  Multiplicity = 1
  Basis Set: AUG-CC-PVTZ
    Blend: AUG-CC-PVTZ
  Basis Set: (AUG-CC-PVTZ AUX)
    Blend: AUG-CC-PVTZ-JKFIT

    Orbital Energies [Eh]
    ---------------------

    Doubly Occupied:

       1A    -20.616001     2A    -20.563142     3A    -20.547625
       4A    -11.398126     5A    -11.316550     6A    -11.271460
       7A    -11.269132     8A    -11.260244     9A    -11.251229
      10A    -11.250213    11A     -1.458602    12A     -1.353765
      13A     -1.327204    14A     -1.195176    15A     -1.074521
      16A     -1.037432    17A     -0.907753    18A     -0.866217
      19A     -0.808487    20A     -0.736261    21A     -0.703495
      22A     -0.689277    23A     -0.669892    24A     -0.657811
      25A     -0.628279    26A     -0.614722    27A     -0.598660
      28A     -0.570232    29A     -0.566885    30A     -0.543570
      31A     -0.502572    32A     -0.489731    33A     -0.479101
      34A     -0.449905    35A     -0.370723    36A     -0.356686

  @DF-RHF Final Energy:  -493.30771301996708

   => Energetics <=

    Nuclear Repulsion Energy =            499.9384167681674285
    One-Electron Energy =               -1665.6908967296374158
    Two-Electron Energy =                 672.4447669415029623
    Total Energy =                       -493.3077130199670819
  Basis Set: (AUG-CC-PVTZ AUX)
    Blend: AUG-CC-PVTZ-RI
    Molecular point group: c1

    Geometry (in Angstrom), charge = 0, multiplicity = 1:

       Center              X                  Y                   Z               Mass
    ------------   -----------------  -----------------  -----------------  -----------------
         O           -0.070284290029     2.168631665171    -0.160569827585    15.994914619570
         O           -2.226072290029    -1.333002334829    -0.371231827585    15.994914619570
         O           -2.358403290029     0.784228665171     0.419217172415    15.994914619570
         C           -0.190416290029    -0.210027334829     0.012600172415    12.000000000000
         C            0.670344709971     0.793288865171    -0.045573027585    12.000000000000
         C            0.466042709971    -1.447022334829     0.089267172415    12.000000000000
         C            1.972801709971     0.884073665171    -0.059147827585    12.000000000000
         C            1.855828709971    -1.524072334829     0.098417172415    12.000000000000
         C            2.609554709971    -0.351514334829     0.026909172415    12.000000000000
         C           -1.674181290029    -0.154860334829     0.052191172415    12.000000000000
         H           -0.133603290029    -2.350027334829     0.140698172415     1.007825032230
         H            2.562685709971     1.797891665171    -0.121495827585     1.007825032230
         H            2.347390709971    -2.490444334829     0.165512172415     1.007825032230
         H            3.696034709971    -0.393973334829     0.031148172415     1.007825032230
         H            0.605860709971     2.865754665171    -0.241382827585     1.007825032230
         H           -3.191645290029    -1.203200334829    -0.267376827585     1.007825032230

  Basis Set: AUG-CC-PVTZ
    Blend: AUG-CC-PVTZ
  Basis Set: (AUG-CC-PVTZ AUX)
    Blend: AUG-CC-PVTZ-JKFIT
	 Reference Energy          =    -493.3077130199670819 [Eh]
	 Singles Energy            =      -0.0000000000000000 [Eh]
	 Same-Spin Energy          =      -0.5068749989398731 [Eh]
	 Opposite-Spin Energy      =      -1.5095646091351131 [Eh]
	 Correlation Energy        =      -2.0164396080749860 [Eh]
	 Total Energy              =    -495.3241526280420430 [Eh]

	 ================> DF-SCS-MP2 Energies <==================
	-----------------------------------------------------------
	 SCS Same-Spin Scale       =       0.3333333333333333 [-]
	 SCS Opposite-Spin Scale   =       1.2000000000000000 [-]
	 SCS Same-Spin Energy      =      -0.1689583329799577 [Eh]
	 SCS Opposite-Spin Energy  =      -1.8114775309621356 [Eh]
	 SCS Correlation Energy    =      -1.9804358639420934 [Eh]
	 SCS Total Energy          =    -495.2881488839091730 [Eh]
	-----------------------------------------------------------

  Dipole Moment: [D]
     X:     2.9825      Y:    -1.5832      Z:    -0.3557     Total:     3.3954

*** Psi4 exiting successfully. Buy a developer a beer!
