                               Psi4 1.3.2 release

  ==> Input File <==

--------------------------------------------------------------------------
#psi4
#
memory 32 gb

molecule  {
0 1
  O       -0.1027990     2.1661630    -0.1573240
  O       -2.2585870    -1.3354710    -0.3679860
  O       -2.3909180     0.7817600     0.4224630
  C       -0.2229310    -0.2124960     0.0158460
  C        0.5432600     0.9664360    -0.0570110
  C        0.4335280    -1.4494910     0.0925130
  C        1.9402870     0.8816050    -0.0559020
  C        1.8233140    -1.5265410     0.1016630
  C        2.5770400    -0.3539830     0.0301550
  C       -1.9064869    -0.1499007     0.0607680
  H       -0.1661180    -2.3524960     0.1439440
  H        2.5301710     1.7954230    -0.1182500
  H        2.3148760    -2.4929130     0.1687580
  H        3.6635200    -0.3964420     0.0343940
  H        0.5733460     2.8632860    -0.2381370
  H       -3.2241600    -1.2056690    -0.2641310
units angstrom
no_reorient  #important for SAPT in psi4, default
symmetry c1  #important for SAPT in psi4, default
}

set PROPERTIES_ORIGIN ["COM"]
properties('MP2/aug-cc-pvtz', properties = ['dipole'])
--------------------------------------------------------------------------

    Molecular point group: c1
  Charge       = 0
  Multiplicity = 1
  Basis Set: AUG-CC-PVTZ
    Blend: AUG-CC-PVTZ
  Basis Set: (AUG-CC-PVTZ AUX)
    Blend: AUG-CC-PVTZ-JKFIT

    Orbital Energies [Eh]
    ---------------------

    Doubly Occupied:

       1A    -20.637156     2A    -20.591497     3A    -20.566292
       4A    -11.393850     5A    -11.311454     6A    -11.247976
       7A    -11.244750     8A    -11.243471     9A    -11.237494
      10A    -11.230180    11A     -1.518093    12A     -1.435313
      13A     -1.403708    14A     -1.148285    15A     -1.024851
      16A     -1.006425    17A     -0.873418    18A     -0.846144
      19A     -0.801571    20A     -0.747734    21A     -0.725067
      22A     -0.714171    23A     -0.677384    24A     -0.662661
      25A     -0.651078    26A     -0.610981    27A     -0.591949
      28A     -0.585915    29A     -0.574981    30A     -0.535564
      31A     -0.526232    32A     -0.510193    33A     -0.484142
      34A     -0.423514    35A     -0.345017    36A     -0.317451

  @DF-RHF Final Energy:  -493.31409300363032

   => Energetics <=

    Nuclear Repulsion Energy =            498.2944879577326560
    One-Electron Energy =               -1662.3252354589023980
    Two-Electron Energy =                 670.7166544975394800
    Total Energy =                       -493.3140930036303189
  Basis Set: (AUG-CC-PVTZ AUX)
    Blend: AUG-CC-PVTZ-RI
    Molecular point group: c1

    Geometry (in Angstrom), charge = 0, multiplicity = 1:

       Center              X                  Y                   Z               Mass
    ------------   -----------------  -----------------  -----------------  -----------------
         O           -0.044693567375     2.152718441653    -0.159756727371    15.994914619570
         O           -2.200481567375    -1.348915558347    -0.370418727371    15.994914619570
         O           -2.332812567375     0.768315441653     0.420030272629    15.994914619570
         C           -0.164825567375    -0.225940558347     0.013413272629    12.000000000000
         C            0.601365432625     0.952991441653    -0.059443727371    12.000000000000
         C            0.491633432625    -1.462935558347     0.090080272629    12.000000000000
         C            1.998392432625     0.868160441653    -0.058334727371    12.000000000000
         C            1.881419432625    -1.539985558347     0.099230272629    12.000000000000
         C            2.635145432625    -0.367427558347     0.027722272629    12.000000000000
         C           -1.848381467375    -0.163345258347     0.058335272629    12.000000000000
         H           -0.108012567375    -2.365940558347     0.141511272629     1.007825032230
         H            2.588276432625     1.781978441653    -0.120682727371     1.007825032230
         H            2.372981432625    -2.506357558347     0.166325272629     1.007825032230
         H            3.721625432625    -0.409886558347     0.031961272629     1.007825032230
         H            0.631451432625     2.849841441653    -0.240569727371     1.007825032230
         H           -3.166054567375    -1.219113558347    -0.266563727371     1.007825032230

  Basis Set: AUG-CC-PVTZ
    Blend: AUG-CC-PVTZ
  Basis Set: (AUG-CC-PVTZ AUX)
    Blend: AUG-CC-PVTZ-JKFIT
	 Reference Energy          =    -493.3140930036303189 [Eh]
	 Singles Energy            =      -0.0000000000000000 [Eh]
	 Same-Spin Energy          =      -0.5039915563939461 [Eh]
	 Opposite-Spin Energy      =      -1.5007186978584901 [Eh]
	 Correlation Energy        =      -2.0047102542524362 [Eh]
	 Total Energy              =    -495.3188032578827347 [Eh]

	 ================> DF-SCS-MP2 Energies <==================
	-----------------------------------------------------------
	 SCS Same-Spin Scale       =       0.3333333333333333 [-]
	 SCS Opposite-Spin Scale   =       1.2000000000000000 [-]
	 SCS Same-Spin Energy      =      -0.1679971854646487 [Eh]
	 SCS Opposite-Spin Energy  =      -1.8008624374301880 [Eh]
	 SCS Correlation Energy    =      -1.9688596228948367 [Eh]
	 SCS Total Energy          =    -495.2829526265251729 [Eh]
	-----------------------------------------------------------

  Dipole Moment: [D]
     X:     0.7505      Y:    -0.5004      Z:    -0.4203     Total:     0.9951

*** Psi4 exiting successfully. Buy a developer a beer!
