                               Psi4 1.4a3.dev225

  ==> Input File <==

--------------------------------------------------------------------------
#psi4
#
memory 32 gb

molecule  {
0 1
  O       -0.1026610     2.1662260    -0.1575610
  O       -2.2584930    -1.3355120    -0.3678820
  O       -2.3910220     0.7817980     0.4224010
  C       -0.2229580    -0.2124560     0.0160270
  C        0.5432810     0.9664510    -0.0570850
  C        0.4334420    -1.4495130     0.0922690
  C        1.9403100     0.8815900    -0.0555280
  C        1.8232300    -1.5265840     0.1016960
  C        2.5770020    -0.3540720     0.0300640
  C       -1.7179342    -0.1418496     0.0615350
  H       -0.1662180    -2.3524950     0.1438230
  H        2.5302810     1.7953260    -0.1182260
  H        2.3147800    -2.4929990     0.1682820
  H        3.6634790    -0.3965710     0.0346780
  H        0.5735000     2.8633950    -0.2378390
  H       -3.2240480    -1.2056750    -0.2641070
units angstrom
no_reorient  #important for SAPT in psi4, default
symmetry c1  #important for SAPT in psi4, default
}

set PROPERTIES_ORIGIN ["COM"]
properties('MP2/aug-cc-pvtz', properties = ['dipole'])
--------------------------------------------------------------------------

    Molecular point group: c1
  Charge       = 0
  Multiplicity = 1
  Basis Set: AUG-CC-PVTZ
    Blend: AUG-CC-PVTZ
  Basis Set: (AUG-CC-PVTZ AUX)
    Blend: AUG-CC-PVTZ-JKFIT

    Orbital Energies [Eh]
    ---------------------

    Doubly Occupied:

       1A    -20.606980     2A    -20.602512     3A    -20.546862
       4A    -11.388446     5A    -11.329705     6A    -11.264584
       7A    -11.261901     8A    -11.256380     9A    -11.249144
      10A    -11.241884    11A     -1.455326    12A     -1.414990
      13A     -1.357528    14A     -1.166218    15A     -1.052781
      16A     -1.022114    17A     -0.894568    18A     -0.860588
      19A     -0.798991    20A     -0.745379    21A     -0.706844
      22A     -0.699166    23A     -0.675979    24A     -0.644926
      25A     -0.626347    26A     -0.622757    27A     -0.595947
      28A     -0.588796    29A     -0.582465    30A     -0.537700
      31A     -0.523088    32A     -0.497823    33A     -0.482458
      34A     -0.447862    35A     -0.361043    36A     -0.331382

  @DF-RHF Final Energy:  -493.35464717174375

   => Energetics <=

    Nuclear Repulsion Energy =            498.9700018138435667
    One-Electron Energy =               -1663.7663720493726487
    Two-Electron Energy =                 671.4417230637853891
    Total Energy =                       -493.3546471717437498
  Basis Set: (AUG-CC-PVTZ AUX)
    Blend: AUG-CC-PVTZ-RI
    Molecular point group: c1

    Geometry (in Angstrom), charge = 0, multiplicity = 1:

       Center              X                  Y                   Z               Mass
    ------------   -----------------  -----------------  -----------------  -----------------
         O           -0.060946932070     2.152085983498    -0.160053613978    15.994914619570
         O           -2.216778932070    -1.349652016502    -0.370374613978    15.994914619570
         O           -2.349307932070     0.767657983498     0.419908386022    15.994914619570
         C           -0.181243932070    -0.226596016502     0.013534386022    12.000000000000
         C            0.584995067930     0.952310983498    -0.059577613978    12.000000000000
         C            0.475156067930    -1.463653016502     0.089776386022    12.000000000000
         C            1.982024067930     0.867449983498    -0.058020613978    12.000000000000
         C            1.864944067930    -1.540724016502     0.099203386022    12.000000000000
         C            2.618716067930    -0.368212016502     0.027571386022    12.000000000000
         C           -1.676220132070    -0.155989616502     0.059042386022    12.000000000000
         H           -0.124503932070    -2.366635016502     0.141330386022     1.007825032230
         H            2.571995067930     1.781185983498    -0.120718613978     1.007825032230
         H            2.356494067930    -2.507139016502     0.165789386022     1.007825032230
         H            3.705193067930    -0.410711016502     0.032185386022     1.007825032230
         H            0.615214067930     2.849254983498    -0.240331613978     1.007825032230
         H           -3.182333932070    -1.219815016502    -0.266599613978     1.007825032230

  Basis Set: AUG-CC-PVTZ
    Blend: AUG-CC-PVTZ
  Basis Set: (AUG-CC-PVTZ AUX)
    Blend: AUG-CC-PVTZ-JKFIT
	 Reference Energy          =    -493.3546471717437498 [Eh]
	 Singles Energy            =      -0.0000000000000000 [Eh]
	 Same-Spin Energy          =      -0.5049565790130848 [Eh]
	 Opposite-Spin Energy      =      -1.5037065186867569 [Eh]
	 Correlation Energy        =      -2.0086630976998414 [Eh]
	 Total Energy              =    -495.3633102694436161 [Eh]

	 ================> DF-SCS-MP2 Energies <==================
	-----------------------------------------------------------
	 SCS Same-Spin Scale       =       0.3333333333333333 [-]
	 SCS Opposite-Spin Scale   =       1.2000000000000000 [-]
	 SCS Same-Spin Energy      =      -0.1683188596710282 [Eh]
	 SCS Opposite-Spin Energy  =      -1.8044478224241081 [Eh]
	 SCS Correlation Energy    =      -1.9727666820951364 [Eh]
	 SCS Total Energy          =    -495.3274138538388911 [Eh]
	-----------------------------------------------------------

  Dipole Moment: [D]
     X:     2.5691      Y:    -0.3652      Z:    -0.4137     Total:     2.6277

*** Psi4 exiting successfully. Buy a developer a beer!
