                               Psi4 1.3.2 release

  ==> Input File <==

--------------------------------------------------------------------------
#psi4
#
memory 32 gb

molecule  {
0 1
  O       -0.1851879     2.1181752    -0.1552982
  O       -2.2585870    -1.3354710    -0.3679860
  O       -2.3909180     0.7817600     0.4224630
  C       -0.2229310    -0.2124960     0.0158460
  C        0.5432600     0.9664360    -0.0570110
  C        0.4335280    -1.4494910     0.0925130
  C        1.9402870     0.8816050    -0.0559020
  C        1.8233140    -1.5265410     0.1016630
  C        2.5770400    -0.3539830     0.0301550
  C       -1.7066960    -0.1573290     0.0554370
  H       -0.1661180    -2.3524960     0.1439440
  H        2.5301710     1.7954230    -0.1182500
  H        2.3148760    -2.4929130     0.1687580
  H        3.6635200    -0.3964420     0.0343940
  H        0.5733460     2.8632860    -0.2381370
  H       -3.2241600    -1.2056690    -0.2641310
units angstrom
no_reorient  #important for SAPT in psi4, default
symmetry c1  #important for SAPT in psi4, default
}

set PROPERTIES_ORIGIN ["COM"]
properties('MP2/aug-cc-pvtz', properties = ['dipole'])
--------------------------------------------------------------------------

    Molecular point group: c1
  Charge       = 0
  Multiplicity = 1
  Basis Set: AUG-CC-PVTZ
    Blend: AUG-CC-PVTZ
  Basis Set: (AUG-CC-PVTZ AUX)
    Blend: AUG-CC-PVTZ-JKFIT

    Orbital Energies [Eh]
    ---------------------

    Doubly Occupied:

       1A    -20.612032     2A    -20.609000     3A    -20.541500
       4A    -11.388262     5A    -11.329448     6A    -11.266334
       7A    -11.261989     8A    -11.253812     9A    -11.251345
      10A    -11.242130    11A     -1.452774    12A     -1.402963
      13A     -1.347237    14A     -1.165806    15A     -1.054367
      16A     -1.020405    17A     -0.896954    18A     -0.856374
      19A     -0.799338    20A     -0.732246    21A     -0.702320
      22A     -0.696984    23A     -0.677374    24A     -0.641335
      25A     -0.624063    26A     -0.620058    27A     -0.595092
      28A     -0.588348    29A     -0.578826    30A     -0.539820
      31A     -0.520548    32A     -0.497565    33A     -0.475553
      34A     -0.444951    35A     -0.361499    36A     -0.331356

  @DF-RHF Final Energy:  -493.33822029086451

   => Energetics <=

    Nuclear Repulsion Energy =            499.5173082485044915
    One-Electron Energy =               -1664.9510427749012251
    Two-Electron Energy =                 672.0955142355321641
    Total Energy =                       -493.3382202908644558
  Basis Set: (AUG-CC-PVTZ AUX)
    Blend: AUG-CC-PVTZ-RI
    Molecular point group: c1

    Geometry (in Angstrom), charge = 0, multiplicity = 1:

       Center              X                  Y                   Z               Mass
    ------------   -----------------  -----------------  -----------------  -----------------
         O           -0.134904492499     2.110937189864    -0.157502215391    15.994914619570
         O           -2.208303592499    -1.342709010136    -0.370190015391    15.994914619570
         O           -2.340634592499     0.774521989864     0.420258984609    15.994914619570
         C           -0.172647592499    -0.219734010136     0.013641984609    12.000000000000
         C            0.593543407501     0.959197989864    -0.059215015391    12.000000000000
         C            0.483811407501    -1.456729010136     0.090308984609    12.000000000000
         C            1.990570407501     0.874366989864    -0.058106015391    12.000000000000
         C            1.873597407501    -1.533779010136     0.099458984609    12.000000000000
         C            2.627323407501    -0.361221010136     0.027950984609    12.000000000000
         C           -1.656412592499    -0.164567010136     0.053232984609    12.000000000000
         H           -0.115834592499    -2.359734010136     0.141739984609     1.007825032230
         H            2.580454407501     1.788184989864    -0.120454015391     1.007825032230
         H            2.365159407501    -2.500151010136     0.166553984609     1.007825032230
         H            3.713803407501    -0.403680010136     0.032189984609     1.007825032230
         H            0.623629407501     2.856047989864    -0.240341015391     1.007825032230
         H           -3.173876592499    -1.212907010136    -0.266335015391     1.007825032230

  Basis Set: AUG-CC-PVTZ
    Blend: AUG-CC-PVTZ
  Basis Set: (AUG-CC-PVTZ AUX)
    Blend: AUG-CC-PVTZ-JKFIT
	 Reference Energy          =    -493.3382202908645127 [Eh]
	 Singles Energy            =      -0.0000000000000000 [Eh]
	 Same-Spin Energy          =      -0.5071736345705213 [Eh]
	 Opposite-Spin Energy      =      -1.5086478563562009 [Eh]
	 Correlation Energy        =      -2.0158214909267222 [Eh]
	 Total Energy              =    -495.3540417817912385 [Eh]

	 ================> DF-SCS-MP2 Energies <==================
	-----------------------------------------------------------
	 SCS Same-Spin Scale       =       0.3333333333333333 [-]
	 SCS Opposite-Spin Scale   =       1.2000000000000000 [-]
	 SCS Same-Spin Energy      =      -0.1690578781901738 [Eh]
	 SCS Opposite-Spin Energy  =      -1.8103774276274409 [Eh]
	 SCS Correlation Energy    =      -1.9794353058176146 [Eh]
	 SCS Total Energy          =    -495.3176555966821297 [Eh]
	-----------------------------------------------------------

  Dipole Moment: [D]
     X:     2.6822      Y:    -0.3848      Z:    -0.4595     Total:     2.7483

*** Psi4 exiting successfully. Buy a developer a beer!
