                               Psi4 1.4a3.dev225

  ==> Input File <==

--------------------------------------------------------------------------
#psi4
#
memory 32 gb

molecule  {
0 1
  O       -0.1026610     2.1662260    -0.1575610
  O       -2.2584930    -1.3355120    -0.3678820
  O       -2.3910220     0.7817980     0.4224010
  C       -0.2229580    -0.2124560     0.0160270
  C        0.5432810     0.9664510    -0.0570850
  C        0.4334420    -1.4495130     0.0922690
  C        1.9403100     0.8815900    -0.0555280
  C        1.8232300    -1.5265840     0.1016960
  C        2.5770020    -0.3540720     0.0300640
  C       -1.7067020    -0.1572630     0.0555130
  H       -0.1662180    -2.3524950     0.1438230
  H        2.5302810     1.7953260    -0.1182260
  H        2.3147800    -2.4929990     0.1682820
  H        3.6634790    -0.3965710     0.0346780
  H        0.5596232     2.8490870    -0.2361915
  H       -3.2240480    -1.2056750    -0.2641070
units angstrom
no_reorient  #important for SAPT in psi4, default
symmetry c1  #important for SAPT in psi4, default
}

set PROPERTIES_ORIGIN ["COM"]
properties('MP2/aug-cc-pvtz', properties = ['dipole'])
--------------------------------------------------------------------------

    Molecular point group: c1
  Charge       = 0
  Multiplicity = 1
  Basis Set: AUG-CC-PVTZ
    Blend: AUG-CC-PVTZ
  Basis Set: (AUG-CC-PVTZ AUX)
    Blend: AUG-CC-PVTZ-JKFIT

    Orbital Energies [Eh]
    ---------------------

    Doubly Occupied:

       1A    -20.609871     2A    -20.601016     3A    -20.542816
       4A    -11.389400     5A    -11.331196     6A    -11.265776
       7A    -11.263008     8A    -11.256699     9A    -11.250039
      10A    -11.242721    11A     -1.453698    12A     -1.419448
      13A     -1.348559    14A     -1.167850    15A     -1.055251
      16A     -1.023651    17A     -0.898055    18A     -0.863215
      19A     -0.801589    20A     -0.748655    21A     -0.709560
      22A     -0.697968    23A     -0.676437    24A     -0.644380
      25A     -0.625677    26A     -0.623876    27A     -0.596801
      28A     -0.589454    29A     -0.581034    30A     -0.537380
      31A     -0.523771    32A     -0.498764    33A     -0.476595
      34A     -0.446760    35A     -0.361917    36A     -0.332279

  @DF-RHF Final Energy:  -493.35474917030820

   => Energetics <=

    Nuclear Repulsion Energy =            499.1000104344045667
    One-Electron Energy =               -1663.9991897697216245
    Two-Electron Energy =                 671.5444301650088619
    Total Energy =                       -493.3547491703081960
  Basis Set: (AUG-CC-PVTZ AUX)
    Blend: AUG-CC-PVTZ-RI
    Molecular point group: c1

    Geometry (in Angstrom), charge = 0, multiplicity = 1:

       Center              X                  Y                   Z               Mass
    ------------   -----------------  -----------------  -----------------  -----------------
         O           -0.061822100736     2.153530439874    -0.159542111104    15.994914619570
         O           -2.217654100736    -1.348207560126    -0.369863111104    15.994914619570
         O           -2.350183100736     0.769102439874     0.420419888896    15.994914619570
         C           -0.182119100736    -0.225151560126     0.014045888896    12.000000000000
         C            0.584119899264     0.953755439874    -0.059066111104    12.000000000000
         C            0.474280899264    -1.462208560126     0.090287888896    12.000000000000
         C            1.981148899264     0.868894439874    -0.057509111104    12.000000000000
         C            1.864068899264    -1.539279560126     0.099714888896    12.000000000000
         C            2.617840899264    -0.366767560126     0.028082888896    12.000000000000
         C           -1.665863100736    -0.169958560126     0.053531888896    12.000000000000
         H           -0.125379100736    -2.365190560126     0.141841888896     1.007825032230
         H            2.571119899264     1.782630439874    -0.120207111104     1.007825032230
         H            2.355618899264    -2.505694560126     0.166300888896     1.007825032230
         H            3.704317899264    -0.409266560126     0.032696888896     1.007825032230
         H            0.600462099264     2.836391439874    -0.238172611104     1.007825032230
         H           -3.183209100736    -1.218370560126    -0.266088111104     1.007825032230

  Basis Set: AUG-CC-PVTZ
    Blend: AUG-CC-PVTZ
  Basis Set: (AUG-CC-PVTZ AUX)
    Blend: AUG-CC-PVTZ-JKFIT
	 Reference Energy          =    -493.3547491703081960 [Eh]
	 Singles Energy            =      -0.0000000000000000 [Eh]
	 Same-Spin Energy          =      -0.5050896186853195 [Eh]
	 Opposite-Spin Energy      =      -1.5037983255604579 [Eh]
	 Correlation Energy        =      -2.0088879442457772 [Eh]
	 Total Energy              =    -495.3636371145539670 [Eh]

	 ================> DF-SCS-MP2 Energies <==================
	-----------------------------------------------------------
	 SCS Same-Spin Scale       =       0.3333333333333333 [-]
	 SCS Opposite-Spin Scale   =       1.2000000000000000 [-]
	 SCS Same-Spin Energy      =      -0.1683632062284398 [Eh]
	 SCS Opposite-Spin Energy  =      -1.8045579906725493 [Eh]
	 SCS Correlation Energy    =      -1.9729211969009892 [Eh]
	 SCS Total Energy          =    -495.3276703672091799 [Eh]
	-----------------------------------------------------------

  Dipole Moment: [D]
     X:     2.6475      Y:    -0.4931      Z:    -0.4597     Total:     2.7320

*** Psi4 exiting successfully. Buy a developer a beer!
