                               Psi4 1.3.2 release

  ==> Input File <==

--------------------------------------------------------------------------
#psi4
#
memory 32 gb

molecule  {
0 1
  O       -0.1027990     2.1661630    -0.1573240
  O       -2.2585870    -1.3354710    -0.3679860
  O       -2.3909180     0.7817600     0.4224630
  C       -0.2229310    -0.2124960     0.0158460
  C        0.5225406     0.9796463    -0.0569982
  C        0.4335280    -1.4494910     0.0925130
  C        1.9402870     0.8816050    -0.0559020
  C        1.8233140    -1.5265410     0.1016630
  C        2.5770400    -0.3539830     0.0301550
  C       -1.7066960    -0.1573290     0.0554370
  H       -0.1661180    -2.3524960     0.1439440
  H        2.5301710     1.7954230    -0.1182500
  H        2.3148760    -2.4929130     0.1687580
  H        3.6635200    -0.3964420     0.0343940
  H        0.5733460     2.8632860    -0.2381370
  H       -3.2241600    -1.2056690    -0.2641310
units angstrom
no_reorient  #important for SAPT in psi4, default
symmetry c1  #important for SAPT in psi4, default
}

set PROPERTIES_ORIGIN ["COM"]
properties('MP2/aug-cc-pvtz', properties = ['dipole'])
--------------------------------------------------------------------------

    Molecular point group: c1
  Charge       = 0
  Multiplicity = 1
  Basis Set: AUG-CC-PVTZ
    Blend: AUG-CC-PVTZ
  Basis Set: (AUG-CC-PVTZ AUX)
    Blend: AUG-CC-PVTZ-JKFIT

    Orbital Energies [Eh]
    ---------------------

    Doubly Occupied:

       1A    -20.609188     2A    -20.606961     3A    -20.542289
       4A    -11.388367     5A    -11.333645     6A    -11.264828
       7A    -11.262264     8A    -11.255316     9A    -11.250892
      10A    -11.241276    11A     -1.453309    12A     -1.426662
      13A     -1.348178    14A     -1.164822    15A     -1.054017
      16A     -1.020164    17A     -0.896194    18A     -0.863901
      19A     -0.800189    20A     -0.750607    21A     -0.709444
      22A     -0.697450    23A     -0.677377    24A     -0.644987
      25A     -0.625742    26A     -0.624110    27A     -0.601025
      28A     -0.587393    29A     -0.581203    30A     -0.536929
      31A     -0.521504    32A     -0.497898    33A     -0.476224
      34A     -0.445752    35A     -0.361203    36A     -0.328742

  @DF-RHF Final Energy:  -493.35349230419399

   => Energetics <=

    Nuclear Repulsion Energy =            498.9893525695272274
    One-Electron Energy =               -1663.7855898236530265
    Two-Electron Energy =                 671.4427449499318072
    Total Energy =                       -493.3534923041939919
  Basis Set: (AUG-CC-PVTZ AUX)
    Blend: AUG-CC-PVTZ-RI
    Molecular point group: c1

    Geometry (in Angstrom), charge = 0, multiplicity = 1:

       Center              X                  Y                   Z               Mass
    ------------   -----------------  -----------------  -----------------  -----------------
         O           -0.060261426733     2.152215774490    -0.159294381383    15.994914619570
         O           -2.216049426733    -1.349418225510    -0.369956381383    15.994914619570
         O           -2.348380426733     0.767812774490     0.420492618617    15.994914619570
         C           -0.180393426733    -0.226443225510     0.013875618617    12.000000000000
         C            0.565078173267     0.965699074490    -0.058968581383    12.000000000000
         C            0.476065573267    -1.463438225510     0.090542618617    12.000000000000
         C            1.982824573267     0.867657774490    -0.057872381383    12.000000000000
         C            1.865851573267    -1.540488225510     0.099692618617    12.000000000000
         C            2.619577573267    -0.367930225510     0.028184618617    12.000000000000
         C           -1.664158426733    -0.171276225510     0.053466618617    12.000000000000
         H           -0.123580426733    -2.366443225510     0.141973618617     1.007825032230
         H            2.572708573267     1.781475774490    -0.120220381383     1.007825032230
         H            2.357413573267    -2.506860225510     0.166787618617     1.007825032230
         H            3.706057573267    -0.410389225510     0.032423618617     1.007825032230
         H            0.615883573267     2.849338774490    -0.240107381383     1.007825032230
         H           -3.181622426733    -1.219616225510    -0.266101381383     1.007825032230

  Basis Set: AUG-CC-PVTZ
    Blend: AUG-CC-PVTZ
  Basis Set: (AUG-CC-PVTZ AUX)
    Blend: AUG-CC-PVTZ-JKFIT
	 Reference Energy          =    -493.3534923041939919 [Eh]
	 Singles Energy            =      -0.0000000000000000 [Eh]
	 Same-Spin Energy          =      -0.5052988242919239 [Eh]
	 Opposite-Spin Energy      =      -1.5040992724077427 [Eh]
	 Correlation Energy        =      -2.0093980966996665 [Eh]
	 Total Energy              =    -495.3628904008936615 [Eh]

	 ================> DF-SCS-MP2 Energies <==================
	-----------------------------------------------------------
	 SCS Same-Spin Scale       =       0.3333333333333333 [-]
	 SCS Opposite-Spin Scale   =       1.2000000000000000 [-]
	 SCS Same-Spin Energy      =      -0.1684329414306413 [Eh]
	 SCS Opposite-Spin Energy  =      -1.8049191268892910 [Eh]
	 SCS Correlation Energy    =      -1.9733520683199324 [Eh]
	 SCS Total Energy          =    -495.3268443725139036 [Eh]
	-----------------------------------------------------------

  Dipole Moment: [D]
     X:     2.6092      Y:    -0.3379      Z:    -0.4744     Total:     2.6734

*** Psi4 exiting successfully. Buy a developer a beer!
