                               Psi4 1.3.2 release

  ==> Input File <==

--------------------------------------------------------------------------
#psi4
#
memory 32 gb

molecule  {
0 1
  O       -0.1027990     2.1661630    -0.1573240
  O       -2.2585870    -1.3354710    -0.3679860
  O       -2.4084087     0.7703869     0.4183400
  C       -0.2229310    -0.2124960     0.0158460
  C        0.5432600     0.9664360    -0.0570110
  C        0.4335280    -1.4494910     0.0925130
  C        1.9402870     0.8816050    -0.0559020
  C        1.8233140    -1.5265410     0.1016630
  C        2.5770400    -0.3539830     0.0301550
  C       -1.7066960    -0.1573290     0.0554370
  H       -0.1661180    -2.3524960     0.1439440
  H        2.5301710     1.7954230    -0.1182500
  H        2.3148760    -2.4929130     0.1687580
  H        3.6635200    -0.3964420     0.0343940
  H        0.5733460     2.8632860    -0.2381370
  H       -3.2241600    -1.2056690    -0.2641310
units angstrom
no_reorient  #important for SAPT in psi4, default
symmetry c1  #important for SAPT in psi4, default
}

set PROPERTIES_ORIGIN ["COM"]
properties('MP2/aug-cc-pvtz', properties = ['dipole'])
--------------------------------------------------------------------------

    Molecular point group: c1
  Charge       = 0
  Multiplicity = 1
  Basis Set: AUG-CC-PVTZ
    Blend: AUG-CC-PVTZ
  Basis Set: (AUG-CC-PVTZ AUX)
    Blend: AUG-CC-PVTZ-JKFIT

    Orbital Energies [Eh]
    ---------------------

    Doubly Occupied:

       1A    -20.608027     2A    -20.603327     3A    -20.542330
       4A    -11.389150     5A    -11.331622     6A    -11.266205
       7A    -11.263538     8A    -11.257428     9A    -11.250309
      10A    -11.243016    11A     -1.453475    12A     -1.415793
      13A     -1.346796    14A     -1.168011    15A     -1.055681
      16A     -1.023468    17A     -0.898107    18A     -0.862203
      19A     -0.801175    20A     -0.746320    21A     -0.708820
      22A     -0.697391    23A     -0.676222    24A     -0.644221
      25A     -0.625320    26A     -0.623667    27A     -0.596625
      28A     -0.589075    29A     -0.580824    30A     -0.537198
      31A     -0.524009    32A     -0.498836    33A     -0.475700
      34A     -0.446634    35A     -0.362426    36A     -0.332568

  @DF-RHF Final Energy:  -493.35391997046764

   => Energetics <=

    Nuclear Repulsion Energy =            498.8056140471531990
    One-Electron Energy =               -1663.4280343602927132
    Two-Electron Energy =                 671.2685003426719277
    Total Energy =                       -493.3539199704677003
  Basis Set: (AUG-CC-PVTZ AUX)
    Blend: AUG-CC-PVTZ-RI
    Molecular point group: c1

    Geometry (in Angstrom), charge = 0, multiplicity = 1:

       Center              X                  Y                   Z               Mass
    ------------   -----------------  -----------------  -----------------  -----------------
         O           -0.060035902781     2.154682130973    -0.158815501271    15.994914619570
         O           -2.215823902781    -1.346951869027    -0.369477501271    15.994914619570
         O           -2.365645602781     0.758906030973     0.416848498729    15.994914619570
         C           -0.180167902781    -0.223976869027     0.014354498729    12.000000000000
         C            0.586023097219     0.954955130973    -0.058502501271    12.000000000000
         C            0.476291097219    -1.460971869027     0.091021498729    12.000000000000
         C            1.983050097219     0.870124130973    -0.057393501271    12.000000000000
         C            1.866077097219    -1.538021869027     0.100171498729    12.000000000000
         C            2.619803097219    -0.365463869027     0.028663498729    12.000000000000
         C           -1.663932902781    -0.168809869027     0.053945498729    12.000000000000
         H           -0.123354902781    -2.363976869027     0.142452498729     1.007825032230
         H            2.572934097219     1.783942130973    -0.119741501271     1.007825032230
         H            2.357639097219    -2.504393869027     0.167266498729     1.007825032230
         H            3.706283097219    -0.407922869027     0.032902498729     1.007825032230
         H            0.616109097219     2.851805130973    -0.239628501271     1.007825032230
         H           -3.181396902781    -1.217149869027    -0.265622501271     1.007825032230

  Basis Set: AUG-CC-PVTZ
    Blend: AUG-CC-PVTZ
  Basis Set: (AUG-CC-PVTZ AUX)
    Blend: AUG-CC-PVTZ-JKFIT
	 Reference Energy          =    -493.3539199704676435 [Eh]
	 Singles Energy            =      -0.0000000000000000 [Eh]
	 Same-Spin Energy          =      -0.5052682263360921 [Eh]
	 Opposite-Spin Energy      =      -1.5042917516998093 [Eh]
	 Correlation Energy        =      -2.0095599780359015 [Eh]
	 Total Energy              =    -495.3634799485035387 [Eh]

	 ================> DF-SCS-MP2 Energies <==================
	-----------------------------------------------------------
	 SCS Same-Spin Scale       =       0.3333333333333333 [-]
	 SCS Opposite-Spin Scale   =       1.2000000000000000 [-]
	 SCS Same-Spin Energy      =      -0.1684227421120307 [Eh]
	 SCS Opposite-Spin Energy  =      -1.8051501020397711 [Eh]
	 SCS Correlation Energy    =      -1.9735728441518019 [Eh]
	 SCS Total Energy          =    -495.3274928146194611 [Eh]
	-----------------------------------------------------------

  Dipole Moment: [D]
     X:     2.7268      Y:    -0.4512      Z:    -0.4549     Total:     2.8010

*** Psi4 exiting successfully. Buy a developer a beer!
