                               Psi4 1.3.2 release

  ==> Input File <==

--------------------------------------------------------------------------
#psi4
#
memory 32 gb

molecule  {
0 1
  O       -0.1027990     2.1661630    -0.1573240
  O       -2.2585870    -1.3354710    -0.3679860
  O       -2.3909180     0.7817600     0.4224630
  C       -0.2229310    -0.2124960     0.0158460
  C        0.5432600     0.9664360    -0.0570110
  C        0.4335280    -1.4494910     0.0925130
  C        1.9402870     0.8816050    -0.0559020
  C        1.8233140    -1.5265410     0.1016630
  C        2.5770400    -0.3539830     0.0301550
  C       -1.6068006    -0.1610432     0.0527715
  H       -0.1661180    -2.3524960     0.1439440
  H        2.5301710     1.7954230    -0.1182500
  H        2.3148760    -2.4929130     0.1687580
  H        3.6635200    -0.3964420     0.0343940
  H        0.5733460     2.8632860    -0.2381370
  H       -3.2241600    -1.2056690    -0.2641310
units angstrom
no_reorient  #important for SAPT in psi4, default
symmetry c1  #important for SAPT in psi4, default
}

set PROPERTIES_ORIGIN ["COM"]
properties('MP2/aug-cc-pvtz', properties = ['dipole'])
--------------------------------------------------------------------------

    Molecular point group: c1
  Charge       = 0
  Multiplicity = 1
  Basis Set: AUG-CC-PVTZ
    Blend: AUG-CC-PVTZ
  Basis Set: (AUG-CC-PVTZ AUX)
    Blend: AUG-CC-PVTZ-JKFIT

    Orbital Energies [Eh]
    ---------------------

    Doubly Occupied:

       1A    -20.609103     2A    -20.596387     3A    -20.531914
       4A    -11.389291     5A    -11.341799     6A    -11.275843
       7A    -11.272677     8A    -11.256168     9A    -11.255815
      10A    -11.248813    11A     -1.426105    12A     -1.416843
      13A     -1.305114    14A     -1.178687    15A     -1.075194
      16A     -1.031235    17A     -0.914821    18A     -0.869964
      19A     -0.800288    20A     -0.751502    21A     -0.714530
      22A     -0.691829    23A     -0.667338    24A     -0.645037
      25A     -0.628306    26A     -0.617196    27A     -0.596136
      28A     -0.585185    29A     -0.574373    30A     -0.538256
      31A     -0.529603    32A     -0.504097    33A     -0.456194
      34A     -0.436825    35A     -0.368613    36A     -0.339134

  @DF-RHF Final Energy:  -493.33151709640788

   => Energetics <=

    Nuclear Repulsion Energy =            499.4509823905472103
    One-Electron Energy =               -1664.6845622827390798
    Two-Electron Energy =                 671.9020627957838769
    Total Energy =                       -493.3315170964078789
  Basis Set: (AUG-CC-PVTZ AUX)
    Blend: AUG-CC-PVTZ-RI
    Molecular point group: c1

    Geometry (in Angstrom), charge = 0, multiplicity = 1:

       Center              X                  Y                   Z               Mass
    ------------   -----------------  -----------------  -----------------  -----------------
         O           -0.070747261960     2.153687132220    -0.159061539207    15.994914619570
         O           -2.226535261960    -1.347946867780    -0.369723539207    15.994914619570
         O           -2.358866261960     0.769284132220     0.420725460793    15.994914619570
         C           -0.190879261960    -0.224971867780     0.014108460793    12.000000000000
         C            0.575311738040     0.953960132220    -0.058748539207    12.000000000000
         C            0.465579738040    -1.461966867780     0.090775460793    12.000000000000
         C            1.972338738040     0.869129132220    -0.057639539207    12.000000000000
         C            1.855365738040    -1.539016867780     0.099925460793    12.000000000000
         C            2.609091738040    -0.366458867780     0.028417460793    12.000000000000
         C           -1.574748861960    -0.173519067780     0.051033960793    12.000000000000
         H           -0.134066261960    -2.364971867780     0.142206460793     1.007825032230
         H            2.562222738040     1.782947132220    -0.119987539207     1.007825032230
         H            2.346927738040    -2.505388867780     0.167020460793     1.007825032230
         H            3.695571738040    -0.408917867780     0.032656460793     1.007825032230
         H            0.605397738040     2.850810132220    -0.239874539207     1.007825032230
         H           -3.192108261960    -1.218144867780    -0.265868539207     1.007825032230

  Basis Set: AUG-CC-PVTZ
    Blend: AUG-CC-PVTZ
  Basis Set: (AUG-CC-PVTZ AUX)
    Blend: AUG-CC-PVTZ-JKFIT
	 Reference Energy          =    -493.3315170964078789 [Eh]
	 Singles Energy            =      -0.0000000000000000 [Eh]
	 Same-Spin Energy          =      -0.5076906796189162 [Eh]
	 Opposite-Spin Energy      =      -1.5093976364204840 [Eh]
	 Correlation Energy        =      -2.0170883160394002 [Eh]
	 Total Energy              =    -495.3486054124472844 [Eh]

	 ================> DF-SCS-MP2 Energies <==================
	-----------------------------------------------------------
	 SCS Same-Spin Scale       =       0.3333333333333333 [-]
	 SCS Opposite-Spin Scale   =       1.2000000000000000 [-]
	 SCS Same-Spin Energy      =      -0.1692302265396387 [Eh]
	 SCS Opposite-Spin Energy  =      -1.8112771637045806 [Eh]
	 SCS Correlation Energy    =      -1.9805073902442194 [Eh]
	 SCS Total Energy          =    -495.3120244866520920 [Eh]
	-----------------------------------------------------------

  Dipole Moment: [D]
     X:     3.5581      Y:    -0.3858      Z:    -0.4601     Total:     3.6084

*** Psi4 exiting successfully. Buy a developer a beer!
