                               Psi4 1.3.2 release

  ==> Input File <==

--------------------------------------------------------------------------
#psi4
#
memory 32 gb

molecule  {
0 1
  O       -0.1027990     2.1661630    -0.1573240
  O       -2.1247141    -1.3826508    -0.3869844
  O       -2.3909180     0.7817600     0.4224630
  C       -0.2229310    -0.2124960     0.0158460
  C        0.5432600     0.9664360    -0.0570110
  C        0.4335280    -1.4494910     0.0925130
  C        1.9402870     0.8816050    -0.0559020
  C        1.8233140    -1.5265410     0.1016630
  C        2.5770400    -0.3539830     0.0301550
  C       -1.7066960    -0.1573290     0.0554370
  H       -0.1661180    -2.3524960     0.1439440
  H        2.5301710     1.7954230    -0.1182500
  H        2.3148760    -2.4929130     0.1687580
  H        3.6635200    -0.3964420     0.0343940
  H        0.5733460     2.8632860    -0.2381370
  H       -3.2241600    -1.2056690    -0.2641310
units angstrom
no_reorient  #important for SAPT in psi4, default
symmetry c1  #important for SAPT in psi4, default
}

set PROPERTIES_ORIGIN ["COM"]
properties('MP2/aug-cc-pvtz', properties = ['dipole'])
--------------------------------------------------------------------------

    Molecular point group: c1
  Charge       = 0
  Multiplicity = 1
  Basis Set: AUG-CC-PVTZ
    Blend: AUG-CC-PVTZ
  Basis Set: (AUG-CC-PVTZ AUX)
    Blend: AUG-CC-PVTZ-JKFIT

    Orbital Energies [Eh]
    ---------------------

    Doubly Occupied:

       1A    -20.625821     2A    -20.600858     3A    -20.550093
       4A    -11.391051     5A    -11.327046     6A    -11.262753
       7A    -11.259003     8A    -11.250780     9A    -11.247119
      10A    -11.239843    11A     -1.444519    12A     -1.412974
      13A     -1.350309    14A     -1.163812    15A     -1.050323
      16A     -1.020059    17A     -0.889481    18A     -0.857219
      19A     -0.788461    20A     -0.744925    21A     -0.704237
      22A     -0.689099    23A     -0.671033    24A     -0.644521
      25A     -0.626724    26A     -0.619709    27A     -0.594232
      28A     -0.582480    29A     -0.574609    30A     -0.536504
      31A     -0.521200    32A     -0.495318    33A     -0.481212
      34A     -0.447745    35A     -0.358478    36A     -0.329344

  @DF-RHF Final Energy:  -493.32446370267576

   => Energetics <=

    Nuclear Repulsion Energy =            499.6990956897407159
    One-Electron Energy =               -1665.3413327398347974
    Two-Electron Energy =                 672.3177733474183242
    Total Energy =                       -493.3244637026757573
  Basis Set: (AUG-CC-PVTZ AUX)
    Blend: AUG-CC-PVTZ-RI
    Molecular point group: c1

    Geometry (in Angstrom), charge = 0, multiplicity = 1:

       Center              X                  Y                   Z               Mass
    ------------   -----------------  -----------------  -----------------  -----------------
         O           -0.077575699529     2.158831359983    -0.157091761267    15.994914619570
         O           -2.099490799529    -1.389982440017    -0.386752161267    15.994914619570
         O           -2.365694699529     0.774428359983     0.422695238733    15.994914619570
         C           -0.197707699529    -0.219827640017     0.016078238733    12.000000000000
         C            0.568483300471     0.959104359983    -0.056778761267    12.000000000000
         C            0.458751300471    -1.456822640017     0.092745238733    12.000000000000
         C            1.965510300471     0.874273359983    -0.055669761267    12.000000000000
         C            1.848537300471    -1.533872640017     0.101895238733    12.000000000000
         C            2.602263300471    -0.361314640017     0.030387238733    12.000000000000
         C           -1.681472699529    -0.164660640017     0.055669238733    12.000000000000
         H           -0.140894699529    -2.359827640017     0.144176238733     1.007825032230
         H            2.555394300471     1.788091359983    -0.118017761267     1.007825032230
         H            2.340099300471    -2.500244640017     0.168990238733     1.007825032230
         H            3.688743300471    -0.403773640017     0.034626238733     1.007825032230
         H            0.598569300471     2.855954359983    -0.237904761267     1.007825032230
         H           -3.198936699529    -1.213000640017    -0.263898761267     1.007825032230

  Basis Set: AUG-CC-PVTZ
    Blend: AUG-CC-PVTZ
  Basis Set: (AUG-CC-PVTZ AUX)
    Blend: AUG-CC-PVTZ-JKFIT
	 Reference Energy          =    -493.3244637026757573 [Eh]
	 Singles Energy            =      -0.0000000000000000 [Eh]
	 Same-Spin Energy          =      -0.5086769325750785 [Eh]
	 Opposite-Spin Energy      =      -1.5114657807959080 [Eh]
	 Correlation Energy        =      -2.0201427133709866 [Eh]
	 Total Energy              =    -495.3446064160467586 [Eh]

	 ================> DF-SCS-MP2 Energies <==================
	-----------------------------------------------------------
	 SCS Same-Spin Scale       =       0.3333333333333333 [-]
	 SCS Opposite-Spin Scale   =       1.2000000000000000 [-]
	 SCS Same-Spin Energy      =      -0.1695589775250262 [Eh]
	 SCS Opposite-Spin Energy  =      -1.8137589369550895 [Eh]
	 SCS Correlation Energy    =      -1.9833179144801156 [Eh]
	 SCS Total Energy          =    -495.3077816171558538 [Eh]
	-----------------------------------------------------------

  Dipole Moment: [D]
     X:     2.3106      Y:    -0.4828      Z:    -0.4632     Total:     2.4055

*** Psi4 exiting successfully. Buy a developer a beer!
