                               Psi4 1.4a3.dev225

  ==> Input File <==

--------------------------------------------------------------------------
#psi4
#
memory 32 gb

molecule  {
0 1
  O       -0.1026610     2.1662260    -0.1575610
  O       -2.2584930    -1.3355120    -0.3678820
  O       -2.3910220     0.7817980     0.4224010
  C       -0.2229580    -0.2124560     0.0160270
  C        0.5432810     0.9664510    -0.0570850
  C        0.4334420    -1.4495130     0.0922690
  C        1.9403100     0.8815900    -0.0555280
  C        1.8232300    -1.5265840     0.1016960
  C        2.5770020    -0.3540720     0.0300640
  C       -1.7147679    -0.1744862     0.0493240
  H       -0.1662180    -2.3524950     0.1438230
  H        2.5302810     1.7953260    -0.1182260
  H        2.3147800    -2.4929990     0.1682820
  H        3.6634790    -0.3965710     0.0346780
  H        0.5735000     2.8633950    -0.2378390
  H       -3.2240480    -1.2056750    -0.2641070
units angstrom
no_reorient  #important for SAPT in psi4, default
symmetry c1  #important for SAPT in psi4, default
}

set PROPERTIES_ORIGIN ["COM"]
properties('MP2/aug-cc-pvtz', properties = ['dipole'])
--------------------------------------------------------------------------

    Molecular point group: c1
  Charge       = 0
  Multiplicity = 1
  Basis Set: AUG-CC-PVTZ
    Blend: AUG-CC-PVTZ
  Basis Set: (AUG-CC-PVTZ AUX)
    Blend: AUG-CC-PVTZ-JKFIT

    Orbital Energies [Eh]
    ---------------------

    Doubly Occupied:

       1A    -20.615701     2A    -20.601636     3A    -20.540020
       4A    -11.390132     5A    -11.330431     6A    -11.264954
       7A    -11.262170     8A    -11.256525     9A    -11.249448
      10A    -11.242103    11A     -1.460437    12A     -1.414317
      13A     -1.345230    14A     -1.166714    15A     -1.053929
      16A     -1.022237    17A     -0.898458    18A     -0.861446
      19A     -0.804174    20A     -0.745602    21A     -0.710629
      22A     -0.699861    23A     -0.676105    24A     -0.644562
      25A     -0.627680    26A     -0.623579    27A     -0.596471
      28A     -0.588908    29A     -0.577163    30A     -0.536045
      31A     -0.523023    32A     -0.498114    33A     -0.473650
      34A     -0.445328    35A     -0.361121    36A     -0.331298

  @DF-RHF Final Energy:  -493.35309504917319

   => Energetics <=

    Nuclear Repulsion Energy =            498.8914513441418421
    One-Electron Energy =               -1663.6106879887133800
    Two-Electron Energy =                 671.3661415953982896
    Total Energy =                       -493.3530950491732483
  Basis Set: (AUG-CC-PVTZ AUX)
    Blend: AUG-CC-PVTZ-RI
    Molecular point group: c1

    Geometry (in Angstrom), charge = 0, multiplicity = 1:

       Center              X                  Y                   Z               Mass
    ------------   -----------------  -----------------  -----------------  -----------------
         O           -0.061222199285     2.154923297078    -0.158992031702    15.994914619570
         O           -2.217054199285    -1.346814702922    -0.369313031702    15.994914619570
         O           -2.349583199285     0.770495297078     0.420969968298    15.994914619570
         C           -0.181519199285    -0.223758702922     0.014595968298    12.000000000000
         C            0.584719800715     0.955148297078    -0.058516031702    12.000000000000
         C            0.474880800715    -1.460815702922     0.090837968298    12.000000000000
         C            1.981748800715     0.870287297078    -0.056959031702    12.000000000000
         C            1.864668800715    -1.537886702922     0.100264968298    12.000000000000
         C            2.618440800715    -0.365374702922     0.028632968298    12.000000000000
         C           -1.673329099285    -0.185788902922     0.047892968298    12.000000000000
         H           -0.124779199285    -2.363797702922     0.142391968298     1.007825032230
         H            2.571719800715     1.784023297078    -0.119657031702     1.007825032230
         H            2.356218800715    -2.504301702922     0.166850968298     1.007825032230
         H            3.704917800715    -0.407873702922     0.033246968298     1.007825032230
         H            0.614938800715     2.852092297078    -0.239270031702     1.007825032230
         H           -3.182609199285    -1.216977702922    -0.265538031702     1.007825032230

  Basis Set: AUG-CC-PVTZ
    Blend: AUG-CC-PVTZ
  Basis Set: (AUG-CC-PVTZ AUX)
    Blend: AUG-CC-PVTZ-JKFIT
	 Reference Energy          =    -493.3530950491731915 [Eh]
	 Singles Energy            =      -0.0000000000000000 [Eh]
	 Same-Spin Energy          =      -0.5054393042780851 [Eh]
	 Opposite-Spin Energy      =      -1.5044693678166445 [Eh]
	 Correlation Energy        =      -2.0099086720947295 [Eh]
	 Total Energy              =    -495.3630037212679440 [Eh]

	 ================> DF-SCS-MP2 Energies <==================
	-----------------------------------------------------------
	 SCS Same-Spin Scale       =       0.3333333333333333 [-]
	 SCS Opposite-Spin Scale   =       1.2000000000000000 [-]
	 SCS Same-Spin Energy      =      -0.1684797680926950 [Eh]
	 SCS Opposite-Spin Energy  =      -1.8053632413799734 [Eh]
	 SCS Correlation Energy    =      -1.9738430094726684 [Eh]
	 SCS Total Energy          =    -495.3269380586458510 [Eh]
	-----------------------------------------------------------

  Dipole Moment: [D]
     X:     2.5632      Y:    -0.6048      Z:    -0.5155     Total:     2.6836

*** Psi4 exiting successfully. Buy a developer a beer!
