                               Psi4 1.3.2 release

  ==> Input File <==

--------------------------------------------------------------------------
#psi4
#
memory 32 gb

molecule  {
0 1
  O       -0.1027990     2.1661630    -0.1573240
  O       -2.2585870    -1.3354710    -0.3679860
  O       -2.3909180     0.7817600     0.4224630
  C       -0.2229310    -0.2124960     0.0158460
  C        0.5905450     0.8786281    -0.0496691
  C        0.4335280    -1.4494910     0.0925130
  C        1.9402870     0.8816050    -0.0559020
  C        1.8233140    -1.5265410     0.1016630
  C        2.5770400    -0.3539830     0.0301550
  C       -1.7066960    -0.1573290     0.0554370
  H       -0.1661180    -2.3524960     0.1439440
  H        2.5301710     1.7954230    -0.1182500
  H        2.3148760    -2.4929130     0.1687580
  H        3.6635200    -0.3964420     0.0343940
  H        0.5733460     2.8632860    -0.2381370
  H       -3.2241600    -1.2056690    -0.2641310
units angstrom
no_reorient  #important for SAPT in psi4, default
symmetry c1  #important for SAPT in psi4, default
}

set PROPERTIES_ORIGIN ["COM"]
properties('MP2/aug-cc-pvtz', properties = ['dipole'])
--------------------------------------------------------------------------

    Molecular point group: c1
  Charge       = 0
  Multiplicity = 1
  Basis Set: AUG-CC-PVTZ
    Blend: AUG-CC-PVTZ
  Basis Set: (AUG-CC-PVTZ AUX)
    Blend: AUG-CC-PVTZ-JKFIT

    Orbital Energies [Eh]
    ---------------------

    Doubly Occupied:

       1A    -20.612997     2A    -20.582643     3A    -20.545273
       4A    -11.393773     5A    -11.321689     6A    -11.268246
       7A    -11.265745     8A    -11.258251     9A    -11.249779
      10A    -11.247435    11A     -1.456088    12A     -1.367766
      13A     -1.349436    14A     -1.180965    15A     -1.063857
      16A     -1.031039    17A     -0.902975    18A     -0.861433
      19A     -0.804724    20A     -0.735361    21A     -0.701927
      22A     -0.697675    23A     -0.671897    24A     -0.649975
      25A     -0.626178    26A     -0.620883    27A     -0.594863
      28A     -0.576711    29A     -0.572663    30A     -0.537022
      31A     -0.523486    32A     -0.497891    33A     -0.478073
      34A     -0.449330    35A     -0.365936    36A     -0.345377

  @DF-RHF Final Energy:  -493.34063150050548

   => Energetics <=

    Nuclear Repulsion Energy =            499.3850643611273199
    One-Electron Energy =               -1664.6326687707207839
    Two-Electron Energy =                 671.9069729090879264
    Total Energy =                       -493.3406315005054239
  Basis Set: (AUG-CC-PVTZ AUX)
    Blend: AUG-CC-PVTZ-RI
    Molecular point group: c1

    Geometry (in Angstrom), charge = 0, multiplicity = 1:

       Center              X                  Y                   Z               Mass
    ------------   -----------------  -----------------  -----------------  -----------------
         O           -0.066173495013     2.160997948819    -0.159931548090    15.994914619570
         O           -2.221961495013    -1.340636051181    -0.370593548090    15.994914619570
         O           -2.354292495013     0.776594948819     0.419855451910    15.994914619570
         C           -0.186305495013    -0.217661051181     0.013238451910    12.000000000000
         C            0.627170504987     0.873463048819    -0.052276648090    12.000000000000
         C            0.470153504987    -1.454656051181     0.089905451910    12.000000000000
         C            1.976912504987     0.876439948819    -0.058509548090    12.000000000000
         C            1.859939504987    -1.531706051181     0.099055451910    12.000000000000
         C            2.613665504987    -0.359148051181     0.027547451910    12.000000000000
         C           -1.670070495013    -0.162494051181     0.052829451910    12.000000000000
         H           -0.129492495013    -2.357661051181     0.141336451910     1.007825032230
         H            2.566796504987     1.790257948819    -0.120857548090     1.007825032230
         H            2.351501504987    -2.498078051181     0.166150451910     1.007825032230
         H            3.700145504987    -0.401607051181     0.031786451910     1.007825032230
         H            0.609971504987     2.858120948819    -0.240744548090     1.007825032230
         H           -3.187534495013    -1.210834051181    -0.266738548090     1.007825032230

  Basis Set: AUG-CC-PVTZ
    Blend: AUG-CC-PVTZ
  Basis Set: (AUG-CC-PVTZ AUX)
    Blend: AUG-CC-PVTZ-JKFIT
	 Reference Energy          =    -493.3406315005054807 [Eh]
	 Singles Energy            =      -0.0000000000000000 [Eh]
	 Same-Spin Energy          =      -0.5057464017068475 [Eh]
	 Opposite-Spin Energy      =      -1.5063824398587584 [Eh]
	 Correlation Energy        =      -2.0121288415656058 [Eh]
	 Total Energy              =    -495.3527603420710648 [Eh]

	 ================> DF-SCS-MP2 Energies <==================
	-----------------------------------------------------------
	 SCS Same-Spin Scale       =       0.3333333333333333 [-]
	 SCS Opposite-Spin Scale   =       1.2000000000000000 [-]
	 SCS Same-Spin Energy      =      -0.1685821339022825 [Eh]
	 SCS Opposite-Spin Energy  =      -1.8076589278305100 [Eh]
	 SCS Correlation Energy    =      -1.9762410617327926 [Eh]
	 SCS Total Energy          =    -495.3168725622382453 [Eh]
	-----------------------------------------------------------

  Dipole Moment: [D]
     X:     2.8298      Y:    -1.0547      Z:    -0.4069     Total:     3.0473

*** Psi4 exiting successfully. Buy a developer a beer!
