                               Psi4 1.4a3.dev225

  ==> Input File <==

--------------------------------------------------------------------------
#psi4
#
memory 32 gb

molecule  {
0 1
  O       -0.1026610     2.1662260    -0.1575610
  O       -2.2584930    -1.3355120    -0.3678820
  O       -2.3910220     0.7817980     0.4224010
  C       -0.2229580    -0.2124560     0.0160270
  C        0.5432810     0.9664510    -0.0570850
  C        0.4334420    -1.4495130     0.0922690
  C        1.9403100     0.8815900    -0.0555280
  C        1.8232300    -1.5265840     0.1016960
  C        2.5770020    -0.3540720     0.0300640
  C       -1.7067020    -0.1572630     0.0555130
  H       -0.1662180    -2.3524950     0.1438230
  H        2.5302810     1.7953260    -0.1182260
  H        2.3147800    -2.4929990     0.1682820
  H        3.6634790    -0.3965710     0.0346780
  H        0.6081921     2.8991650    -0.2419579
  H       -3.2240480    -1.2056750    -0.2641070
units angstrom
no_reorient  #important for SAPT in psi4, default
symmetry c1  #important for SAPT in psi4, default
}

set PROPERTIES_ORIGIN ["COM"]
properties('MP2/aug-cc-pvtz', properties = ['dipole'])
--------------------------------------------------------------------------

    Molecular point group: c1
  Charge       = 0
  Multiplicity = 1
  Basis Set: AUG-CC-PVTZ
    Blend: AUG-CC-PVTZ
  Basis Set: (AUG-CC-PVTZ AUX)
    Blend: AUG-CC-PVTZ-JKFIT

    Orbital Energies [Eh]
    ---------------------

    Doubly Occupied:

       1A    -20.609605     2A    -20.606490     3A    -20.542541
       4A    -11.389094     5A    -11.330587     6A    -11.265403
       7A    -11.262719     8A    -11.256272     9A    -11.249467
      10A    -11.242199    11A     -1.453320    12A     -1.405736
      13A     -1.348169    14A     -1.166505    15A     -1.054635
      16A     -1.021359    17A     -0.897283    18A     -0.858525
      19A     -0.800390    20A     -0.739462    21A     -0.707216
      22A     -0.697379    23A     -0.675150    24A     -0.643584
      25A     -0.624473    26A     -0.622863    27A     -0.594939
      28A     -0.587917    29A     -0.577930    30A     -0.536264
      31A     -0.523027    32A     -0.497816    33A     -0.476316
      34A     -0.446270    35A     -0.361612    36A     -0.331412

  @DF-RHF Final Energy:  -493.34855128706909

   => Energetics <=

    Nuclear Repulsion Energy =            498.6592058926015625
    One-Electron Energy =               -1663.2076571703323680
    Two-Electron Energy =                 671.1998999906616064
    Total Energy =                       -493.3485512870690854
  Basis Set: (AUG-CC-PVTZ AUX)
    Blend: AUG-CC-PVTZ-RI
    Molecular point group: c1

    Geometry (in Angstrom), charge = 0, multiplicity = 1:

       Center              X                  Y                   Z               Mass
    ------------   -----------------  -----------------  -----------------  -----------------
         O           -0.062176721851     2.153164800212    -0.159500008293    15.994914619570
         O           -2.218008721851    -1.348573199788    -0.369821008293    15.994914619570
         O           -2.350537721851     0.768736800212     0.420461991707    15.994914619570
         C           -0.182473721851    -0.225517199788     0.014087991707    12.000000000000
         C            0.583765278149     0.953389800212    -0.059024008293    12.000000000000
         C            0.473926278149    -1.462574199788     0.090329991707    12.000000000000
         C            1.980794278149     0.868528800212    -0.057467008293    12.000000000000
         C            1.863714278149    -1.539645199788     0.099756991707    12.000000000000
         C            2.617486278149    -0.367133199788     0.028124991707    12.000000000000
         C           -1.666217721851    -0.170324199788     0.053573991707    12.000000000000
         H           -0.125733721851    -2.365556199788     0.141883991707     1.007825032230
         H            2.570765278149     1.782264800212    -0.120165008293     1.007825032230
         H            2.355264278149    -2.506060199788     0.166342991707     1.007825032230
         H            3.703963278149    -0.409632199788     0.032738991707     1.007825032230
         H            0.648676378149     2.886103800212    -0.243896908293     1.007825032230
         H           -3.183563721851    -1.218736199788    -0.266046008293     1.007825032230

  Basis Set: AUG-CC-PVTZ
    Blend: AUG-CC-PVTZ
  Basis Set: (AUG-CC-PVTZ AUX)
    Blend: AUG-CC-PVTZ-JKFIT
	 Reference Energy          =    -493.3485512870690854 [Eh]
	 Singles Energy            =      -0.0000000000000000 [Eh]
	 Same-Spin Energy          =      -0.5059955514707508 [Eh]
	 Opposite-Spin Energy      =      -1.5060766024776300 [Eh]
	 Correlation Energy        =      -2.0120721539483810 [Eh]
	 Total Energy              =    -495.3606234410174807 [Eh]

	 ================> DF-SCS-MP2 Energies <==================
	-----------------------------------------------------------
	 SCS Same-Spin Scale       =       0.3333333333333333 [-]
	 SCS Opposite-Spin Scale   =       1.2000000000000000 [-]
	 SCS Same-Spin Energy      =      -0.1686651838235836 [Eh]
	 SCS Opposite-Spin Energy  =      -1.8072919229731559 [Eh]
	 SCS Correlation Energy    =      -1.9759571067967394 [Eh]
	 SCS Total Energy          =    -495.3245083938658126 [Eh]
	-----------------------------------------------------------

  Dipole Moment: [D]
     X:     2.6730      Y:    -0.4196      Z:    -0.4668     Total:     2.7457

*** Psi4 exiting successfully. Buy a developer a beer!
