                               Psi4 1.3.2 release

  ==> Input File <==

--------------------------------------------------------------------------
#psi4
#
memory 32 gb

molecule  {
0 1
  O       -0.1027990     2.1661630    -0.1573240
  O       -2.2803500    -1.3263367    -0.3643622
  O       -2.3909180     0.7817600     0.4224630
  C       -0.2229310    -0.2124960     0.0158460
  C        0.5432600     0.9664360    -0.0570110
  C        0.4335280    -1.4494910     0.0925130
  C        1.9402870     0.8816050    -0.0559020
  C        1.8233140    -1.5265410     0.1016630
  C        2.5770400    -0.3539830     0.0301550
  C       -1.7066960    -0.1573290     0.0554370
  H       -0.1661180    -2.3524960     0.1439440
  H        2.5301710     1.7954230    -0.1182500
  H        2.3148760    -2.4929130     0.1687580
  H        3.6635200    -0.3964420     0.0343940
  H        0.5733460     2.8632860    -0.2381370
  H       -3.2241600    -1.2056690    -0.2641310
units angstrom
no_reorient  #important for SAPT in psi4, default
symmetry c1  #important for SAPT in psi4, default
}

set PROPERTIES_ORIGIN ["COM"]
properties('MP2/aug-cc-pvtz', properties = ['dipole'])
--------------------------------------------------------------------------

    Molecular point group: c1
  Charge       = 0
  Multiplicity = 1
  Basis Set: AUG-CC-PVTZ
    Blend: AUG-CC-PVTZ
  Basis Set: (AUG-CC-PVTZ AUX)
    Blend: AUG-CC-PVTZ-JKFIT

    Orbital Energies [Eh]
    ---------------------

    Doubly Occupied:

       1A    -20.606602     2A    -20.602991     3A    -20.541540
       4A    -11.389218     5A    -11.331675     6A    -11.266160
       7A    -11.263571     8A    -11.257585     9A    -11.250338
      10A    -11.243028    11A     -1.455765    12A     -1.415589
      13A     -1.348451    14A     -1.168054    15A     -1.055866
      16A     -1.023447    17A     -0.899746    18A     -0.862611
      19A     -0.804187    20A     -0.746220    21A     -0.711848
      22A     -0.697385    23A     -0.676620    24A     -0.644400
      25A     -0.625199    26A     -0.623945    27A     -0.596617
      28A     -0.589932    29A     -0.580232    30A     -0.537152
      31A     -0.523996    32A     -0.499007    33A     -0.475730
      34A     -0.446229    35A     -0.362367    36A     -0.332479

  @DF-RHF Final Energy:  -493.35514615439945

   => Energetics <=

    Nuclear Repulsion Energy =            498.8915442947928227
    One-Electron Energy =               -1663.5818160113403792
    Two-Electron Energy =                 671.3351255621481641
    Total Energy =                       -493.3551461543994492
  Basis Set: (AUG-CC-PVTZ AUX)
    Blend: AUG-CC-PVTZ-RI
    Molecular point group: c1

    Geometry (in Angstrom), charge = 0, multiplicity = 1:

       Center              X                  Y                   Z               Mass
    ------------   -----------------  -----------------  -----------------  -----------------
         O           -0.059540834788     2.152305762891    -0.159713189338    15.994914619570
         O           -2.237091834788    -1.340193937109    -0.366751389338    15.994914619570
         O           -2.347659834788     0.767902762891     0.420073810662    15.994914619570
         C           -0.179672834788    -0.226353237109     0.013456810662    12.000000000000
         C            0.586518165212     0.952578762891    -0.059400189338    12.000000000000
         C            0.476786165212    -1.463348237109     0.090123810662    12.000000000000
         C            1.983545165212     0.867747762891    -0.058291189338    12.000000000000
         C            1.866572165212    -1.540398237109     0.099273810662    12.000000000000
         C            2.620298165212    -0.367840237109     0.027765810662    12.000000000000
         C           -1.663437834788    -0.171186237109     0.053047810662    12.000000000000
         H           -0.122859834788    -2.366353237109     0.141554810662     1.007825032230
         H            2.573429165212     1.781565762891    -0.120639189338     1.007825032230
         H            2.358134165212    -2.506770237109     0.166368810662     1.007825032230
         H            3.706778165212    -0.410299237109     0.032004810662     1.007825032230
         H            0.616604165212     2.849428762891    -0.240526189338     1.007825032230
         H           -3.180901834788    -1.219526237109    -0.266520189338     1.007825032230

  Basis Set: AUG-CC-PVTZ
    Blend: AUG-CC-PVTZ
  Basis Set: (AUG-CC-PVTZ AUX)
    Blend: AUG-CC-PVTZ-JKFIT
	 Reference Energy          =    -493.3551461543994492 [Eh]
	 Singles Energy            =      -0.0000000000000000 [Eh]
	 Same-Spin Energy          =      -0.5048635282989740 [Eh]
	 Opposite-Spin Energy      =      -1.5034441377119827 [Eh]
	 Correlation Energy        =      -2.0083076660109569 [Eh]
	 Total Energy              =    -495.3634538204104274 [Eh]

	 ================> DF-SCS-MP2 Energies <==================
	-----------------------------------------------------------
	 SCS Same-Spin Scale       =       0.3333333333333333 [-]
	 SCS Opposite-Spin Scale   =       1.2000000000000000 [-]
	 SCS Same-Spin Energy      =      -0.1682878427663246 [Eh]
	 SCS Opposite-Spin Energy  =      -1.8041329652543792 [Eh]
	 SCS Correlation Energy    =      -1.9724208080207037 [Eh]
	 SCS Total Energy          =    -495.3275669624201782 [Eh]
	-----------------------------------------------------------

  Dipole Moment: [D]
     X:     2.7174      Y:    -0.4681      Z:    -0.4618     Total:     2.7959

*** Psi4 exiting successfully. Buy a developer a beer!
