                               Psi4 1.3.2 release

  ==> Input File <==

--------------------------------------------------------------------------
#psi4
#
memory 32 gb

molecule  {
0 1
  O       -0.1027990     2.1661630    -0.1573240
  O       -2.2585870    -1.3354710    -0.3679860
  O       -2.4595772     0.7345862     0.4053128
  C       -0.2229310    -0.2124960     0.0158460
  C        0.5432600     0.9664360    -0.0570110
  C        0.4335280    -1.4494910     0.0925130
  C        1.9402870     0.8816050    -0.0559020
  C        1.8233140    -1.5265410     0.1016630
  C        2.5770400    -0.3539830     0.0301550
  C       -1.7066960    -0.1573290     0.0554370
  H       -0.1661180    -2.3524960     0.1439440
  H        2.5301710     1.7954230    -0.1182500
  H        2.3148760    -2.4929130     0.1687580
  H        3.6635200    -0.3964420     0.0343940
  H        0.5733460     2.8632860    -0.2381370
  H       -3.2241600    -1.2056690    -0.2641310
units angstrom
no_reorient  #important for SAPT in psi4, default
symmetry c1  #important for SAPT in psi4, default
}

set PROPERTIES_ORIGIN ["COM"]
properties('MP2/aug-cc-pvtz', properties = ['dipole'])
--------------------------------------------------------------------------

    Molecular point group: c1
  Charge       = 0
  Multiplicity = 1
  Basis Set: AUG-CC-PVTZ
    Blend: AUG-CC-PVTZ
  Basis Set: (AUG-CC-PVTZ AUX)
    Blend: AUG-CC-PVTZ-JKFIT

    Orbital Energies [Eh]
    ---------------------

    Doubly Occupied:

       1A    -20.605252     2A    -20.602559     3A    -20.541063
       4A    -11.388729     5A    -11.333424     6A    -11.267779
       7A    -11.265340     8A    -11.260002     9A    -11.251605
      10A    -11.244324    11A     -1.453373    12A     -1.417571
      13A     -1.341623    14A     -1.169668    15A     -1.057491
      16A     -1.024990    17A     -0.899017    18A     -0.863502
      19A     -0.801010    20A     -0.747561    21A     -0.708447
      22A     -0.696112    23A     -0.676467    24A     -0.644423
      25A     -0.626002    26A     -0.623291    27A     -0.597718
      28A     -0.589535    29A     -0.582386    30A     -0.537600
      31A     -0.525284    32A     -0.499934    33A     -0.473063
      34A     -0.446193    35A     -0.364181    36A     -0.334165

  @DF-RHF Final Energy:  -493.35317999127676

   => Energetics <=

    Nuclear Repulsion Energy =            498.3541449035667483
    One-Electron Energy =               -1662.4932771359278831
    Two-Electron Energy =                 670.7859522410843738
    Total Energy =                       -493.3531799912767610
  Basis Set: (AUG-CC-PVTZ AUX)
    Blend: AUG-CC-PVTZ-RI
    Molecular point group: c1

    Geometry (in Angstrom), charge = 0, multiplicity = 1:

       Center              X                  Y                   Z               Mass
    ------------   -----------------  -----------------  -----------------  -----------------
         O           -0.054106570432     2.158830664712    -0.157305928031    15.994914619570
         O           -2.209894570432    -1.342803335288    -0.367967928031    15.994914619570
         O           -2.410884770432     0.727253864712     0.405330871969    15.994914619570
         C           -0.174238570432    -0.219828335288     0.015864071969    12.000000000000
         C            0.591952429568     0.959103664712    -0.056992928031    12.000000000000
         C            0.482220429568    -1.456823335288     0.092531071969    12.000000000000
         C            1.988979429568     0.874272664712    -0.055883928031    12.000000000000
         C            1.872006429568    -1.533873335288     0.101681071969    12.000000000000
         C            2.625732429568    -0.361315335288     0.030173071969    12.000000000000
         C           -1.658003570432    -0.164661335288     0.055455071969    12.000000000000
         H           -0.117425570432    -2.359828335288     0.143962071969     1.007825032230
         H            2.578863429568     1.788090664712    -0.118231928031     1.007825032230
         H            2.363568429568    -2.500245335288     0.168776071969     1.007825032230
         H            3.712212429568    -0.403774335288     0.034412071969     1.007825032230
         H            0.622038429568     2.855953664712    -0.238118928031     1.007825032230
         H           -3.175467570432    -1.213001335288    -0.264112928031     1.007825032230

  Basis Set: AUG-CC-PVTZ
    Blend: AUG-CC-PVTZ
  Basis Set: (AUG-CC-PVTZ AUX)
    Blend: AUG-CC-PVTZ-JKFIT
	 Reference Energy          =    -493.3531799912767610 [Eh]
	 Singles Energy            =      -0.0000000000000000 [Eh]
	 Same-Spin Energy          =      -0.5050700355877167 [Eh]
	 Opposite-Spin Energy      =      -1.5039473878060037 [Eh]
	 Correlation Energy        =      -2.0090174233937201 [Eh]
	 Total Energy              =    -495.3621974146705043 [Eh]

	 ================> DF-SCS-MP2 Energies <==================
	-----------------------------------------------------------
	 SCS Same-Spin Scale       =       0.3333333333333333 [-]
	 SCS Opposite-Spin Scale   =       1.2000000000000000 [-]
	 SCS Same-Spin Energy      =      -0.1683566785292389 [Eh]
	 SCS Opposite-Spin Energy  =      -1.8047368653672042 [Eh]
	 SCS Correlation Energy    =      -1.9730935438964432 [Eh]
	 SCS Total Energy          =    -495.3262735351731862 [Eh]
	-----------------------------------------------------------

  Dipole Moment: [D]
     X:     2.9407      Y:    -0.3854      Z:    -0.4303     Total:     2.9969

*** Psi4 exiting successfully. Buy a developer a beer!
