                               Psi4 1.3.2 release

  ==> Input File <==

--------------------------------------------------------------------------
#psi4
#
memory 32 gb

molecule  {
0 1
  O       -0.1027990     2.1661630    -0.1573240
  O       -2.2585870    -1.3354710    -0.3679860
  O       -2.3909180     0.7817600     0.4224630
  C       -0.2229310    -0.2124960     0.0158460
  C        0.5432600     0.9664360    -0.0570110
  C        0.3898988    -1.4714900     0.0955118
  C        1.9402870     0.8816050    -0.0559020
  C        1.8233140    -1.5265410     0.1016630
  C        2.5770400    -0.3539830     0.0301550
  C       -1.7066960    -0.1573290     0.0554370
  H       -0.1661180    -2.3524960     0.1439440
  H        2.5301710     1.7954230    -0.1182500
  H        2.3148760    -2.4929130     0.1687580
  H        3.6635200    -0.3964420     0.0343940
  H        0.5733460     2.8632860    -0.2381370
  H       -3.2241600    -1.2056690    -0.2641310
units angstrom
no_reorient  #important for SAPT in psi4, default
symmetry c1  #important for SAPT in psi4, default
}

set PROPERTIES_ORIGIN ["COM"]
properties('MP2/aug-cc-pvtz', properties = ['dipole'])
--------------------------------------------------------------------------

    Molecular point group: c1
  Charge       = 0
  Multiplicity = 1
  Basis Set: AUG-CC-PVTZ
    Blend: AUG-CC-PVTZ
  Basis Set: (AUG-CC-PVTZ AUX)
    Blend: AUG-CC-PVTZ-JKFIT

    Orbital Energies [Eh]
    ---------------------

    Doubly Occupied:

       1A    -20.609970     2A    -20.602569     3A    -20.542473
       4A    -11.388502     5A    -11.330957     6A    -11.265329
       7A    -11.264801     8A    -11.258352     9A    -11.249959
      10A    -11.247110    11A     -1.453769    12A     -1.415109
      13A     -1.348411    14A     -1.163689    15A     -1.056634
      16A     -1.018469    17A     -0.896246    18A     -0.865525
      19A     -0.798933    20A     -0.749938    21A     -0.708181
      22A     -0.697250    23A     -0.673282    24A     -0.644254
      25A     -0.633075    26A     -0.624281    27A     -0.596149
      28A     -0.588581    29A     -0.577652    30A     -0.535700
      31A     -0.528862    32A     -0.495631    33A     -0.476254
      34A     -0.445121    35A     -0.362772    36A     -0.328452

  @DF-RHF Final Energy:  -493.34996017142925

   => Energetics <=

    Nuclear Repulsion Energy =            498.5420442385610613
    One-Electron Energy =               -1662.8995241438312860
    Two-Electron Energy =                 671.0075197338410362
    Total Energy =                       -493.3499601714293021
  Basis Set: (AUG-CC-PVTZ AUX)
    Blend: AUG-CC-PVTZ-RI
    Molecular point group: c1

    Geometry (in Angstrom), charge = 0, multiplicity = 1:

       Center              X                  Y                   Z               Mass
    ------------   -----------------  -----------------  -----------------  -----------------
         O           -0.058269727639     2.155276749746    -0.159553973937    15.994914619570
         O           -2.214057727639    -1.346357250254    -0.370215973937    15.994914619570
         O           -2.346388727639     0.770873749746     0.420233026063    15.994914619570
         C           -0.178401727639    -0.223382250254     0.013616026063    12.000000000000
         C            0.587789272361     0.955549749746    -0.059240973937    12.000000000000
         C            0.434428072361    -1.482376250254     0.093281826063    12.000000000000
         C            1.984816272361     0.870718749746    -0.058131973937    12.000000000000
         C            1.867843272361    -1.537427250254     0.099433026063    12.000000000000
         C            2.621569272361    -0.364869250254     0.027925026063    12.000000000000
         C           -1.662166727639    -0.168215250254     0.053207026063    12.000000000000
         H           -0.121588727639    -2.363382250254     0.141714026063     1.007825032230
         H            2.574700272361     1.784536749746    -0.120479973937     1.007825032230
         H            2.359405272361    -2.503799250254     0.166528026063     1.007825032230
         H            3.708049272361    -0.407328250254     0.032164026063     1.007825032230
         H            0.617875272361     2.852399749746    -0.240366973937     1.007825032230
         H           -3.179630727639    -1.216555250254    -0.266360973937     1.007825032230

  Basis Set: AUG-CC-PVTZ
    Blend: AUG-CC-PVTZ
  Basis Set: (AUG-CC-PVTZ AUX)
    Blend: AUG-CC-PVTZ-JKFIT
	 Reference Energy          =    -493.3499601714292453 [Eh]
	 Singles Energy            =      -0.0000000000000000 [Eh]
	 Same-Spin Energy          =      -0.5053938728030334 [Eh]
	 Opposite-Spin Energy      =      -1.5048420692346764 [Eh]
	 Correlation Energy        =      -2.0102359420377098 [Eh]
	 Total Energy              =    -495.3601961134669409 [Eh]

	 ================> DF-SCS-MP2 Energies <==================
	-----------------------------------------------------------
	 SCS Same-Spin Scale       =       0.3333333333333333 [-]
	 SCS Opposite-Spin Scale   =       1.2000000000000000 [-]
	 SCS Same-Spin Energy      =      -0.1684646242676778 [Eh]
	 SCS Opposite-Spin Energy  =      -1.8058104830816117 [Eh]
	 SCS Correlation Energy    =      -1.9742751073492895 [Eh]
	 SCS Total Energy          =    -495.3242352787785308 [Eh]
	-----------------------------------------------------------

  Dipole Moment: [D]
     X:     2.6454      Y:    -0.4829      Z:    -0.4647     Total:     2.7290

*** Psi4 exiting successfully. Buy a developer a beer!
