                               Psi4 1.3.2 release

  ==> Input File <==

--------------------------------------------------------------------------
#psi4
#
memory 32 gb

molecule  {
0 1
  O        0.0265818     2.2268271    -0.1631139
  O       -2.2585870    -1.3354710    -0.3679860
  O       -2.3909180     0.7817600     0.4224630
  C       -0.2229310    -0.2124960     0.0158460
  C        0.5432600     0.9664360    -0.0570110
  C        0.4335280    -1.4494910     0.0925130
  C        1.9402870     0.8816050    -0.0559020
  C        1.8233140    -1.5265410     0.1016630
  C        2.5770400    -0.3539830     0.0301550
  C       -1.7066960    -0.1573290     0.0554370
  H       -0.1661180    -2.3524960     0.1439440
  H        2.5301710     1.7954230    -0.1182500
  H        2.3148760    -2.4929130     0.1687580
  H        3.6635200    -0.3964420     0.0343940
  H        0.5733460     2.8632860    -0.2381370
  H       -3.2241600    -1.2056690    -0.2641310
units angstrom
no_reorient  #important for SAPT in psi4, default
symmetry c1  #important for SAPT in psi4, default
}

set PROPERTIES_ORIGIN ["COM"]
properties('MP2/aug-cc-pvtz', properties = ['dipole'])
--------------------------------------------------------------------------

    Molecular point group: c1
  Charge       = 0
  Multiplicity = 1
  Basis Set: AUG-CC-PVTZ
    Blend: AUG-CC-PVTZ
  Basis Set: (AUG-CC-PVTZ AUX)
    Blend: AUG-CC-PVTZ-JKFIT

    Orbital Energies [Eh]
    ---------------------

    Doubly Occupied:

       1A    -20.611297     2A    -20.585064     3A    -20.544840
       4A    -11.391196     5A    -11.335253     6A    -11.264545
       7A    -11.264445     8A    -11.261321     9A    -11.247860
      10A    -11.243558    11A     -1.455435    12A     -1.441214
      13A     -1.350404    14A     -1.170750    15A     -1.056375
      16A     -1.029433    17A     -0.902571    18A     -0.872549
      19A     -0.809687    20A     -0.768632    21A     -0.713992
      22A     -0.699087    23A     -0.674283    24A     -0.649297
      25A     -0.628247    26A     -0.626146    27A     -0.598621
      28A     -0.588449    29A     -0.578843    30A     -0.532694
      31A     -0.525103    32A     -0.500106    33A     -0.478124
      34A     -0.448865    35A     -0.362565    36A     -0.333217

  @DF-RHF Final Energy:  -493.33826821992062

   => Energetics <=

    Nuclear Repulsion Energy =            498.5328611223509370
    One-Electron Energy =               -1662.6541276219586507
    Two-Electron Energy =                 670.7829982796871491
    Total Energy =                       -493.3382682199206783
  Basis Set: (AUG-CC-PVTZ AUX)
    Blend: AUG-CC-PVTZ-RI
    Molecular point group: c1

    Geometry (in Angstrom), charge = 0, multiplicity = 1:

       Center              X                  Y                   Z               Mass
    ------------   -----------------  -----------------  -----------------  -----------------
         O            0.052325638572     2.206998663617    -0.164412243292    15.994914619570
         O           -2.232843161428    -1.355299436383    -0.369284343292    15.994914619570
         O           -2.365174161428     0.761931563617     0.421164656708    15.994914619570
         C           -0.197187161428    -0.232324436383     0.014547656708    12.000000000000
         C            0.569003838572     0.946607563617    -0.058309343292    12.000000000000
         C            0.459271838572    -1.469319436383     0.091214656708    12.000000000000
         C            1.966030838572     0.861776563617    -0.057200343292    12.000000000000
         C            1.849057838572    -1.546369436383     0.100364656708    12.000000000000
         C            2.602783838572    -0.373811436383     0.028856656708    12.000000000000
         C           -1.680952161428    -0.177157436383     0.054138656708    12.000000000000
         H           -0.140374161428    -2.372324436383     0.142645656708     1.007825032230
         H            2.555914838572     1.775594563617    -0.119548343292     1.007825032230
         H            2.340619838572    -2.512741436383     0.167459656708     1.007825032230
         H            3.689263838572    -0.416270436383     0.033095656708     1.007825032230
         H            0.599089838572     2.843457563617    -0.239435343292     1.007825032230
         H           -3.198416161428    -1.225497436383    -0.265429343292     1.007825032230

  Basis Set: AUG-CC-PVTZ
    Blend: AUG-CC-PVTZ
  Basis Set: (AUG-CC-PVTZ AUX)
    Blend: AUG-CC-PVTZ-JKFIT
	 Reference Energy          =    -493.3382682199206215 [Eh]
	 Singles Energy            =      -0.0000000000000000 [Eh]
	 Same-Spin Energy          =      -0.5032187345695145 [Eh]
	 Opposite-Spin Energy      =      -1.4997316777499141 [Eh]
	 Correlation Energy        =      -2.0029504123194286 [Eh]
	 Total Energy              =    -495.3412186322400430 [Eh]

	 ================> DF-SCS-MP2 Energies <==================
	-----------------------------------------------------------
	 SCS Same-Spin Scale       =       0.3333333333333333 [-]
	 SCS Opposite-Spin Scale   =       1.2000000000000000 [-]
	 SCS Same-Spin Energy      =      -0.1677395781898381 [Eh]
	 SCS Opposite-Spin Energy  =      -1.7996780132998969 [Eh]
	 SCS Correlation Energy    =      -1.9674175914897349 [Eh]
	 SCS Total Energy          =    -495.3056858114103420 [Eh]
	-----------------------------------------------------------

  Dipole Moment: [D]
     X:     2.5789      Y:    -0.6503      Z:    -0.4568     Total:     2.6986

*** Psi4 exiting successfully. Buy a developer a beer!
