                               Psi4 1.3.2 release

  ==> Input File <==

--------------------------------------------------------------------------
#psi4
#
memory 32 gb

molecule  {
0 1
  O       -0.1027990     2.1661630    -0.1573240
  O       -2.2585870    -1.3354710    -0.3679860
  O       -2.3909180     0.7817600     0.4224630
  C       -0.2229310    -0.2124960     0.0158460
  C        0.5432600     0.9664360    -0.0570110
  C        0.5183348    -1.4010004     0.0862389
  C        1.9402870     0.8816050    -0.0559020
  C        1.8233140    -1.5265410     0.1016630
  C        2.5770400    -0.3539830     0.0301550
  C       -1.7066960    -0.1573290     0.0554370
  H       -0.1661180    -2.3524960     0.1439440
  H        2.5301710     1.7954230    -0.1182500
  H        2.3148760    -2.4929130     0.1687580
  H        3.6635200    -0.3964420     0.0343940
  H        0.5733460     2.8632860    -0.2381370
  H       -3.2241600    -1.2056690    -0.2641310
units angstrom
no_reorient  #important for SAPT in psi4, default
symmetry c1  #important for SAPT in psi4, default
}

set PROPERTIES_ORIGIN ["COM"]
properties('MP2/aug-cc-pvtz', properties = ['dipole'])
--------------------------------------------------------------------------

    Molecular point group: c1
  Charge       = 0
  Multiplicity = 1
  Basis Set: AUG-CC-PVTZ
    Blend: AUG-CC-PVTZ
  Basis Set: (AUG-CC-PVTZ AUX)
    Blend: AUG-CC-PVTZ-JKFIT

    Orbital Energies [Eh]
    ---------------------

    Doubly Occupied:

       1A    -20.609365     2A    -20.603028     3A    -20.543200
       4A    -11.390987     5A    -11.331378     6A    -11.267629
       7A    -11.258466     8A    -11.254146     9A    -11.249918
      10A    -11.233268    11A     -1.453221    12A     -1.415543
      13A     -1.348486    14A     -1.177022    15A     -1.052887
      16A     -1.032981    17A     -0.901040    18A     -0.855088
      19A     -0.806427    20A     -0.739807    21A     -0.710655
      22A     -0.699718    23A     -0.681232    24A     -0.644662
      25A     -0.624536    26A     -0.612807    27A     -0.596767
      28A     -0.592658    29A     -0.581040    30A     -0.541702
      31A     -0.506408    32A     -0.501625    33A     -0.476130
      34A     -0.448724    35A     -0.361426    36A     -0.338908

  @DF-RHF Final Energy:  -493.34156431779388

   => Energetics <=

    Nuclear Repulsion Energy =            499.9693734422467060
    One-Electron Energy =               -1665.7361044302288065
    Two-Electron Energy =                 672.4251666701882186
    Total Energy =                       -493.3415643177938819
  Basis Set: (AUG-CC-PVTZ AUX)
    Blend: AUG-CC-PVTZ-RI
    Molecular point group: c1

    Geometry (in Angstrom), charge = 0, multiplicity = 1:

       Center              X                  Y                   Z               Mass
    ------------   -----------------  -----------------  -----------------  -----------------
         O           -0.069435511052     2.149148626739    -0.158747819953    15.994914619570
         O           -2.225223511052    -1.352485373261    -0.369409819953    15.994914619570
         O           -2.357554511052     0.764745626739     0.421039180047    15.994914619570
         C           -0.189567511052    -0.229510373261     0.014422180047    12.000000000000
         C            0.576623488948     0.949421626739    -0.058434819953    12.000000000000
         C            0.551698288948    -1.418014773261     0.084815080047    12.000000000000
         C            1.973650488948     0.864590626739    -0.057325819953    12.000000000000
         C            1.856677488948    -1.543555373261     0.100239180047    12.000000000000
         C            2.610403488948    -0.370997373261     0.028731180047    12.000000000000
         C           -1.673332511052    -0.174343373261     0.054013180047    12.000000000000
         H           -0.132754511052    -2.369510373261     0.142520180047     1.007825032230
         H            2.563534488948     1.778408626739    -0.119673819953     1.007825032230
         H            2.348239488948    -2.509927373261     0.167334180047     1.007825032230
         H            3.696883488948    -0.413456373261     0.032970180047     1.007825032230
         H            0.606709488948     2.846271626739    -0.239560819953     1.007825032230
         H           -3.190796511052    -1.222683373261    -0.265554819953     1.007825032230

  Basis Set: AUG-CC-PVTZ
    Blend: AUG-CC-PVTZ
  Basis Set: (AUG-CC-PVTZ AUX)
    Blend: AUG-CC-PVTZ-JKFIT
	 Reference Energy          =    -493.3415643177938819 [Eh]
	 Singles Energy            =      -0.0000000000000000 [Eh]
	 Same-Spin Energy          =      -0.5055157271600274 [Eh]
	 Opposite-Spin Energy      =      -1.5046588480681011 [Eh]
	 Correlation Energy        =      -2.0101745752281284 [Eh]
	 Total Energy              =    -495.3517388930220022 [Eh]

	 ================> DF-SCS-MP2 Energies <==================
	-----------------------------------------------------------
	 SCS Same-Spin Scale       =       0.3333333333333333 [-]
	 SCS Opposite-Spin Scale   =       1.2000000000000000 [-]
	 SCS Same-Spin Energy      =      -0.1685052423866758 [Eh]
	 SCS Opposite-Spin Energy  =      -1.8055906176817214 [Eh]
	 SCS Correlation Energy    =      -1.9740958600683971 [Eh]
	 SCS Total Energy          =    -495.3156601778622985 [Eh]
	-----------------------------------------------------------

  Dipole Moment: [D]
     X:     2.6840      Y:    -0.4216      Z:    -0.4606     Total:     2.7557

*** Psi4 exiting successfully. Buy a developer a beer!
