                               Psi4 1.3.2 release

  ==> Input File <==

--------------------------------------------------------------------------
#psi4
#
memory 32 gb

molecule  {
0 1
  O       -0.1027990     2.1661630    -0.1573240
  O       -2.2585870    -1.3354710    -0.3679860
  O       -2.3909180     0.7817600     0.4224630
  C       -0.2229310    -0.2124960     0.0158460
  C        0.5015940     0.9924935    -0.0569631
  C        0.4335280    -1.4494910     0.0925130
  C        1.9402870     0.8816050    -0.0559020
  C        1.8233140    -1.5265410     0.1016630
  C        2.5770400    -0.3539830     0.0301550
  C       -1.7066960    -0.1573290     0.0554370
  H       -0.1661180    -2.3524960     0.1439440
  H        2.5301710     1.7954230    -0.1182500
  H        2.3148760    -2.4929130     0.1687580
  H        3.6635200    -0.3964420     0.0343940
  H        0.5733460     2.8632860    -0.2381370
  H       -3.2241600    -1.2056690    -0.2641310
units angstrom
no_reorient  #important for SAPT in psi4, default
symmetry c1  #important for SAPT in psi4, default
}

set PROPERTIES_ORIGIN ["COM"]
properties('MP2/aug-cc-pvtz', properties = ['dipole'])
--------------------------------------------------------------------------

    Molecular point group: c1
  Charge       = 0
  Multiplicity = 1
  Basis Set: AUG-CC-PVTZ
    Blend: AUG-CC-PVTZ
  Basis Set: (AUG-CC-PVTZ AUX)
    Blend: AUG-CC-PVTZ-JKFIT

    Orbital Energies [Eh]
    ---------------------

    Doubly Occupied:

       1A    -20.611318     2A    -20.608546     3A    -20.541821
       4A    -11.387396     5A    -11.336316     6A    -11.263979
       7A    -11.261614     8A    -11.254057     9A    -11.251811
      10A    -11.239937    11A     -1.453366    12A     -1.438188
      13A     -1.347880    14A     -1.162306    15A     -1.053161
      16A     -1.017328    17A     -0.894622    18A     -0.866317
      19A     -0.799402    20A     -0.755612    21A     -0.709525
      22A     -0.697173    23A     -0.678969    24A     -0.646029
      25A     -0.627406    26A     -0.623795    27A     -0.605683
      28A     -0.585701    29A     -0.581798    30A     -0.536789
      31A     -0.518824    32A     -0.497164    33A     -0.475919
      34A     -0.444777    35A     -0.360707    36A     -0.325411

  @DF-RHF Final Energy:  -493.35169086045380

   => Energetics <=

    Nuclear Repulsion Energy =            499.0218379797813668
    One-Electron Energy =               -1663.8257574808742447
    Two-Electron Energy =                 671.4522286406390776
    Total Energy =                       -493.3516908604538003
  Basis Set: (AUG-CC-PVTZ AUX)
    Blend: AUG-CC-PVTZ-RI
    Molecular point group: c1

    Geometry (in Angstrom), charge = 0, multiplicity = 1:

       Center              X                  Y                   Z               Mass
    ------------   -----------------  -----------------  -----------------  -----------------
         O           -0.058440401484     2.151098883177    -0.159297432856    15.994914619570
         O           -2.214228401484    -1.350535116823    -0.369959432856    15.994914619570
         O           -2.346559401484     0.766695883177     0.420489567144    15.994914619570
         C           -0.178572401484    -0.227560116823     0.013872567144    12.000000000000
         C            0.545952598516     0.977429383177    -0.058936532856    12.000000000000
         C            0.477886598516    -1.464555116823     0.090539567144    12.000000000000
         C            1.984645598516     0.866540883177    -0.057875432856    12.000000000000
         C            1.867672598516    -1.541605116823     0.099689567144    12.000000000000
         C            2.621398598516    -0.369047116823     0.028181567144    12.000000000000
         C           -1.662337401484    -0.172393116823     0.053463567144    12.000000000000
         H           -0.121759401484    -2.367560116823     0.141970567144     1.007825032230
         H            2.574529598516     1.780358883177    -0.120223432856     1.007825032230
         H            2.359234598516    -2.507977116823     0.166784567144     1.007825032230
         H            3.707878598516    -0.411506116823     0.032420567144     1.007825032230
         H            0.617704598516     2.848221883177    -0.240110432856     1.007825032230
         H           -3.179801401484    -1.220733116823    -0.266104432856     1.007825032230

  Basis Set: AUG-CC-PVTZ
    Blend: AUG-CC-PVTZ
  Basis Set: (AUG-CC-PVTZ AUX)
    Blend: AUG-CC-PVTZ-JKFIT
	 Reference Energy          =    -493.3516908604538003 [Eh]
	 Singles Energy            =      -0.0000000000000000 [Eh]
	 Same-Spin Energy          =      -0.5052552188694426 [Eh]
	 Opposite-Spin Energy      =      -1.5038205589716238 [Eh]
	 Correlation Energy        =      -2.0090757778410664 [Eh]
	 Total Energy              =    -495.3607666382948764 [Eh]

	 ================> DF-SCS-MP2 Energies <==================
	-----------------------------------------------------------
	 SCS Same-Spin Scale       =       0.3333333333333333 [-]
	 SCS Opposite-Spin Scale   =       1.2000000000000000 [-]
	 SCS Same-Spin Energy      =      -0.1684184062898142 [Eh]
	 SCS Opposite-Spin Energy  =      -1.8045846707659485 [Eh]
	 SCS Correlation Energy    =      -1.9730030770557627 [Eh]
	 SCS Total Energy          =    -495.3246939375095508 [Eh]
	-----------------------------------------------------------

  Dipole Moment: [D]
     X:     2.5640      Y:    -0.2016      Z:    -0.4865     Total:     2.6175

*** Psi4 exiting successfully. Buy a developer a beer!
