                               Psi4 1.3.2 release

  ==> Input File <==

--------------------------------------------------------------------------
#psi4
#
memory 32 gb

molecule  {
0 1
  O       -0.1237073     2.1547054    -0.1568630
  O       -2.2585870    -1.3354710    -0.3679860
  O       -2.3909180     0.7817600     0.4224630
  C       -0.2229310    -0.2124960     0.0158460
  C        0.5432600     0.9664360    -0.0570110
  C        0.4335280    -1.4494910     0.0925130
  C        1.9402870     0.8816050    -0.0559020
  C        1.8233140    -1.5265410     0.1016630
  C        2.5770400    -0.3539830     0.0301550
  C       -1.7066960    -0.1573290     0.0554370
  H       -0.1661180    -2.3524960     0.1439440
  H        2.5301710     1.7954230    -0.1182500
  H        2.3148760    -2.4929130     0.1687580
  H        3.6635200    -0.3964420     0.0343940
  H        0.5733460     2.8632860    -0.2381370
  H       -3.2241600    -1.2056690    -0.2641310
units angstrom
no_reorient  #important for SAPT in psi4, default
symmetry c1  #important for SAPT in psi4, default
}

set PROPERTIES_ORIGIN ["COM"]
properties('MP2/aug-cc-pvtz', properties = ['dipole'])
--------------------------------------------------------------------------

    Molecular point group: c1
  Charge       = 0
  Multiplicity = 1
  Basis Set: AUG-CC-PVTZ
    Blend: AUG-CC-PVTZ
  Basis Set: (AUG-CC-PVTZ AUX)
    Blend: AUG-CC-PVTZ-JKFIT

    Orbital Energies [Eh]
    ---------------------

    Doubly Occupied:

       1A    -20.609585     2A    -20.605196     3A    -20.542402
       4A    -11.389027     5A    -11.330532     6A    -11.265839
       7A    -11.262681     8A    -11.255842     9A    -11.250228
      10A    -11.242441    11A     -1.453356    12A     -1.411760
      13A     -1.348133    14A     -1.166998    15A     -1.054876
      16A     -1.022211    17A     -0.897497    18A     -0.860263
      19A     -0.800579    20A     -0.741961    21A     -0.707620
      22A     -0.697605    23A     -0.676411    24A     -0.643370
      25A     -0.624943    26A     -0.622827    27A     -0.595923
      28A     -0.588960    29A     -0.580090    30A     -0.537800
      31A     -0.522931    32A     -0.498238    33A     -0.476257
      34A     -0.446214    35A     -0.361732    36A     -0.331844

  @DF-RHF Final Energy:  -493.35138529883818

   => Energetics <=

    Nuclear Repulsion Energy =            499.0888572145525472
    One-Electron Energy =               -1664.0321485911231321
    Two-Electron Energy =                 671.5919060777324603
    Total Energy =                       -493.3513852988381814
  Basis Set: (AUG-CC-PVTZ AUX)
    Blend: AUG-CC-PVTZ-RI
    Molecular point group: c1

    Geometry (in Angstrom), charge = 0, multiplicity = 1:

       Center              X                  Y                   Z               Mass
    ------------   -----------------  -----------------  -----------------  -----------------
         O           -0.080548176197     2.143234322712    -0.158885688613    15.994914619570
         O           -2.215427876197    -1.346942077288    -0.370008688613    15.994914619570
         O           -2.347758876197     0.770288922712     0.420440311387    15.994914619570
         C           -0.179771876197    -0.223967077288     0.013823311387    12.000000000000
         C            0.586419123803     0.954964922712    -0.059033688613    12.000000000000
         C            0.476687123803    -1.460962077288     0.090490311387    12.000000000000
         C            1.983446123803     0.870133922712    -0.057924688613    12.000000000000
         C            1.866473123803    -1.538012077288     0.099640311387    12.000000000000
         C            2.620199123803    -0.365454077288     0.028132311387    12.000000000000
         C           -1.663536876197    -0.168800077288     0.053414311387    12.000000000000
         H           -0.122958876197    -2.363967077288     0.141921311387     1.007825032230
         H            2.573330123803     1.783951922712    -0.120272688613     1.007825032230
         H            2.358035123803    -2.504384077288     0.166735311387     1.007825032230
         H            3.706679123803    -0.407913077288     0.032371311387     1.007825032230
         H            0.616505123803     2.851814922712    -0.240159688613     1.007825032230
         H           -3.181000876197    -1.217140077288    -0.266153688613     1.007825032230

  Basis Set: AUG-CC-PVTZ
    Blend: AUG-CC-PVTZ
  Basis Set: (AUG-CC-PVTZ AUX)
    Blend: AUG-CC-PVTZ-JKFIT
	 Reference Energy          =    -493.3513852988381814 [Eh]
	 Singles Energy            =      -0.0000000000000000 [Eh]
	 Same-Spin Energy          =      -0.5057794655455277 [Eh]
	 Opposite-Spin Energy      =      -1.5054094495228258 [Eh]
	 Correlation Energy        =      -2.0111889150683533 [Eh]
	 Total Energy              =    -495.3625742139065551 [Eh]

	 ================> DF-SCS-MP2 Energies <==================
	-----------------------------------------------------------
	 SCS Same-Spin Scale       =       0.3333333333333333 [-]
	 SCS Opposite-Spin Scale   =       1.2000000000000000 [-]
	 SCS Same-Spin Energy      =      -0.1685931551818425 [Eh]
	 SCS Opposite-Spin Energy  =      -1.8064913394273909 [Eh]
	 SCS Correlation Energy    =      -1.9750844946092334 [Eh]
	 SCS Total Energy          =    -495.3264697934474157 [Eh]
	-----------------------------------------------------------

  Dipole Moment: [D]
     X:     2.6628      Y:    -0.4472      Z:    -0.4619     Total:     2.7394

*** Psi4 exiting successfully. Buy a developer a beer!
