                               Psi4 1.3.2 release

  ==> Input File <==

--------------------------------------------------------------------------
#psi4
#
memory 32 gb

molecule  {
0 1
  O       -0.1027990     2.1661630    -0.1573240
  O       -2.2585870    -1.3354710    -0.3679860
  O       -2.3909180     0.7817600     0.4224630
  C       -0.2229310    -0.2124960     0.0158460
  C        0.5432600     0.9664360    -0.0570110
  C        0.4335280    -1.4494910     0.0925130
  C        1.9402870     0.8816050    -0.0559020
  C        1.8233140    -1.5265410     0.1016630
  C        2.5770400    -0.3539830     0.0301550
  C       -1.6260202     0.0148926     0.1173333
  H       -0.1661180    -2.3524960     0.1439440
  H        2.5301710     1.7954230    -0.1182500
  H        2.3148760    -2.4929130     0.1687580
  H        3.6635200    -0.3964420     0.0343940
  H        0.5733460     2.8632860    -0.2381370
  H       -3.2241600    -1.2056690    -0.2641310
units angstrom
no_reorient  #important for SAPT in psi4, default
symmetry c1  #important for SAPT in psi4, default
}

set PROPERTIES_ORIGIN ["COM"]
properties('MP2/aug-cc-pvtz', properties = ['dipole'])
--------------------------------------------------------------------------

    Molecular point group: c1
  Charge       = 0
  Multiplicity = 1
  Basis Set: AUG-CC-PVTZ
    Blend: AUG-CC-PVTZ
  Basis Set: (AUG-CC-PVTZ AUX)
    Blend: AUG-CC-PVTZ-JKFIT

    Orbital Energies [Eh]
    ---------------------

    Doubly Occupied:

       1A    -20.614414     2A    -20.570833     3A    -20.545203
       4A    -11.386041     5A    -11.338277     6A    -11.273723
       7A    -11.271558     8A    -11.261601     9A    -11.255115
      10A    -11.248177    11A     -1.479798    12A     -1.427041
      13A     -1.300228    14A     -1.176033    15A     -1.069097
      16A     -1.030895    17A     -0.905771    18A     -0.864543
      19A     -0.787312    20A     -0.752781    21A     -0.708565
      22A     -0.698624    23A     -0.671016    24A     -0.646783
      25A     -0.628840    26A     -0.621164    27A     -0.601492
      28A     -0.597602    29A     -0.580925    30A     -0.543848
      31A     -0.528797    32A     -0.503457    33A     -0.468811
      34A     -0.433546    35A     -0.369710    36A     -0.340228

  @DF-RHF Final Energy:  -493.31806032308759

   => Energetics <=

    Nuclear Repulsion Energy =            499.9857073978235462
    One-Electron Energy =               -1665.6038373093988412
    Two-Electron Energy =                 672.3000695884877587
    Total Energy =                       -493.3180603230875931
  Basis Set: (AUG-CC-PVTZ AUX)
    Blend: AUG-CC-PVTZ-RI
    Molecular point group: c1

    Geometry (in Angstrom), charge = 0, multiplicity = 1:

       Center              X                  Y                   Z               Mass
    ------------   -----------------  -----------------  -----------------  -----------------
         O           -0.069076376143     2.138391879818    -0.164674319701    15.994914619570
         O           -2.224864376143    -1.363242120182    -0.375336319701    15.994914619570
         O           -2.357195376143     0.753988879818     0.415112680299    15.994914619570
         C           -0.189208376143    -0.240267120182     0.008495680299    12.000000000000
         C            0.576982623857     0.938664879818    -0.064361319701    12.000000000000
         C            0.467250623857    -1.477262120182     0.085162680299    12.000000000000
         C            1.974009623857     0.853833879818    -0.063252319701    12.000000000000
         C            1.857036623857    -1.554312120182     0.094312680299    12.000000000000
         C            2.610762623857    -0.381754120182     0.022804680299    12.000000000000
         C           -1.592297576143    -0.012878520182     0.109982980299    12.000000000000
         H           -0.132395376143    -2.380267120182     0.136593680299     1.007825032230
         H            2.563893623857     1.767651879818    -0.125600319701     1.007825032230
         H            2.348598623857    -2.520684120182     0.161407680299     1.007825032230
         H            3.697242623857    -0.424213120182     0.027043680299     1.007825032230
         H            0.607068623857     2.835514879818    -0.245487319701     1.007825032230
         H           -3.190437376143    -1.233440120182    -0.271481319701     1.007825032230

  Basis Set: AUG-CC-PVTZ
    Blend: AUG-CC-PVTZ
  Basis Set: (AUG-CC-PVTZ AUX)
    Blend: AUG-CC-PVTZ-JKFIT
	 Reference Energy          =    -493.3180603230875931 [Eh]
	 Singles Energy            =      -0.0000000000000000 [Eh]
	 Same-Spin Energy          =      -0.5057779010880010 [Eh]
	 Opposite-Spin Energy      =      -1.5062323414413452 [Eh]
	 Correlation Energy        =      -2.0120102425293460 [Eh]
	 Total Energy              =    -495.3300705656169498 [Eh]

	 ================> DF-SCS-MP2 Energies <==================
	-----------------------------------------------------------
	 SCS Same-Spin Scale       =       0.3333333333333333 [-]
	 SCS Opposite-Spin Scale   =       1.2000000000000000 [-]
	 SCS Same-Spin Energy      =      -0.1685926336960003 [Eh]
	 SCS Opposite-Spin Energy  =      -1.8074788097296142 [Eh]
	 SCS Correlation Energy    =      -1.9760714434256146 [Eh]
	 SCS Total Energy          =    -495.2941317665132033 [Eh]
	-----------------------------------------------------------

  Dipole Moment: [D]
     X:     3.6811      Y:     0.9487      Z:     0.1005     Total:     3.8027

*** Psi4 exiting successfully. Buy a developer a beer!
