                               Psi4 1.3.2 release

  ==> Input File <==

--------------------------------------------------------------------------
#psi4
#
memory 32 gb

molecule  {
0 1
  O       -0.1027990     2.1661630    -0.1573240
  O       -2.3445643    -1.2968089    -0.3527282
  O       -2.3909180     0.7817600     0.4224630
  C       -0.2229310    -0.2124960     0.0158460
  C        0.5432600     0.9664360    -0.0570110
  C        0.4335280    -1.4494910     0.0925130
  C        1.9402870     0.8816050    -0.0559020
  C        1.8233140    -1.5265410     0.1016630
  C        2.5770400    -0.3539830     0.0301550
  C       -1.7066960    -0.1573290     0.0554370
  H       -0.1661180    -2.3524960     0.1439440
  H        2.5301710     1.7954230    -0.1182500
  H        2.3148760    -2.4929130     0.1687580
  H        3.6635200    -0.3964420     0.0343940
  H        0.5733460     2.8632860    -0.2381370
  H       -3.2241600    -1.2056690    -0.2641310
units angstrom
no_reorient  #important for SAPT in psi4, default
symmetry c1  #important for SAPT in psi4, default
}

set PROPERTIES_ORIGIN ["COM"]
properties('MP2/aug-cc-pvtz', properties = ['dipole'])
--------------------------------------------------------------------------

    Molecular point group: c1
  Charge       = 0
  Multiplicity = 1
  Basis Set: AUG-CC-PVTZ
    Blend: AUG-CC-PVTZ
  Basis Set: (AUG-CC-PVTZ AUX)
    Blend: AUG-CC-PVTZ-JKFIT

    Orbital Energies [Eh]
    ---------------------

    Doubly Occupied:

       1A    -20.603960     2A    -20.596084     3A    -20.538067
       4A    -11.389359     5A    -11.333695     6A    -11.267652
       7A    -11.265528     8A    -11.260726     9A    -11.251768
      10A    -11.244420    11A     -1.463666    12A     -1.416757
      13A     -1.349058    14A     -1.169881    15A     -1.058299
      16A     -1.024964    17A     -0.906892    18A     -0.865338
      19A     -0.814206    20A     -0.747472    21A     -0.720833
      22A     -0.694971    23A     -0.677795    24A     -0.645614
      25A     -0.625327    26A     -0.624319    27A     -0.597741
      28A     -0.591939    29A     -0.579618    30A     -0.537338
      31A     -0.525344    32A     -0.500567    33A     -0.473415
      34A     -0.444724    35A     -0.363965    36A     -0.333867

  @DF-RHF Final Energy:  -493.35039812814455

   => Energetics <=

    Nuclear Repulsion Energy =            498.7262483397863093
    One-Electron Energy =               -1663.1429570682457779
    Two-Electron Energy =                 671.0663106003149778
    Total Energy =                       -493.3503981281445476
  Basis Set: (AUG-CC-PVTZ AUX)
    Blend: AUG-CC-PVTZ-RI
    Molecular point group: c1

    Geometry (in Angstrom), charge = 0, multiplicity = 1:

       Center              X                  Y                   Z               Mass
    ------------   -----------------  -----------------  -----------------  -----------------
         O           -0.052099773857     2.148884123802    -0.161061320562    15.994914619570
         O           -2.293865073857    -1.314087776198    -0.356465520562    15.994914619570
         O           -2.340218773857     0.764481123802     0.418725679438    15.994914619570
         C           -0.172231773857    -0.229774876198     0.012108679438    12.000000000000
         C            0.593959226143     0.949157123802    -0.060748320562    12.000000000000
         C            0.484227226143    -1.466769876198     0.088775679438    12.000000000000
         C            1.990986226143     0.864326123802    -0.059639320562    12.000000000000
         C            1.874013226143    -1.543819876198     0.097925679438    12.000000000000
         C            2.627739226143    -0.371261876198     0.026417679438    12.000000000000
         C           -1.655996773857    -0.174607876198     0.051699679438    12.000000000000
         H           -0.115418773857    -2.369774876198     0.140206679438     1.007825032230
         H            2.580870226143     1.778144123802    -0.121987320562     1.007825032230
         H            2.365575226143    -2.510191876198     0.165020679438     1.007825032230
         H            3.714219226143    -0.413720876198     0.030656679438     1.007825032230
         H            0.624045226143     2.846007123802    -0.241874320562     1.007825032230
         H           -3.173460773857    -1.222947876198    -0.267868320562     1.007825032230

  Basis Set: AUG-CC-PVTZ
    Blend: AUG-CC-PVTZ
  Basis Set: (AUG-CC-PVTZ AUX)
    Blend: AUG-CC-PVTZ-JKFIT
	 Reference Energy          =    -493.3503981281445476 [Eh]
	 Singles Energy            =      -0.0000000000000000 [Eh]
	 Same-Spin Energy          =      -0.5035405204041161 [Eh]
	 Opposite-Spin Energy      =      -1.5008113050333867 [Eh]
	 Correlation Energy        =      -2.0043518254375030 [Eh]
	 Total Energy              =    -495.3547499535820293 [Eh]

	 ================> DF-SCS-MP2 Energies <==================
	-----------------------------------------------------------
	 SCS Same-Spin Scale       =       0.3333333333333333 [-]
	 SCS Opposite-Spin Scale   =       1.2000000000000000 [-]
	 SCS Same-Spin Energy      =      -0.1678468401347054 [Eh]
	 SCS Opposite-Spin Energy  =      -1.8009735660400639 [Eh]
	 SCS Correlation Energy    =      -1.9688204061747692 [Eh]
	 SCS Total Energy          =    -495.3192185343193046 [Eh]
	-----------------------------------------------------------

  Dipole Moment: [D]
     X:     2.9158      Y:    -0.4562      Z:    -0.4596     Total:     2.9868

*** Psi4 exiting successfully. Buy a developer a beer!
