                               Psi4 1.3.2 release

  ==> Input File <==

--------------------------------------------------------------------------
#psi4
#
memory 32 gb

molecule  {
0 1
  O       -0.1027990     2.1661630    -0.1573240
  O       -2.2585870    -1.3354710    -0.3679860
  O       -2.3909180     0.7817600     0.4224630
  C       -0.2229310    -0.2124960     0.0158460
  C        0.4156657     1.0401744    -0.0566014
  C        0.4335280    -1.4494910     0.0925130
  C        1.9402870     0.8816050    -0.0559020
  C        1.8233140    -1.5265410     0.1016630
  C        2.5770400    -0.3539830     0.0301550
  C       -1.7066960    -0.1573290     0.0554370
  H       -0.1661180    -2.3524960     0.1439440
  H        2.5301710     1.7954230    -0.1182500
  H        2.3148760    -2.4929130     0.1687580
  H        3.6635200    -0.3964420     0.0343940
  H        0.5733460     2.8632860    -0.2381370
  H       -3.2241600    -1.2056690    -0.2641310
units angstrom
no_reorient  #important for SAPT in psi4, default
symmetry c1  #important for SAPT in psi4, default
}

set PROPERTIES_ORIGIN ["COM"]
properties('MP2/aug-cc-pvtz', properties = ['dipole'])
--------------------------------------------------------------------------

    Molecular point group: c1
  Charge       = 0
  Multiplicity = 1
  Basis Set: AUG-CC-PVTZ
    Blend: AUG-CC-PVTZ
  Basis Set: (AUG-CC-PVTZ AUX)
    Blend: AUG-CC-PVTZ-JKFIT

    Orbital Energies [Eh]
    ---------------------

    Doubly Occupied:

       1A    -20.629462     2A    -20.605718     3A    -20.539666
       4A    -11.383247     5A    -11.347055     6A    -11.260384
       7A    -11.259070     8A    -11.254181     9A    -11.249065
      10A    -11.234235    11A     -1.491764    12A     -1.449499
      13A     -1.346453    14A     -1.153182    15A     -1.051040
      16A     -1.006402    17A     -0.892267    18A     -0.876332
      19A     -0.801495    20A     -0.772307    21A     -0.707847
      22A     -0.698869    23A     -0.686324    24A     -0.651825
      25A     -0.644323    26A     -0.621550    27A     -0.615398
      28A     -0.582914    29A     -0.577079    30A     -0.535464
      31A     -0.504064    32A     -0.493073    33A     -0.474477
      34A     -0.439418    35A     -0.359430    36A     -0.312295

  @DF-RHF Final Energy:  -493.32957888592961

   => Energetics <=

    Nuclear Repulsion Energy =            499.2890941709742947
    One-Electron Energy =               -1664.2229963148822662
    Two-Electron Energy =                 671.6043232579784217
    Total Energy =                       -493.3295788859295499
  Basis Set: (AUG-CC-PVTZ AUX)
    Blend: AUG-CC-PVTZ-RI
    Molecular point group: c1

    Geometry (in Angstrom), charge = 0, multiplicity = 1:

       Center              X                  Y                   Z               Mass
    ------------   -----------------  -----------------  -----------------  -----------------
         O           -0.050970091081     2.146953669979    -0.159328877808    15.994914619570
         O           -2.206758091081    -1.354680330021    -0.369990877808    15.994914619570
         O           -2.339089091081     0.762550669979     0.420458122192    15.994914619570
         C           -0.171102091081    -0.231705330021     0.013841122192    12.000000000000
         C            0.467494608919     1.020965069979    -0.058606277808    12.000000000000
         C            0.485356908919    -1.468700330021     0.090508122192    12.000000000000
         C            1.992115908919     0.862395669979    -0.057906877808    12.000000000000
         C            1.875142908919    -1.545750330021     0.099658122192    12.000000000000
         C            2.628868908919    -0.373192330021     0.028150122192    12.000000000000
         C           -1.654867091081    -0.176538330021     0.053432122192    12.000000000000
         H           -0.114289091081    -2.371705330021     0.141939122192     1.007825032230
         H            2.581999908919     1.776213669979    -0.120254877808     1.007825032230
         H            2.366704908919    -2.512122330021     0.166753122192     1.007825032230
         H            3.715348908919    -0.415651330021     0.032389122192     1.007825032230
         H            0.625174908919     2.844076669979    -0.240141877808     1.007825032230
         H           -3.172331091081    -1.224878330021    -0.266135877808     1.007825032230

  Basis Set: AUG-CC-PVTZ
    Blend: AUG-CC-PVTZ
  Basis Set: (AUG-CC-PVTZ AUX)
    Blend: AUG-CC-PVTZ-JKFIT
	 Reference Energy          =    -493.3295788859296067 [Eh]
	 Singles Energy            =      -0.0000000000000000 [Eh]
	 Same-Spin Energy          =      -0.5051400991705894 [Eh]
	 Opposite-Spin Energy      =      -1.5032556466747273 [Eh]
	 Correlation Energy        =      -2.0083957458453168 [Eh]
	 Total Energy              =    -495.3379746317748982 [Eh]

	 ================> DF-SCS-MP2 Energies <==================
	-----------------------------------------------------------
	 SCS Same-Spin Scale       =       0.3333333333333333 [-]
	 SCS Opposite-Spin Scale   =       1.2000000000000000 [-]
	 SCS Same-Spin Energy      =      -0.1683800330568631 [Eh]
	 SCS Opposite-Spin Energy  =      -1.8039067760096728 [Eh]
	 SCS Correlation Energy    =      -1.9722868090665360 [Eh]
	 SCS Total Energy          =    -495.3018656949961382 [Eh]
	-----------------------------------------------------------

  Dipole Moment: [D]
     X:     2.3791      Y:     0.3664      Z:    -0.5365     Total:     2.4662

*** Psi4 exiting successfully. Buy a developer a beer!
