                               Psi4 1.3.2 release

  ==> Input File <==

--------------------------------------------------------------------------
#psi4
#
memory 32 gb

molecule  {
0 1
  O       -0.1027990     2.1661630    -0.1573240
  O       -2.2585870    -1.3354710    -0.3679860
  O       -2.2817880     0.8438765     0.4448118
  C       -0.2229310    -0.2124960     0.0158460
  C        0.5432600     0.9664360    -0.0570110
  C        0.4335280    -1.4494910     0.0925130
  C        1.9402870     0.8816050    -0.0559020
  C        1.8233140    -1.5265410     0.1016630
  C        2.5770400    -0.3539830     0.0301550
  C       -1.7066960    -0.1573290     0.0554370
  H       -0.1661180    -2.3524960     0.1439440
  H        2.5301710     1.7954230    -0.1182500
  H        2.3148760    -2.4929130     0.1687580
  H        3.6635200    -0.3964420     0.0343940
  H        0.5733460     2.8632860    -0.2381370
  H       -3.2241600    -1.2056690    -0.2641310
units angstrom
no_reorient  #important for SAPT in psi4, default
symmetry c1  #important for SAPT in psi4, default
}

set PROPERTIES_ORIGIN ["COM"]
properties('MP2/aug-cc-pvtz', properties = ['dipole'])
--------------------------------------------------------------------------

    Molecular point group: c1
  Charge       = 0
  Multiplicity = 1
  Basis Set: AUG-CC-PVTZ
    Blend: AUG-CC-PVTZ
  Basis Set: (AUG-CC-PVTZ AUX)
    Blend: AUG-CC-PVTZ-JKFIT

    Orbital Energies [Eh]
    ---------------------

    Doubly Occupied:

       1A    -20.619973     2A    -20.598681     3A    -20.544807
       4A    -11.390399     5A    -11.327169     6A    -11.262288
       7A    -11.258996     8A    -11.251365     9A    -11.247134
      10A    -11.239762    11A     -1.454923    12A     -1.411769
      13A     -1.357543    14A     -1.163914    15A     -1.051182
      16A     -1.019715    17A     -0.896098    18A     -0.859045
      19A     -0.801503    20A     -0.743483    21A     -0.710348
      22A     -0.699898    23A     -0.674850    24A     -0.643724
      25A     -0.627095    26A     -0.621648    27A     -0.593741
      28A     -0.588677    29A     -0.576260    30A     -0.536273
      31A     -0.520673    32A     -0.496680    33A     -0.480446
      34A     -0.444913    35A     -0.358051    36A     -0.328610

  @DF-RHF Final Energy:  -493.34932445832425

   => Energetics <=

    Nuclear Repulsion Energy =            500.1239792130903652
    One-Electron Energy =               -1666.1433335600977443
    Two-Electron Energy =                 672.6700298886830751
    Total Energy =                       -493.3493244583241903
  Basis Set: (AUG-CC-PVTZ AUX)
    Blend: AUG-CC-PVTZ-RI
    Molecular point group: c1

    Geometry (in Angstrom), charge = 0, multiplicity = 1:

       Center              X                  Y                   Z               Mass
    ------------   -----------------  -----------------  -----------------  -----------------
         O           -0.074708527785     2.146166261589    -0.161883015466    15.994914619570
         O           -2.230496527785    -1.355467738411    -0.372545015466    15.994914619570
         O           -2.253697527785     0.823879761589     0.440252784534    15.994914619570
         C           -0.194840527785    -0.232492738411     0.011286984534    12.000000000000
         C            0.571350472215     0.946439261589    -0.061570015466    12.000000000000
         C            0.461618472215    -1.469487738411     0.087953984534    12.000000000000
         C            1.968377472215     0.861608261589    -0.060461015466    12.000000000000
         C            1.851404472215    -1.546537738411     0.097103984534    12.000000000000
         C            2.605130472215    -0.373979738411     0.025595984534    12.000000000000
         C           -1.678605527785    -0.177325738411     0.050877984534    12.000000000000
         H           -0.138027527785    -2.372492738411     0.139384984534     1.007825032230
         H            2.558261472215     1.775426261589    -0.122809015466     1.007825032230
         H            2.342966472215    -2.512909738411     0.164198984534     1.007825032230
         H            3.691610472215    -0.416438738411     0.029834984534     1.007825032230
         H            0.601436472215     2.843289261589    -0.242696015466     1.007825032230
         H           -3.196069527785    -1.225665738411    -0.268690015466     1.007825032230

  Basis Set: AUG-CC-PVTZ
    Blend: AUG-CC-PVTZ
  Basis Set: (AUG-CC-PVTZ AUX)
    Blend: AUG-CC-PVTZ-JKFIT
	 Reference Energy          =    -493.3493244583242472 [Eh]
	 Singles Energy            =      -0.0000000000000000 [Eh]
	 Same-Spin Energy          =      -0.5060010191253362 [Eh]
	 Opposite-Spin Energy      =      -1.5055536523299975 [Eh]
	 Correlation Energy        =      -2.0115546714553338 [Eh]
	 Total Energy              =    -495.3608791297795619 [Eh]

	 ================> DF-SCS-MP2 Energies <==================
	-----------------------------------------------------------
	 SCS Same-Spin Scale       =       0.3333333333333333 [-]
	 SCS Opposite-Spin Scale   =       1.2000000000000000 [-]
	 SCS Same-Spin Energy      =      -0.1686670063751121 [Eh]
	 SCS Opposite-Spin Energy  =      -1.8066643827959969 [Eh]
	 SCS Correlation Energy    =      -1.9753313891711091 [Eh]
	 SCS Total Energy          =    -495.3246558474953645 [Eh]
	-----------------------------------------------------------

  Dipole Moment: [D]
     X:     2.2073      Y:    -0.5772      Z:    -0.5006     Total:     2.3358

*** Psi4 exiting successfully. Buy a developer a beer!
