                               Psi4 1.3.2 release

  ==> Input File <==

--------------------------------------------------------------------------
#psi4
#
memory 32 gb

molecule  {
0 1
  O       -0.0816939     2.1772552    -0.1577544
  O       -2.2585870    -1.3354710    -0.3679860
  O       -2.3909180     0.7817600     0.4224630
  C       -0.2229310    -0.2124960     0.0158460
  C        0.5432600     0.9664360    -0.0570110
  C        0.4335280    -1.4494910     0.0925130
  C        1.9402870     0.8816050    -0.0559020
  C        1.8233140    -1.5265410     0.1016630
  C        2.5770400    -0.3539830     0.0301550
  C       -1.7066960    -0.1573290     0.0554370
  H       -0.1661180    -2.3524960     0.1439440
  H        2.5301710     1.7954230    -0.1182500
  H        2.3148760    -2.4929130     0.1687580
  H        3.6635200    -0.3964420     0.0343940
  H        0.5733460     2.8632860    -0.2381370
  H       -3.2241600    -1.2056690    -0.2641310
units angstrom
no_reorient  #important for SAPT in psi4, default
symmetry c1  #important for SAPT in psi4, default
}

set PROPERTIES_ORIGIN ["COM"]
properties('MP2/aug-cc-pvtz', properties = ['dipole'])
--------------------------------------------------------------------------

    Molecular point group: c1
  Charge       = 0
  Multiplicity = 1
  Basis Set: AUG-CC-PVTZ
    Blend: AUG-CC-PVTZ
  Basis Set: (AUG-CC-PVTZ AUX)
    Blend: AUG-CC-PVTZ-JKFIT

    Orbital Energies [Eh]
    ---------------------

    Doubly Occupied:

       1A    -20.610028     2A    -20.600032     3A    -20.543053
       4A    -11.389595     5A    -11.331544     6A    -11.265491
       7A    -11.263161     8A    -11.257309     9A    -11.249515
      10A    -11.242706    11A     -1.453827    12A     -1.418907
      13A     -1.348752    14A     -1.167919    15A     -1.055258
      16A     -1.023769    17A     -0.898214    18A     -0.863368
      19A     -0.802044    20A     -0.750031    21A     -0.710133
      22A     -0.698005    23A     -0.675766    24A     -0.644965
      25A     -0.625752    26A     -0.624244    27A     -0.596575
      28A     -0.588908    29A     -0.580299    30A     -0.536314
      31A     -0.524113    32A     -0.498740    33A     -0.476758
      34A     -0.447005    35A     -0.361928    36A     -0.332208

  @DF-RHF Final Energy:  -493.35503349953052

   => Energetics <=

    Nuclear Repulsion Energy =            498.8662141210032814
    One-Electron Energy =               -1663.5300246939491444
    Two-Electron Energy =                 671.3087770734152855
    Total Energy =                       -493.3550334995304638
  Basis Set: (AUG-CC-PVTZ AUX)
    Blend: AUG-CC-PVTZ-RI
    Molecular point group: c1

    Geometry (in Angstrom), charge = 0, multiplicity = 1:

       Center              X                  Y                   Z               Mass
    ------------   -----------------  -----------------  -----------------  -----------------
         O           -0.043403228697     2.163171084249    -0.159673794460    15.994914619570
         O           -2.220296328697    -1.349555115751    -0.369905394460    15.994914619570
         O           -2.352627328697     0.767675884249     0.420543605540    15.994914619570
         C           -0.184640328697    -0.226580115751     0.013926605540    12.000000000000
         C            0.581550671303     0.952351884249    -0.058930394460    12.000000000000
         C            0.471818671303    -1.463575115751     0.090593605540    12.000000000000
         C            1.978577671303     0.867520884249    -0.057821394460    12.000000000000
         C            1.861604671303    -1.540625115751     0.099743605540    12.000000000000
         C            2.615330671303    -0.368067115751     0.028235605540    12.000000000000
         C           -1.668405328697    -0.171413115751     0.053517605540    12.000000000000
         H           -0.127827328697    -2.366580115751     0.142024605540     1.007825032230
         H            2.568461671303     1.781338884249    -0.120169394460     1.007825032230
         H            2.353166671303    -2.506997115751     0.166838605540     1.007825032230
         H            3.701810671303    -0.410526115751     0.032474605540     1.007825032230
         H            0.611636671303     2.849201884249    -0.240056394460     1.007825032230
         H           -3.185869328697    -1.219753115751    -0.266050394460     1.007825032230

  Basis Set: AUG-CC-PVTZ
    Blend: AUG-CC-PVTZ
  Basis Set: (AUG-CC-PVTZ AUX)
    Blend: AUG-CC-PVTZ-JKFIT
	 Reference Energy          =    -493.3550334995305207 [Eh]
	 Singles Energy            =      -0.0000000000000000 [Eh]
	 Same-Spin Energy          =      -0.5049386741595130 [Eh]
	 Opposite-Spin Energy      =      -1.5035088046868825 [Eh]
	 Correlation Energy        =      -2.0084474788463957 [Eh]
	 Total Energy              =    -495.3634809783769128 [Eh]

	 ================> DF-SCS-MP2 Energies <==================
	-----------------------------------------------------------
	 SCS Same-Spin Scale       =       0.3333333333333333 [-]
	 SCS Opposite-Spin Scale   =       1.2000000000000000 [-]
	 SCS Same-Spin Energy      =      -0.1683128913865043 [Eh]
	 SCS Opposite-Spin Energy  =      -1.8042105656242589 [Eh]
	 SCS Correlation Energy    =      -1.9725234570107633 [Eh]
	 SCS Total Energy          =    -495.3275569565412866 [Eh]
	-----------------------------------------------------------

  Dipole Moment: [D]
     X:     2.6446      Y:    -0.4975      Z:    -0.4628     Total:     2.7305

*** Psi4 exiting successfully. Buy a developer a beer!
