                               Psi4 1.3.2 release

  ==> Input File <==

--------------------------------------------------------------------------
#psi4
#
memory 32 gb

molecule  {
0 1
  O       -0.1027990     2.1661630    -0.1573240
  O       -2.2585870    -1.3354710    -0.3679860
  O       -2.3909180     0.7817600     0.4224630
  C       -0.2229310    -0.2124960     0.0158460
  C        0.5432600     0.9664360    -0.0570110
  C        0.4335280    -1.4494910     0.0925130
  C        1.9402870     0.8816050    -0.0559020
  C        1.8233140    -1.5265410     0.1016630
  C        2.5770400    -0.3539830     0.0301550
  C       -1.7066960    -0.1573290     0.0554370
  H       -0.1661180    -2.3524960     0.1439440
  H        2.5301710     1.7954230    -0.1182500
  H        2.3148760    -2.4929130     0.1687580
  H        3.6635200    -0.3964420     0.0343940
  H        0.6427286     2.9348212    -0.2464296
  H       -3.2241600    -1.2056690    -0.2641310
units angstrom
no_reorient  #important for SAPT in psi4, default
symmetry c1  #important for SAPT in psi4, default
}

set PROPERTIES_ORIGIN ["COM"]
properties('MP2/aug-cc-pvtz', properties = ['dipole'])
--------------------------------------------------------------------------

    Molecular point group: c1
  Charge       = 0
  Multiplicity = 1
  Basis Set: AUG-CC-PVTZ
    Blend: AUG-CC-PVTZ
  Basis Set: (AUG-CC-PVTZ AUX)
    Blend: AUG-CC-PVTZ-JKFIT

    Orbital Energies [Eh]
    ---------------------

    Doubly Occupied:

       1A    -20.609830     2A    -20.609447     3A    -20.542361
       4A    -11.388899     5A    -11.330179     6A    -11.265154
       7A    -11.262533     8A    -11.256016     9A    -11.249100
      10A    -11.241858    11A     -1.453118    12A     -1.397724
      13A     -1.347894    14A     -1.165672    15A     -1.054251
      16A     -1.019978    17A     -0.896841    18A     -0.855789
      19A     -0.799694    20A     -0.733909    21A     -0.705046
      22A     -0.696834    23A     -0.674158    24A     -0.643048
      25A     -0.623800    26A     -0.621946    27A     -0.593751
      28A     -0.587131    29A     -0.575056    30A     -0.535427
      31A     -0.522393    32A     -0.497208    33A     -0.476130
      34A     -0.445922    35A     -0.361415    36A     -0.330849

  @DF-RHF Final Energy:  -493.34018429710682

   => Energetics <=

    Nuclear Repulsion Energy =            498.3717341926962376
    One-Electron Energy =               -1662.6831148331543773
    Two-Electron Energy =                 670.9711963433512665
    Total Energy =                       -493.3401842971068163
  Basis Set: (AUG-CC-PVTZ AUX)
    Blend: AUG-CC-PVTZ-RI
    Molecular point group: c1

    Geometry (in Angstrom), charge = 0, multiplicity = 1:

       Center              X                  Y                   Z               Mass
    ------------   -----------------  -----------------  -----------------  -----------------
         O           -0.062569290324     2.152841925139    -0.159232720980    15.994914619570
         O           -2.218357290324    -1.348792074861    -0.369894720980    15.994914619570
         O           -2.350688290324     0.768438925139     0.420554279020    15.994914619570
         C           -0.182701290324    -0.225817074861     0.013937279020    12.000000000000
         C            0.583489709676     0.953114925139    -0.058919720980    12.000000000000
         C            0.473757709676    -1.462812074861     0.090604279020    12.000000000000
         C            1.980516709676     0.868283925139    -0.057810720980    12.000000000000
         C            1.863543709676    -1.539862074861     0.099754279020    12.000000000000
         C            2.617269709676    -0.367304074861     0.028246279020    12.000000000000
         C           -1.666466290324    -0.170650074861     0.053528279020    12.000000000000
         H           -0.125888290324    -2.365817074861     0.142035279020     1.007825032230
         H            2.570400709676     1.782101925139    -0.120158720980     1.007825032230
         H            2.355105709676    -2.506234074861     0.166849279020     1.007825032230
         H            3.703749709676    -0.409763074861     0.032485279020     1.007825032230
         H            0.682958309676     2.921500125139    -0.248338320980     1.007825032230
         H           -3.183930290324    -1.218990074861    -0.266039720980     1.007825032230

  Basis Set: AUG-CC-PVTZ
    Blend: AUG-CC-PVTZ
  Basis Set: (AUG-CC-PVTZ AUX)
    Blend: AUG-CC-PVTZ-JKFIT
	 Reference Energy          =    -493.3401842971068163 [Eh]
	 Singles Energy            =      -0.0000000000000000 [Eh]
	 Same-Spin Energy          =      -0.5066338168424794 [Eh]
	 Opposite-Spin Energy      =      -1.5077928373869365 [Eh]
	 Correlation Energy        =      -2.0144266542294158 [Eh]
	 Total Energy              =    -495.3546109513362126 [Eh]

	 ================> DF-SCS-MP2 Energies <==================
	-----------------------------------------------------------
	 SCS Same-Spin Scale       =       0.3333333333333333 [-]
	 SCS Opposite-Spin Scale   =       1.2000000000000000 [-]
	 SCS Same-Spin Energy      =      -0.1688779389474931 [Eh]
	 SCS Opposite-Spin Energy  =      -1.8093514048643238 [Eh]
	 SCS Correlation Energy    =      -1.9782293438118170 [Eh]
	 SCS Total Energy          =    -495.3184136409186067 [Eh]
	-----------------------------------------------------------

  Dipole Moment: [D]
     X:     2.6911      Y:    -0.3723      Z:    -0.4720     Total:     2.7575

*** Psi4 exiting successfully. Buy a developer a beer!
