                               Psi4 1.3.2 release

  ==> Input File <==

--------------------------------------------------------------------------
#psi4
#
memory 32 gb

molecule  {
0 1
  O       -0.2250759     2.0920614    -0.1541051
  O       -2.2585870    -1.3354710    -0.3679860
  O       -2.3909180     0.7817600     0.4224630
  C       -0.2229310    -0.2124960     0.0158460
  C        0.5432600     0.9664360    -0.0570110
  C        0.4335280    -1.4494910     0.0925130
  C        1.9402870     0.8816050    -0.0559020
  C        1.8233140    -1.5265410     0.1016630
  C        2.5770400    -0.3539830     0.0301550
  C       -1.7066960    -0.1573290     0.0554370
  H       -0.1661180    -2.3524960     0.1439440
  H        2.5301710     1.7954230    -0.1182500
  H        2.3148760    -2.4929130     0.1687580
  H        3.6635200    -0.3964420     0.0343940
  H        0.5733460     2.8632860    -0.2381370
  H       -3.2241600    -1.2056690    -0.2641310
units angstrom
no_reorient  #important for SAPT in psi4, default
symmetry c1  #important for SAPT in psi4, default
}

set PROPERTIES_ORIGIN ["COM"]
properties('MP2/aug-cc-pvtz', properties = ['dipole'])
--------------------------------------------------------------------------

    Molecular point group: c1
  Charge       = 0
  Multiplicity = 1
  Basis Set: AUG-CC-PVTZ
    Blend: AUG-CC-PVTZ
  Basis Set: (AUG-CC-PVTZ AUX)
    Blend: AUG-CC-PVTZ-JKFIT

    Orbital Energies [Eh]
    ---------------------

    Doubly Occupied:

       1A    -20.616011     2A    -20.608666     3A    -20.540955
       4A    -11.387816     5A    -11.328982     6A    -11.266648
       7A    -11.261544     8A    -11.252575     9A    -11.252114
      10A    -11.241977    11A     -1.452475    12A     -1.398326
      13A     -1.346658    14A     -1.165120    15A     -1.054069
      16A     -1.019474    17A     -0.896826    18A     -0.854236
      19A     -0.798906    20A     -0.727929    21A     -0.698499
      22A     -0.696167    23A     -0.677925    24A     -0.640268
      25A     -0.623605    26A     -0.618208    27A     -0.594642
      28A     -0.587407    29A     -0.577064    30A     -0.541029
      31A     -0.518493    32A     -0.497178    33A     -0.475117
      34A     -0.444038    35A     -0.361385    36A     -0.331072

  @DF-RHF Final Energy:  -493.32551267909673

   => Energetics <=

    Nuclear Repulsion Energy =            499.8651313712870774
    One-Electron Energy =               -1665.6744776915872990
    Two-Electron Energy =                 672.4838336412034323
    Total Energy =                       -493.3255126790967324
  Basis Set: (AUG-CC-PVTZ AUX)
    Blend: AUG-CC-PVTZ-RI
    Molecular point group: c1

    Geometry (in Angstrom), charge = 0, multiplicity = 1:

       Center              X                  Y                   Z               Mass
    ------------   -----------------  -----------------  -----------------  -----------------
         O           -0.170170328302     2.087849419532    -0.156447370107    15.994914619570
         O           -2.203681428302    -1.339682980468    -0.370328270107    15.994914619570
         O           -2.336012428302     0.777548019532     0.420120729893    15.994914619570
         C           -0.168025428302    -0.216707980468     0.013503729893    12.000000000000
         C            0.598165571698     0.962224019532    -0.059353270107    12.000000000000
         C            0.488433571698    -1.453702980468     0.090170729893    12.000000000000
         C            1.995192571698     0.877393019532    -0.058244270107    12.000000000000
         C            1.878219571698    -1.530752980468     0.099320729893    12.000000000000
         C            2.631945571698    -0.358194980468     0.027812729893    12.000000000000
         C           -1.651790428302    -0.161540980468     0.053094729893    12.000000000000
         H           -0.111212428302    -2.356707980468     0.141601729893     1.007825032230
         H            2.585076571698     1.791211019532    -0.120592270107     1.007825032230
         H            2.369781571698    -2.497124980468     0.166415729893     1.007825032230
         H            3.718425571698    -0.400653980468     0.032051729893     1.007825032230
         H            0.628251571698     2.859074019532    -0.240479270107     1.007825032230
         H           -3.169254428302    -1.209880980468    -0.266473270107     1.007825032230

  Basis Set: AUG-CC-PVTZ
    Blend: AUG-CC-PVTZ
  Basis Set: (AUG-CC-PVTZ AUX)
    Blend: AUG-CC-PVTZ-JKFIT
	 Reference Energy          =    -493.3255126790967324 [Eh]
	 Singles Energy            =      -0.0000000000000000 [Eh]
	 Same-Spin Energy          =      -0.5081833321982214 [Eh]
	 Opposite-Spin Energy      =      -1.5110538414323791 [Eh]
	 Correlation Energy        =      -2.0192371736306005 [Eh]
	 Total Energy              =    -495.3447498527273183 [Eh]

	 ================> DF-SCS-MP2 Energies <==================
	-----------------------------------------------------------
	 SCS Same-Spin Scale       =       0.3333333333333333 [-]
	 SCS Opposite-Spin Scale   =       1.2000000000000000 [-]
	 SCS Same-Spin Energy      =      -0.1693944440660738 [Eh]
	 SCS Opposite-Spin Energy  =      -1.8132646097188547 [Eh]
	 SCS Correlation Energy    =      -1.9826590537849285 [Eh]
	 SCS Total Energy          =    -495.3081717328816467 [Eh]
	-----------------------------------------------------------

  Dipole Moment: [D]
     X:     2.6896      Y:    -0.3522      Z:    -0.4571     Total:     2.7508

*** Psi4 exiting successfully. Buy a developer a beer!
