                               Psi4 1.3.2 release

  ==> Input File <==

--------------------------------------------------------------------------
#psi4
#
memory 32 gb

molecule  {
0 1
  O       -0.1027990     2.1661630    -0.1573240
  O       -2.2585870    -1.3354710    -0.3679860
  O       -2.3732189     0.7928471     0.4264742
  C       -0.2229310    -0.2124960     0.0158460
  C        0.5432600     0.9664360    -0.0570110
  C        0.4335280    -1.4494910     0.0925130
  C        1.9402870     0.8816050    -0.0559020
  C        1.8233140    -1.5265410     0.1016630
  C        2.5770400    -0.3539830     0.0301550
  C       -1.7066960    -0.1573290     0.0554370
  H       -0.1661180    -2.3524960     0.1439440
  H        2.5301710     1.7954230    -0.1182500
  H        2.3148760    -2.4929130     0.1687580
  H        3.6635200    -0.3964420     0.0343940
  H        0.5733460     2.8632860    -0.2381370
  H       -3.2241600    -1.2056690    -0.2641310
units angstrom
no_reorient  #important for SAPT in psi4, default
symmetry c1  #important for SAPT in psi4, default
}

set PROPERTIES_ORIGIN ["COM"]
properties('MP2/aug-cc-pvtz', properties = ['dipole'])
--------------------------------------------------------------------------

    Molecular point group: c1
  Charge       = 0
  Multiplicity = 1
  Basis Set: AUG-CC-PVTZ
    Blend: AUG-CC-PVTZ
  Basis Set: (AUG-CC-PVTZ AUX)
    Blend: AUG-CC-PVTZ-JKFIT

    Orbital Energies [Eh]
    ---------------------

    Doubly Occupied:

       1A    -20.611552     2A    -20.602019     3A    -20.543102
       4A    -11.389469     5A    -11.330385     6A    -11.265121
       7A    -11.262290     8A    -11.255700     9A    -11.249423
      10A    -11.242114    11A     -1.453726    12A     -1.414617
      13A     -1.350046    14A     -1.166873    15A     -1.054435
      16A     -1.022424    17A     -0.897516    18A     -0.861318
      19A     -0.801282    20A     -0.745495    21A     -0.709145
      22A     -0.698203    23A     -0.675927    24A     -0.644074
      25A     -0.625456    26A     -0.623401    27A     -0.595842
      28A     -0.588879    29A     -0.579650    30A     -0.536942
      31A     -0.523105    32A     -0.498143    33A     -0.477270
      34A     -0.446514    35A     -0.361217    36A     -0.331470

  @DF-RHF Final Energy:  -493.35350265820045

   => Energetics <=

    Nuclear Repulsion Energy =            499.1443280962207609
    One-Electron Energy =               -1664.1273681687396220
    Two-Electron Energy =                 671.6295374143184063
    Total Energy =                       -493.3535026582004548
  Basis Set: (AUG-CC-PVTZ AUX)
    Blend: AUG-CC-PVTZ-RI
    Molecular point group: c1

    Geometry (in Angstrom), charge = 0, multiplicity = 1:

       Center              X                  Y                   Z               Mass
    ------------   -----------------  -----------------  -----------------  -----------------
         O           -0.064113646305     2.152079475229    -0.159758080694    15.994914619570
         O           -2.219901646305    -1.349554524771    -0.370420080694    15.994914619570
         O           -2.334533546305     0.778763575229     0.424040119306    15.994914619570
         C           -0.184245646305    -0.226579524771     0.013411919306    12.000000000000
         C            0.581945353695     0.952352475229    -0.059445080694    12.000000000000
         C            0.472213353695    -1.463574524771     0.090078919306    12.000000000000
         C            1.978972353695     0.867521475229    -0.058336080694    12.000000000000
         C            1.861999353695    -1.540624524771     0.099228919306    12.000000000000
         C            2.615725353695    -0.368066524771     0.027720919306    12.000000000000
         C           -1.668010646305    -0.171412524771     0.053002919306    12.000000000000
         H           -0.127432646305    -2.366579524771     0.141509919306     1.007825032230
         H            2.568856353695     1.781339475229    -0.120684080694     1.007825032230
         H            2.353561353695    -2.506996524771     0.166323919306     1.007825032230
         H            3.702205353695    -0.410525524771     0.031959919306     1.007825032230
         H            0.612031353695     2.849202475229    -0.240571080694     1.007825032230
         H           -3.185474646305    -1.219752524771    -0.266565080694     1.007825032230

  Basis Set: AUG-CC-PVTZ
    Blend: AUG-CC-PVTZ
  Basis Set: (AUG-CC-PVTZ AUX)
    Blend: AUG-CC-PVTZ-JKFIT
	 Reference Energy          =    -493.3535026582004548 [Eh]
	 Singles Energy            =      -0.0000000000000000 [Eh]
	 Same-Spin Energy          =      -0.5054385022565823 [Eh]
	 Opposite-Spin Energy      =      -1.5045864530245572 [Eh]
	 Correlation Energy        =      -2.0100249552811396 [Eh]
	 Total Energy              =    -495.3635276134816081 [Eh]

	 ================> DF-SCS-MP2 Energies <==================
	-----------------------------------------------------------
	 SCS Same-Spin Scale       =       0.3333333333333333 [-]
	 SCS Opposite-Spin Scale   =       1.2000000000000000 [-]
	 SCS Same-Spin Energy      =      -0.1684795007521941 [Eh]
	 SCS Opposite-Spin Energy  =      -1.8055037436294685 [Eh]
	 SCS Correlation Energy    =      -1.9739832443816625 [Eh]
	 SCS Total Energy          =    -495.3274859025821115 [Eh]
	-----------------------------------------------------------

  Dipole Moment: [D]
     X:     2.5811      Y:    -0.4911      Z:    -0.4696     Total:     2.6691

*** Psi4 exiting successfully. Buy a developer a beer!
