                               Psi4 1.3.2 release

  ==> Input File <==

--------------------------------------------------------------------------
#psi4
#
memory 32 gb

molecule  {
0 1
  O       -0.1027990     2.1661630    -0.1573240
  O       -2.2585870    -1.3354710    -0.3679860
  O       -2.3909180     0.7817600     0.4224630
  C       -0.2229310    -0.2124960     0.0158460
  C        0.4486900     1.1420518    -0.0716948
  C        0.4335280    -1.4494910     0.0925130
  C        1.9402870     0.8816050    -0.0559020
  C        1.8233140    -1.5265410     0.1016630
  C        2.5770400    -0.3539830     0.0301550
  C       -1.7066960    -0.1573290     0.0554370
  H       -0.1661180    -2.3524960     0.1439440
  H        2.5301710     1.7954230    -0.1182500
  H        2.3148760    -2.4929130     0.1687580
  H        3.6635200    -0.3964420     0.0343940
  H        0.5733460     2.8632860    -0.2381370
  H       -3.2241600    -1.2056690    -0.2641310
units angstrom
no_reorient  #important for SAPT in psi4, default
symmetry c1  #important for SAPT in psi4, default
}

set PROPERTIES_ORIGIN ["COM"]
properties('MP2/aug-cc-pvtz', properties = ['dipole'])
--------------------------------------------------------------------------

    Molecular point group: c1
  Charge       = 0
  Multiplicity = 1
  Basis Set: AUG-CC-PVTZ
    Blend: AUG-CC-PVTZ
  Basis Set: (AUG-CC-PVTZ AUX)
    Blend: AUG-CC-PVTZ-JKFIT

    Orbital Energies [Eh]
    ---------------------

    Doubly Occupied:

       1A    -20.653965     2A    -20.602188     3A    -20.536298
       4A    -11.379366     5A    -11.357612     6A    -11.260787
       7A    -11.257265     8A    -11.250320     9A    -11.248255
      10A    -11.226953    11A     -1.557724    12A     -1.446380
      13A     -1.343533    14A     -1.142433    15A     -1.040076
      16A     -1.003637    17A     -0.906273    18A     -0.882186
      19A     -0.800893    20A     -0.778319    21A     -0.715962
      22A     -0.703429    23A     -0.688275    24A     -0.684800
      25A     -0.644480    26A     -0.617425    27A     -0.616007
      28A     -0.583493    29A     -0.571478    30A     -0.536009
      31A     -0.492061    32A     -0.485528    33A     -0.472019
      34A     -0.434943    35A     -0.354305    36A     -0.300831

  @DF-RHF Final Energy:  -493.29493405162390

   => Energetics <=

    Nuclear Repulsion Energy =            498.8176068791366333
    One-Electron Energy =               -1663.0740670937525465
    Two-Electron Energy =                 670.9615261629918450
    Total Energy =                       -493.2949340516239545
  Basis Set: (AUG-CC-PVTZ AUX)
    Blend: AUG-CC-PVTZ-RI
    Molecular point group: c1

    Geometry (in Angstrom), charge = 0, multiplicity = 1:

       Center              X                  Y                   Z               Mass
    ------------   -----------------  -----------------  -----------------  -----------------
         O           -0.053841109964     2.138096799762    -0.158016709604    15.994914619570
         O           -2.209629109964    -1.363537200238    -0.368678709604    15.994914619570
         O           -2.341960109964     0.753693799762     0.421770290396    15.994914619570
         C           -0.173973109964    -0.240562200238     0.015153290396    12.000000000000
         C            0.497647890036     1.113985599762    -0.072387509604    12.000000000000
         C            0.482485890036    -1.477557200238     0.091820290396    12.000000000000
         C            1.989244890036     0.853538799762    -0.056594709604    12.000000000000
         C            1.872271890036    -1.554607200238     0.100970290396    12.000000000000
         C            2.625997890036    -0.382049200238     0.029462290396    12.000000000000
         C           -1.657738109964    -0.185395200238     0.054744290396    12.000000000000
         H           -0.117160109964    -2.380562200238     0.143251290396     1.007825032230
         H            2.579128890036     1.767356799762    -0.118942709604     1.007825032230
         H            2.363833890036    -2.520979200238     0.168065290396     1.007825032230
         H            3.712477890036    -0.424508200238     0.033701290396     1.007825032230
         H            0.622303890036     2.835219799762    -0.238829709604     1.007825032230
         H           -3.175202109964    -1.233735200238    -0.264823709604     1.007825032230

  Basis Set: AUG-CC-PVTZ
    Blend: AUG-CC-PVTZ
  Basis Set: (AUG-CC-PVTZ AUX)
    Blend: AUG-CC-PVTZ-JKFIT
	 Reference Energy          =    -493.2949340516238976 [Eh]
	 Singles Energy            =      -0.0000000000000000 [Eh]
	 Same-Spin Energy          =      -0.5056090051815079 [Eh]
	 Opposite-Spin Energy      =      -1.5027809580263640 [Eh]
	 Correlation Energy        =      -2.0083899632078719 [Eh]
	 Total Energy              =    -495.3033240148317873 [Eh]

	 ================> DF-SCS-MP2 Energies <==================
	-----------------------------------------------------------
	 SCS Same-Spin Scale       =       0.3333333333333333 [-]
	 SCS Opposite-Spin Scale   =       1.2000000000000000 [-]
	 SCS Same-Spin Energy      =      -0.1685363350605026 [Eh]
	 SCS Opposite-Spin Energy  =      -1.8033371496316368 [Eh]
	 SCS Correlation Energy    =      -1.9718734846921395 [Eh]
	 SCS Total Energy          =    -495.2668075363160369 [Eh]
	-----------------------------------------------------------

  Dipole Moment: [D]
     X:     2.1966      Y:     0.9742      Z:    -0.5964     Total:     2.4758

*** Psi4 exiting successfully. Buy a developer a beer!
