                               Psi4 1.4a3.dev225

  ==> Input File <==

--------------------------------------------------------------------------
#psi4
#
memory 32 gb

molecule  {
0 1
  O       -0.1026610     2.1662260    -0.1575610
  O       -2.2584930    -1.3355120    -0.3678820
  O       -2.3910220     0.7817980     0.4224010
  C       -0.2229580    -0.2124560     0.0160270
  C        0.5338257     0.9840133    -0.0585558
  C        0.4334420    -1.4495130     0.0922690
  C        1.9403100     0.8815900    -0.0555280
  C        1.8232300    -1.5265840     0.1016960
  C        2.5770020    -0.3540720     0.0300640
  C       -1.7067020    -0.1572630     0.0555130
  H       -0.1662180    -2.3524950     0.1438230
  H        2.5302810     1.7953260    -0.1182260
  H        2.3147800    -2.4929990     0.1682820
  H        3.6634790    -0.3965710     0.0346780
  H        0.5735000     2.8633950    -0.2378390
  H       -3.2240480    -1.2056750    -0.2641070
units angstrom
no_reorient  #important for SAPT in psi4, default
symmetry c1  #important for SAPT in psi4, default
}

set PROPERTIES_ORIGIN ["COM"]
properties('MP2/aug-cc-pvtz', properties = ['dipole'])
--------------------------------------------------------------------------

    Molecular point group: c1
  Charge       = 0
  Multiplicity = 1
  Basis Set: AUG-CC-PVTZ
    Blend: AUG-CC-PVTZ
  Basis Set: (AUG-CC-PVTZ AUX)
    Blend: AUG-CC-PVTZ-JKFIT

    Orbital Energies [Eh]
    ---------------------

    Doubly Occupied:

       1A    -20.609113     2A    -20.606986     3A    -20.542179
       4A    -11.388384     5A    -11.333301     6A    -11.265187
       7A    -11.262382     8A    -11.256175     9A    -11.249864
      10A    -11.241393    11A     -1.453175    12A     -1.426303
      13A     -1.348053    14A     -1.164834    15A     -1.053447
      16A     -1.021140    17A     -0.896744    18A     -0.862855
      19A     -0.800612    20A     -0.749787    21A     -0.709417
      22A     -0.697496    23A     -0.677546    24A     -0.643826
      25A     -0.625518    26A     -0.624024    27A     -0.600935
      28A     -0.587932    29A     -0.581266    30A     -0.537824
      31A     -0.521034    32A     -0.497953    33A     -0.476155
      34A     -0.445879    35A     -0.361052    36A     -0.329123

  @DF-RHF Final Energy:  -493.35359961346643

   => Energetics <=

    Nuclear Repulsion Energy =            498.9086390304876772
    One-Electron Energy =               -1663.6266888386378469
    Two-Electron Energy =                 671.3644501946838545
    Total Energy =                       -493.3535996134663719
  Basis Set: (AUG-CC-PVTZ AUX)
    Blend: AUG-CC-PVTZ-RI
    Molecular point group: c1

    Geometry (in Angstrom), charge = 0, multiplicity = 1:

       Center              X                  Y                   Z               Mass
    ------------   -----------------  -----------------  -----------------  -----------------
         O           -0.061101409635     2.151899165534    -0.159402215757    15.994914619570
         O           -2.216933409635    -1.349838834466    -0.369723215757    15.994914619570
         O           -2.349462409635     0.767471165534     0.420559784243    15.994914619570
         C           -0.181398409635    -0.226782834466     0.014185784243    12.000000000000
         C            0.575385290365     0.969686465534    -0.060397015757    12.000000000000
         C            0.475001590365    -1.463839834466     0.090427784243    12.000000000000
         C            1.981869590365     0.867263165534    -0.057369215757    12.000000000000
         C            1.864789590365    -1.540910834466     0.099854784243    12.000000000000
         C            2.618561590365    -0.368398834466     0.028222784243    12.000000000000
         C           -1.665142409635    -0.171589834466     0.053671784243    12.000000000000
         H           -0.124658409635    -2.366821834466     0.141981784243     1.007825032230
         H            2.571840590365     1.780999165534    -0.120067215757     1.007825032230
         H            2.356339590365    -2.507325834466     0.166440784243     1.007825032230
         H            3.705038590365    -0.410897834466     0.032836784243     1.007825032230
         H            0.615059590365     2.849068165534    -0.239680215757     1.007825032230
         H           -3.182488409635    -1.220001834466    -0.265948215757     1.007825032230

  Basis Set: AUG-CC-PVTZ
    Blend: AUG-CC-PVTZ
  Basis Set: (AUG-CC-PVTZ AUX)
    Blend: AUG-CC-PVTZ-JKFIT
	 Reference Energy          =    -493.3535996134664288 [Eh]
	 Singles Energy            =      -0.0000000000000000 [Eh]
	 Same-Spin Energy          =      -0.5053412262903800 [Eh]
	 Opposite-Spin Energy      =      -1.5041680186492616 [Eh]
	 Correlation Energy        =      -2.0095092449396414 [Eh]
	 Total Energy              =    -495.3631088584060649 [Eh]

	 ================> DF-SCS-MP2 Energies <==================
	-----------------------------------------------------------
	 SCS Same-Spin Scale       =       0.3333333333333333 [-]
	 SCS Opposite-Spin Scale   =       1.2000000000000000 [-]
	 SCS Same-Spin Energy      =      -0.1684470754301267 [Eh]
	 SCS Opposite-Spin Energy  =      -1.8050016223791139 [Eh]
	 SCS Correlation Energy    =      -1.9734486978092405 [Eh]
	 SCS Total Energy          =    -495.3270483112756892 [Eh]
	-----------------------------------------------------------

  Dipole Moment: [D]
     X:     2.6158      Y:    -0.3452      Z:    -0.4737     Total:     2.6807

*** Psi4 exiting successfully. Buy a developer a beer!
