                               Psi4 1.4a3.dev225

  ==> Input File <==

--------------------------------------------------------------------------
#psi4
#
memory 32 gb

molecule  {
0 1
  O       -0.1026610     2.1662260    -0.1575610
  O       -2.2584930    -1.3355120    -0.3678820
  O       -2.3910220     0.7817980     0.4224010
  C       -0.2229580    -0.2124560     0.0160270
  C        0.5669192     0.9225453    -0.0534081
  C        0.4334420    -1.4495130     0.0922690
  C        1.9403100     0.8815900    -0.0555280
  C        1.8232300    -1.5265840     0.1016960
  C        2.5770020    -0.3540720     0.0300640
  C       -1.7067020    -0.1572630     0.0555130
  H       -0.1662180    -2.3524950     0.1438230
  H        2.5302810     1.7953260    -0.1182260
  H        2.3147800    -2.4929990     0.1682820
  H        3.6634790    -0.3965710     0.0346780
  H        0.5735000     2.8633950    -0.2378390
  H       -3.2240480    -1.2056750    -0.2641070
units angstrom
no_reorient  #important for SAPT in psi4, default
symmetry c1  #important for SAPT in psi4, default
}

set PROPERTIES_ORIGIN ["COM"]
properties('MP2/aug-cc-pvtz', properties = ['dipole'])
--------------------------------------------------------------------------

    Molecular point group: c1
  Charge       = 0
  Multiplicity = 1
  Basis Set: AUG-CC-PVTZ
    Blend: AUG-CC-PVTZ
  Basis Set: (AUG-CC-PVTZ AUX)
    Blend: AUG-CC-PVTZ-JKFIT

    Orbital Energies [Eh]
    ---------------------

    Doubly Occupied:

       1A    -20.611426     2A    -20.592429     3A    -20.544048
       4A    -11.391568     5A    -11.325888     6A    -11.266907
       7A    -11.264295     8A    -11.257440     9A    -11.249821
      10A    -11.245188    11A     -1.454809    12A     -1.389700
      13A     -1.349269    14A     -1.174104    15A     -1.059289
      16A     -1.027205    17A     -0.900446    18A     -0.860711
      19A     -0.802902    20A     -0.738571    21A     -0.705849
      22A     -0.698614    23A     -0.673473    24A     -0.646297
      25A     -0.625688    26A     -0.622343    27A     -0.592453
      28A     -0.584722    29A     -0.576622    30A     -0.535062
      31A     -0.527494    32A     -0.498968    33A     -0.477340
      34A     -0.448181    35A     -0.363821    36A     -0.338947

  @DF-RHF Final Energy:  -493.35000461429848

   => Energetics <=

    Nuclear Repulsion Energy =            499.1552299028746233
    One-Electron Energy =               -1664.1666859175161335
    Two-Electron Energy =                 671.6614514003430259
    Total Energy =                       -493.3500046142984274
  Basis Set: (AUG-CC-PVTZ AUX)
    Blend: AUG-CC-PVTZ-RI
    Molecular point group: c1

    Geometry (in Angstrom), charge = 0, multiplicity = 1:

       Center              X                  Y                   Z               Mass
    ------------   -----------------  -----------------  -----------------  -----------------
         O           -0.063978444527     2.157242981714    -0.159849739062    15.994914619570
         O           -2.219810444527    -1.344495018286    -0.370170739062    15.994914619570
         O           -2.352339444527     0.772814981714     0.420112260938    15.994914619570
         C           -0.184275444527    -0.221439018286     0.013738260938    12.000000000000
         C            0.605601755473     0.913562281714    -0.055696839062    12.000000000000
         C            0.472124555473    -1.458496018286     0.089980260938    12.000000000000
         C            1.978992555473     0.872606981714    -0.057816739062    12.000000000000
         C            1.861912555473    -1.535567018286     0.099407260938    12.000000000000
         C            2.615684555473    -0.363055018286     0.027775260938    12.000000000000
         C           -1.668019444527    -0.166246018286     0.053224260938    12.000000000000
         H           -0.127535444527    -2.361478018286     0.141534260938     1.007825032230
         H            2.568963555473     1.786342981714    -0.120514739062     1.007825032230
         H            2.353462555473    -2.501982018286     0.165993260938     1.007825032230
         H            3.702161555473    -0.405554018286     0.032389260938     1.007825032230
         H            0.612182555473     2.854411981714    -0.240127739062     1.007825032230
         H           -3.185365444527    -1.214658018286    -0.266395739062     1.007825032230

  Basis Set: AUG-CC-PVTZ
    Blend: AUG-CC-PVTZ
  Basis Set: (AUG-CC-PVTZ AUX)
    Blend: AUG-CC-PVTZ-JKFIT
	 Reference Energy          =    -493.3500046142984843 [Eh]
	 Singles Energy            =      -0.0000000000000000 [Eh]
	 Same-Spin Energy          =      -0.5054654353751442 [Eh]
	 Opposite-Spin Energy      =      -1.5052677019153577 [Eh]
	 Correlation Energy        =      -2.0107331372905017 [Eh]
	 Total Energy              =    -495.3607377515889993 [Eh]

	 ================> DF-SCS-MP2 Energies <==================
	-----------------------------------------------------------
	 SCS Same-Spin Scale       =       0.3333333333333333 [-]
	 SCS Opposite-Spin Scale   =       1.2000000000000000 [-]
	 SCS Same-Spin Energy      =      -0.1684884784583814 [Eh]
	 SCS Opposite-Spin Energy  =      -1.8063212422984292 [Eh]
	 SCS Correlation Energy    =      -1.9748097207568105 [Eh]
	 SCS Total Energy          =    -495.3248143350552937 [Eh]
	-----------------------------------------------------------

  Dipole Moment: [D]
     X:     2.7461      Y:    -0.7719      Z:    -0.4333     Total:     2.8853

*** Psi4 exiting successfully. Buy a developer a beer!
