                               Psi4 1.4a3.dev225

  ==> Input File <==

--------------------------------------------------------------------------
#psi4
#
memory 32 gb

molecule  {
0 1
  O       -0.1026610     2.1662260    -0.1575610
  O       -2.2584930    -1.3355120    -0.3678820
  O       -2.3910220     0.7817980     0.4224010
  C       -0.2229580    -0.2124560     0.0160270
  C        0.5432810     0.9664510    -0.0570850
  C        0.4334420    -1.4495130     0.0922690
  C        1.9403100     0.8815900    -0.0555280
  C        1.8232300    -1.5265840     0.1016960
  C        2.5770020    -0.3540720     0.0300640
  C       -1.7067020    -0.1572630     0.0555130
  H       -0.1662180    -2.3524950     0.1438230
  H        2.5302810     1.7953260    -0.1182260
  H        2.3147800    -2.4929990     0.1682820
  H        3.6634790    -0.3965710     0.0346780
  H        0.5388079     2.8276250    -0.2337201
  H       -3.2240480    -1.2056750    -0.2641070
units angstrom
no_reorient  #important for SAPT in psi4, default
symmetry c1  #important for SAPT in psi4, default
}

set PROPERTIES_ORIGIN ["COM"]
properties('MP2/aug-cc-pvtz', properties = ['dipole'])
--------------------------------------------------------------------------

    Molecular point group: c1
  Charge       = 0
  Multiplicity = 1
  Basis Set: AUG-CC-PVTZ
    Blend: AUG-CC-PVTZ
  Basis Set: (AUG-CC-PVTZ AUX)
    Blend: AUG-CC-PVTZ-JKFIT

    Orbital Energies [Eh]
    ---------------------

    Doubly Occupied:

       1A    -20.609995     2A    -20.598365     3A    -20.542947
       4A    -11.389544     5A    -11.331473     6A    -11.265944
       7A    -11.263143     8A    -11.256908     9A    -11.250305
      10A    -11.242960    11A     -1.453919    12A     -1.426338
      13A     -1.348731    14A     -1.168491    15A     -1.055547
      16A     -1.024774    17A     -0.898463    18A     -0.865560
      19A     -0.802192    20A     -0.752843    21A     -0.710341
      22A     -0.698196    23A     -0.676961    24A     -0.644736
      25A     -0.626237    26A     -0.624259    27A     -0.597669
      28A     -0.590280    29A     -0.582035    30A     -0.537842
      31A     -0.524059    32A     -0.499203    33A     -0.476723
      34A     -0.446975    35A     -0.362058    36A     -0.332677

  @DF-RHF Final Energy:  -493.35461436122841

   => Energetics <=

    Nuclear Repulsion Energy =            499.3036798579695414
    One-Electron Energy =               -1664.3592038308058818
    Two-Electron Energy =                 671.7009096116080400
    Total Energy =                       -493.3546143612284141
  Basis Set: (AUG-CC-PVTZ AUX)
    Blend: AUG-CC-PVTZ-RI
    Molecular point group: c1

    Geometry (in Angstrom), charge = 0, multiplicity = 1:

       Center              X                  Y                   Z               Mass
    ------------   -----------------  -----------------  -----------------  -----------------
         O           -0.061670119841     2.153687142586    -0.159560155791    15.994914619570
         O           -2.217502119841    -1.348050857414    -0.369881155791    15.994914619570
         O           -2.350031119841     0.769259142586     0.420401844209    15.994914619570
         C           -0.181967119841    -0.224994857414     0.014027844209    12.000000000000
         C            0.584271880159     0.953912142586    -0.059084155791    12.000000000000
         C            0.474432880159    -1.462051857414     0.090269844209    12.000000000000
         C            1.981300880159     0.869051142586    -0.057527155791    12.000000000000
         C            1.864220880159    -1.539122857414     0.099696844209    12.000000000000
         C            2.617992880159    -0.366610857414     0.028064844209    12.000000000000
         C           -1.665711119841    -0.169801857414     0.053513844209    12.000000000000
         H           -0.125227119841    -2.365033857414     0.141823844209     1.007825032230
         H            2.571271880159     1.782787142586    -0.120225155791     1.007825032230
         H            2.355770880159    -2.505537857414     0.166282844209     1.007825032230
         H            3.704469880159    -0.409109857414     0.032678844209     1.007825032230
         H            0.579798780159     2.815086142586    -0.235719255791     1.007825032230
         H           -3.183057119841    -1.218213857414    -0.266106155791     1.007825032230

  Basis Set: AUG-CC-PVTZ
    Blend: AUG-CC-PVTZ
  Basis Set: (AUG-CC-PVTZ AUX)
    Blend: AUG-CC-PVTZ-JKFIT
	 Reference Energy          =    -493.3546143612284141 [Eh]
	 Singles Energy            =      -0.0000000000000000 [Eh]
	 Same-Spin Energy          =      -0.5047002972374353 [Eh]
	 Opposite-Spin Energy      =      -1.5028690386713985 [Eh]
	 Correlation Energy        =      -2.0075693359088338 [Eh]
	 Total Energy              =    -495.3621836971372545 [Eh]

	 ================> DF-SCS-MP2 Energies <==================
	-----------------------------------------------------------
	 SCS Same-Spin Scale       =       0.3333333333333333 [-]
	 SCS Opposite-Spin Scale   =       1.2000000000000000 [-]
	 SCS Same-Spin Energy      =      -0.1682334324124784 [Eh]
	 SCS Opposite-Spin Energy  =      -1.8034428464056782 [Eh]
	 SCS Correlation Energy    =      -1.9716762788181565 [Eh]
	 SCS Total Energy          =    -495.3262906400465795 [Eh]
	-----------------------------------------------------------

  Dipole Moment: [D]
     X:     2.6370      Y:    -0.5268      Z:    -0.4565     Total:     2.7276

*** Psi4 exiting successfully. Buy a developer a beer!
