                               Psi4 1.3.2 release

  ==> Input File <==

--------------------------------------------------------------------------
#psi4
#
memory 32 gb

molecule  {
0 1
  O       -0.0816897     2.1772063    -0.1583672
  O       -2.2585870    -1.3354710    -0.3679860
  O       -2.3909180     0.7817600     0.4224630
  C       -0.2229310    -0.2124960     0.0158460
  C        0.5432600     0.9664360    -0.0570110
  C        0.4335280    -1.4494910     0.0925130
  C        1.9402870     0.8816050    -0.0559020
  C        1.8233140    -1.5265410     0.1016630
  C        2.5770400    -0.3539830     0.0301550
  C       -1.7066960    -0.1573290     0.0554370
  H       -0.1661180    -2.3524960     0.1439440
  H        2.5301710     1.7954230    -0.1182500
  H        2.3148760    -2.4929130     0.1687580
  H        3.6635200    -0.3964420     0.0343940
  H        0.5733460     2.8632860    -0.2381370
  H       -3.2241600    -1.2056690    -0.2641310
units angstrom
no_reorient  #important for SAPT in psi4, default
symmetry c1  #important for SAPT in psi4, default
}

set PROPERTIES_ORIGIN ["COM"]
properties('MP2/aug-cc-pvtz', properties = ['dipole'])
--------------------------------------------------------------------------

    Molecular point group: c1
  Charge       = 0
  Multiplicity = 1
  Basis Set: AUG-CC-PVTZ
    Blend: AUG-CC-PVTZ
  Basis Set: (AUG-CC-PVTZ AUX)
    Blend: AUG-CC-PVTZ-JKFIT

    Orbital Energies [Eh]
    ---------------------

    Doubly Occupied:

       1A    -20.610028     2A    -20.600031     3A    -20.543053
       4A    -11.389596     5A    -11.331545     6A    -11.265491
       7A    -11.263161     8A    -11.257309     9A    -11.249515
      10A    -11.242706    11A     -1.453828    12A     -1.418912
      13A     -1.348753    14A     -1.167920    15A     -1.055258
      16A     -1.023770    17A     -0.898214    18A     -0.863371
      19A     -0.802044    20A     -0.750034    21A     -0.710136
      22A     -0.698006    23A     -0.675766    24A     -0.644962
      25A     -0.625746    26A     -0.624249    27A     -0.596586
      28A     -0.588903    29A     -0.580301    30A     -0.536314
      31A     -0.524116    32A     -0.498740    33A     -0.476758
      34A     -0.447007    35A     -0.361929    36A     -0.332207

  @DF-RHF Final Energy:  -493.35503414520633

   => Energetics <=

    Nuclear Repulsion Energy =            498.8660204839317203
    One-Electron Energy =               -1663.5295831682969947
    Two-Electron Energy =                 671.3085285391590560
    Total Energy =                       -493.3550341452063321
  Basis Set: (AUG-CC-PVTZ AUX)
    Blend: AUG-CC-PVTZ-RI
    Molecular point group: c1

    Geometry (in Angstrom), charge = 0, multiplicity = 1:

       Center              X                  Y                   Z               Mass
    ------------   -----------------  -----------------  -----------------  -----------------
         O           -0.043399515387     2.163127850711    -0.160215584076    15.994914619570
         O           -2.220296815387    -1.349549449289    -0.369834384076    15.994914619570
         O           -2.352627815387     0.767681550711     0.420614615924    15.994914619570
         C           -0.184640815387    -0.226574449289     0.013997615924    12.000000000000
         C            0.581550184613     0.952357550711    -0.058859384076    12.000000000000
         C            0.471818184613    -1.463569449289     0.090664615924    12.000000000000
         C            1.978577184613     0.867526550711    -0.057750384076    12.000000000000
         C            1.861604184613    -1.540619449289     0.099814615924    12.000000000000
         C            2.615330184613    -0.368061449289     0.028306615924    12.000000000000
         C           -1.668405815387    -0.171407449289     0.053588615924    12.000000000000
         H           -0.127827815387    -2.366574449289     0.142095615924     1.007825032230
         H            2.568461184613     1.781344550711    -0.120098384076     1.007825032230
         H            2.353166184613    -2.506991449289     0.166909615924     1.007825032230
         H            3.701810184613    -0.410520449289     0.032545615924     1.007825032230
         H            0.611636184613     2.849207550711    -0.239985384076     1.007825032230
         H           -3.185869815387    -1.219747449289    -0.265979384076     1.007825032230

  Basis Set: AUG-CC-PVTZ
    Blend: AUG-CC-PVTZ
  Basis Set: (AUG-CC-PVTZ AUX)
    Blend: AUG-CC-PVTZ-JKFIT
	 Reference Energy          =    -493.3550341452063321 [Eh]
	 Singles Energy            =      -0.0000000000000000 [Eh]
	 Same-Spin Energy          =      -0.5049382538506068 [Eh]
	 Opposite-Spin Energy      =      -1.5035078362858436 [Eh]
	 Correlation Energy        =      -2.0084460901364505 [Eh]
	 Total Energy              =    -495.3634802353427631 [Eh]

	 ================> DF-SCS-MP2 Energies <==================
	-----------------------------------------------------------
	 SCS Same-Spin Scale       =       0.3333333333333333 [-]
	 SCS Opposite-Spin Scale   =       1.2000000000000000 [-]
	 SCS Same-Spin Energy      =      -0.1683127512835356 [Eh]
	 SCS Opposite-Spin Energy  =      -1.8042094035430123 [Eh]
	 SCS Correlation Energy    =      -1.9725221548265479 [Eh]
	 SCS Total Energy          =    -495.3275563000328816 [Eh]
	-----------------------------------------------------------

  Dipole Moment: [D]
     X:     2.6446      Y:    -0.4975      Z:    -0.4619     Total:     2.7303

*** Psi4 exiting successfully. Buy a developer a beer!
