                               Psi4 1.3.2 release

  ==> Input File <==

--------------------------------------------------------------------------
#psi4
#
memory 32 gb

molecule  {
0 1
  O       -0.1027990     2.1661630    -0.1573240
  O       -2.2585870    -1.3354710    -0.3679860
  O       -2.3909180     0.7817600     0.4224630
  C       -0.2229310    -0.2124960     0.0158460
  C        0.5432600     0.9664360    -0.0570110
  C        0.4335280    -1.4494910     0.0925130
  C        1.9402870     0.8816050    -0.0559020
  C        1.8233140    -1.5265410     0.1016630
  C        2.5770400    -0.3539830     0.0301550
  C       -1.7873718    -0.3295506    -0.0064593
  H       -0.1661180    -2.3524960     0.1439440
  H        2.5301710     1.7954230    -0.1182500
  H        2.3148760    -2.4929130     0.1687580
  H        3.6635200    -0.3964420     0.0343940
  H        0.5733460     2.8632860    -0.2381370
  H       -3.2241600    -1.2056690    -0.2641310
units angstrom
no_reorient  #important for SAPT in psi4, default
symmetry c1  #important for SAPT in psi4, default
}

set PROPERTIES_ORIGIN ["COM"]
properties('MP2/aug-cc-pvtz', properties = ['dipole'])
--------------------------------------------------------------------------

    Molecular point group: c1
  Charge       = 0
  Multiplicity = 1
  Basis Set: AUG-CC-PVTZ
    Blend: AUG-CC-PVTZ
  Basis Set: (AUG-CC-PVTZ AUX)
    Blend: AUG-CC-PVTZ-JKFIT

    Orbital Energies [Eh]
    ---------------------

    Doubly Occupied:

       1A    -20.668637     2A    -20.592623     3A    -20.512819
       4A    -11.397207     5A    -11.325437     6A    -11.258870
       7A    -11.258102     8A    -11.255780     9A    -11.245953
      10A    -11.238340    11A     -1.577627    12A     -1.405241
      13A     -1.283156    14A     -1.160682    15A     -1.046134
      16A     -1.016154    17A     -0.931619    18A     -0.855858
      19A     -0.830755    20A     -0.762835    21A     -0.732895
      22A     -0.710849    23A     -0.700884    24A     -0.665989
      25A     -0.639208    26A     -0.615731    27A     -0.592269
      28A     -0.583782    29A     -0.544261    30A     -0.522053
      31A     -0.511774    32A     -0.493297    33A     -0.437961
      34A     -0.419315    35A     -0.355050    36A     -0.325041

  @DF-RHF Final Energy:  -493.29283603850450

   => Energetics <=

    Nuclear Repulsion Energy =            498.5830970608935218
    One-Electron Energy =               -1662.8034904891392216
    Two-Electron Energy =                 670.9275573897410823
    Total Energy =                       -493.2928360385045607
  Basis Set: (AUG-CC-PVTZ AUX)
    Blend: AUG-CC-PVTZ-RI
    Molecular point group: c1

    Geometry (in Angstrom), charge = 0, multiplicity = 1:

       Center              X                  Y                   Z               Mass
    ------------   -----------------  -----------------  -----------------  -----------------
         O           -0.055049023850     2.168336585115    -0.153912217488    15.994914619570
         O           -2.210837023850    -1.333297414885    -0.364574217488    15.994914619570
         O           -2.343168023850     0.783933585115     0.425874782512    15.994914619570
         C           -0.175181023850    -0.210322414885     0.019257782512    12.000000000000
         C            0.591009976150     0.968609585115    -0.053599217488    12.000000000000
         C            0.481277976150    -1.447317414885     0.095924782512    12.000000000000
         C            1.988036976150     0.883778585115    -0.052490217488    12.000000000000
         C            1.871063976150    -1.524367414885     0.105074782512    12.000000000000
         C            2.624789976150    -0.351809414885     0.033566782512    12.000000000000
         C           -1.739621823850    -0.327377014885    -0.003047517488    12.000000000000
         H           -0.118368023850    -2.350322414885     0.147355782512     1.007825032230
         H            2.577920976150     1.797596585115    -0.114838217488     1.007825032230
         H            2.362625976150    -2.490739414885     0.172169782512     1.007825032230
         H            3.711269976150    -0.394268414885     0.037805782512     1.007825032230
         H            0.621095976150     2.865459585115    -0.234725217488     1.007825032230
         H           -3.176410023850    -1.203495414885    -0.260719217488     1.007825032230

  Basis Set: AUG-CC-PVTZ
    Blend: AUG-CC-PVTZ
  Basis Set: (AUG-CC-PVTZ AUX)
    Blend: AUG-CC-PVTZ-JKFIT
	 Reference Energy          =    -493.2928360385045039 [Eh]
	 Singles Energy            =      -0.0000000000000000 [Eh]
	 Same-Spin Energy          =      -0.5069435502343794 [Eh]
	 Opposite-Spin Energy      =      -1.5059359824545318 [Eh]
	 Correlation Energy        =      -2.0128795326889111 [Eh]
	 Total Energy              =    -495.3057155711933888 [Eh]

	 ================> DF-SCS-MP2 Energies <==================
	-----------------------------------------------------------
	 SCS Same-Spin Scale       =       0.3333333333333333 [-]
	 SCS Opposite-Spin Scale   =       1.2000000000000000 [-]
	 SCS Same-Spin Energy      =      -0.1689811834114598 [Eh]
	 SCS Opposite-Spin Energy  =      -1.8071231789454381 [Eh]
	 SCS Correlation Energy    =      -1.9761043623568979 [Eh]
	 SCS Total Energy          =    -495.2689404008614247 [Eh]
	-----------------------------------------------------------

  Dipole Moment: [D]
     X:     1.8570      Y:    -1.8072      Z:    -1.0056     Total:     2.7795

*** Psi4 exiting successfully. Buy a developer a beer!
