                               Psi4 1.4a3.dev225

  ==> Input File <==

--------------------------------------------------------------------------
#psi4
#
memory 32 gb

molecule  {
0 1
  O       -0.1026610     2.1662260    -0.1575610
  O       -2.2584930    -1.3355120    -0.3678820
  O       -2.3910220     0.7817980     0.4224010
  C       -0.2229580    -0.2124560     0.0160270
  C        0.5432810     0.9664510    -0.0570850
  C        0.4334420    -1.4495130     0.0922690
  C        1.9403100     0.8815900    -0.0555280
  C        1.8232300    -1.5265840     0.1016960
  C        2.5770020    -0.3540720     0.0300640
  C       -1.7266811    -0.1565198     0.0560447
  H       -0.1662180    -2.3524950     0.1438230
  H        2.5302810     1.7953260    -0.1182260
  H        2.3147800    -2.4929990     0.1682820
  H        3.6634790    -0.3965710     0.0346780
  H        0.5735000     2.8633950    -0.2378390
  H       -3.2240480    -1.2056750    -0.2641070
units angstrom
no_reorient  #important for SAPT in psi4, default
symmetry c1  #important for SAPT in psi4, default
}

set PROPERTIES_ORIGIN ["COM"]
properties('MP2/aug-cc-pvtz', properties = ['dipole'])
--------------------------------------------------------------------------

    Molecular point group: c1
  Charge       = 0
  Multiplicity = 1
  Basis Set: AUG-CC-PVTZ
    Blend: AUG-CC-PVTZ
  Basis Set: (AUG-CC-PVTZ AUX)
    Blend: AUG-CC-PVTZ-JKFIT

    Orbital Energies [Eh]
    ---------------------

    Doubly Occupied:

       1A    -20.612364     2A    -20.601507     3A    -20.544737
       4A    -11.389187     5A    -11.329023     6A    -11.263812
       7A    -11.261094     8A    -11.256219     9A    -11.248670
      10A    -11.241376    11A     -1.459825    12A     -1.414151
      13A     -1.357102    14A     -1.165418    15A     -1.051512
      16A     -1.021357    17A     -0.894713    18A     -0.860215
      19A     -0.801424    20A     -0.744998    21A     -0.708126
      22A     -0.700791    23A     -0.675868    24A     -0.645212
      25A     -0.628055    26A     -0.622922    27A     -0.596064
      28A     -0.588694    29A     -0.580112    30A     -0.536917
      31A     -0.522505    32A     -0.497461    33A     -0.480695
      34A     -0.447027    35A     -0.360308    36A     -0.330635

  @DF-RHF Final Energy:  -493.35468913682627

   => Energetics <=

    Nuclear Repulsion Energy =            498.8898103130757136
    One-Electron Energy =               -1663.6088120215240451
    Two-Electron Energy =                 671.3643125716220084
    Total Energy =                       -493.3546891368263232
  Basis Set: (AUG-CC-PVTZ AUX)
    Blend: AUG-CC-PVTZ-RI
    Molecular point group: c1

    Geometry (in Angstrom), charge = 0, multiplicity = 1:

       Center              X                  Y                   Z               Mass
    ------------   -----------------  -----------------  -----------------  -----------------
         O           -0.060186506715     2.153361360151    -0.159576306209    15.994914619570
         O           -2.216018506715    -1.348376639849    -0.369897306209    15.994914619570
         O           -2.348547506715     0.768933360151     0.420385693791    15.994914619570
         C           -0.180483506715    -0.225320639849     0.014011693791    12.000000000000
         C            0.585755493285     0.953586360151    -0.059100306209    12.000000000000
         C            0.475916493285    -1.462377639849     0.090253693791    12.000000000000
         C            1.982784493285     0.868725360151    -0.057543306209    12.000000000000
         C            1.865704493285    -1.539448639849     0.099680693791    12.000000000000
         C            2.619476493285    -0.366936639849     0.028048693791    12.000000000000
         C           -1.684206606715    -0.169384439849     0.054029393791    12.000000000000
         H           -0.123743506715    -2.365359639849     0.141807693791     1.007825032230
         H            2.572755493285     1.782461360151    -0.120241306209     1.007825032230
         H            2.357254493285    -2.505863639849     0.166266693791     1.007825032230
         H            3.705953493285    -0.409435639849     0.032662693791     1.007825032230
         H            0.615974493285     2.850530360151    -0.239854306209     1.007825032230
         H           -3.181573506715    -1.218539639849    -0.266122306209     1.007825032230

  Basis Set: AUG-CC-PVTZ
    Blend: AUG-CC-PVTZ
  Basis Set: (AUG-CC-PVTZ AUX)
    Blend: AUG-CC-PVTZ-JKFIT
	 Reference Energy          =    -493.3546891368262663 [Eh]
	 Singles Energy            =      -0.0000000000000000 [Eh]
	 Same-Spin Energy          =      -0.5050025546787855 [Eh]
	 Opposite-Spin Energy      =      -1.5036723396731135 [Eh]
	 Correlation Energy        =      -2.0086748943518993 [Eh]
	 Total Energy              =    -495.3633640311781505 [Eh]

	 ================> DF-SCS-MP2 Energies <==================
	-----------------------------------------------------------
	 SCS Same-Spin Scale       =       0.3333333333333333 [-]
	 SCS Opposite-Spin Scale   =       1.2000000000000000 [-]
	 SCS Same-Spin Energy      =      -0.1683341848929285 [Eh]
	 SCS Opposite-Spin Energy  =      -1.8044068076077362 [Eh]
	 SCS Correlation Energy    =      -1.9727409925006647 [Eh]
	 SCS Total Energy          =    -495.3274301293269559 [Eh]
	-----------------------------------------------------------

  Dipole Moment: [D]
     X:     2.4740      Y:    -0.4825      Z:    -0.4605     Total:     2.5624

*** Psi4 exiting successfully. Buy a developer a beer!
