                               Psi4 1.3.2 release

  ==> Input File <==

--------------------------------------------------------------------------
#psi4
#
memory 32 gb

molecule  {
0 1
  O       -0.0172626     2.2083059    -0.1588611
  O       -2.2585870    -1.3354710    -0.3679860
  O       -2.3909180     0.7817600     0.4224630
  C       -0.2229310    -0.2124960     0.0158460
  C        0.5432600     0.9664360    -0.0570110
  C        0.4335280    -1.4494910     0.0925130
  C        1.9402870     0.8816050    -0.0559020
  C        1.8233140    -1.5265410     0.1016630
  C        2.5770400    -0.3539830     0.0301550
  C       -1.7066960    -0.1573290     0.0554370
  H       -0.1661180    -2.3524960     0.1439440
  H        2.5301710     1.7954230    -0.1182500
  H        2.3148760    -2.4929130     0.1687580
  H        3.6635200    -0.3964420     0.0343940
  H        0.5733460     2.8632860    -0.2381370
  H       -3.2241600    -1.2056690    -0.2641310
units angstrom
no_reorient  #important for SAPT in psi4, default
symmetry c1  #important for SAPT in psi4, default
}

set PROPERTIES_ORIGIN ["COM"]
properties('MP2/aug-cc-pvtz', properties = ['dipole'])
--------------------------------------------------------------------------

    Molecular point group: c1
  Charge       = 0
  Multiplicity = 1
  Basis Set: AUG-CC-PVTZ
    Blend: AUG-CC-PVTZ
  Basis Set: (AUG-CC-PVTZ AUX)
    Blend: AUG-CC-PVTZ-JKFIT

    Orbital Energies [Eh]
    ---------------------

    Doubly Occupied:

       1A    -20.610762     2A    -20.591388     3A    -20.544097
       4A    -11.390524     5A    -11.333550     6A    -11.264938
       7A    -11.263914     8A    -11.259664     9A    -11.248500
      10A    -11.243186    11A     -1.454682    12A     -1.431567
      13A     -1.349723    14A     -1.169519    15A     -1.055898
      16A     -1.026810    17A     -0.900215    18A     -0.868736
      19A     -0.805813    20A     -0.762084    21A     -0.712729
      22A     -0.698637    23A     -0.674848    24A     -0.647556
      25A     -0.627277    26A     -0.625546    27A     -0.597717
      28A     -0.588592    29A     -0.579761    30A     -0.534003
      31A     -0.525170    32A     -0.499549    33A     -0.477560
      34A     -0.448134    35A     -0.362286    36A     -0.332803

  @DF-RHF Final Energy:  -493.35021356347067

   => Energetics <=

    Nuclear Repulsion Energy =            498.6280003032919126
    One-Electron Energy =               -1662.9409523364056440
    Two-Electron Energy =                 670.9627384696431136
    Total Energy =                       -493.3502135634706747
  Basis Set: (AUG-CC-PVTZ AUX)
    Blend: AUG-CC-PVTZ-RI
    Molecular point group: c1

    Geometry (in Angstrom), charge = 0, multiplicity = 1:

       Center              X                  Y                   Z               Mass
    ------------   -----------------  -----------------  -----------------  -----------------
         O            0.013561864724     2.190623673693    -0.160652251652    15.994914619570
         O           -2.227762535276    -1.353153226307    -0.369777151652    15.994914619570
         O           -2.360093535276     0.764077773693     0.420671848348    15.994914619570
         C           -0.192106535276    -0.230178226307     0.014054848348    12.000000000000
         C            0.574084464724     0.948753773693    -0.058802151652    12.000000000000
         C            0.464352464724    -1.467173226307     0.090721848348    12.000000000000
         C            1.971111464724     0.863922773693    -0.057693151652    12.000000000000
         C            1.854138464724    -1.544223226307     0.099871848348    12.000000000000
         C            2.607864464724    -0.371665226307     0.028363848348    12.000000000000
         C           -1.675871535276    -0.175011226307     0.053645848348    12.000000000000
         H           -0.135293535276    -2.370178226307     0.142152848348     1.007825032230
         H            2.560995464724     1.777740773693    -0.120041151652     1.007825032230
         H            2.345700464724    -2.510595226307     0.166966848348     1.007825032230
         H            3.694344464724    -0.414124226307     0.032602848348     1.007825032230
         H            0.604170464724     2.845603773693    -0.239928151652     1.007825032230
         H           -3.193335535276    -1.223351226307    -0.265922151652     1.007825032230

  Basis Set: AUG-CC-PVTZ
    Blend: AUG-CC-PVTZ
  Basis Set: (AUG-CC-PVTZ AUX)
    Blend: AUG-CC-PVTZ-JKFIT
	 Reference Energy          =    -493.3502135634706747 [Eh]
	 Singles Energy            =      -0.0000000000000000 [Eh]
	 Same-Spin Energy          =      -0.5038345913730943 [Eh]
	 Opposite-Spin Energy      =      -1.5010697133436204 [Eh]
	 Correlation Energy        =      -2.0049043047167148 [Eh]
	 Total Energy              =    -495.3551178681873921 [Eh]

	 ================> DF-SCS-MP2 Energies <==================
	-----------------------------------------------------------
	 SCS Same-Spin Scale       =       0.3333333333333333 [-]
	 SCS Opposite-Spin Scale   =       1.2000000000000000 [-]
	 SCS Same-Spin Energy      =      -0.1679448637910314 [Eh]
	 SCS Opposite-Spin Energy  =      -1.8012836560123444 [Eh]
	 SCS Correlation Energy    =      -1.9692285198033759 [Eh]
	 SCS Total Energy          =    -495.3194420832740548 [Eh]
	-----------------------------------------------------------

  Dipole Moment: [D]
     X:     2.6087      Y:    -0.5851      Z:    -0.4632     Total:     2.7134

*** Psi4 exiting successfully. Buy a developer a beer!
