                               Psi4 1.3.2 release

  ==> Input File <==

--------------------------------------------------------------------------
#psi4
#
memory 32 gb

molecule  {
0 1
  O       -0.1027990     2.1661630    -0.1573240
  O       -2.2585870    -1.3354710    -0.3679860
  O       -2.3909180     0.7817600     0.4224630
  C       -0.2229310    -0.2124960     0.0158460
  C        0.6655272     1.0399973    -0.0666292
  C        0.4335280    -1.4494910     0.0925130
  C        1.9402870     0.8816050    -0.0559020
  C        1.8233140    -1.5265410     0.1016630
  C        2.5770400    -0.3539830     0.0301550
  C       -1.7066960    -0.1573290     0.0554370
  H       -0.1661180    -2.3524960     0.1439440
  H        2.5301710     1.7954230    -0.1182500
  H        2.3148760    -2.4929130     0.1687580
  H        3.6635200    -0.3964420     0.0343940
  H        0.5733460     2.8632860    -0.2381370
  H       -3.2241600    -1.2056690    -0.2641310
units angstrom
no_reorient  #important for SAPT in psi4, default
symmetry c1  #important for SAPT in psi4, default
}

set PROPERTIES_ORIGIN ["COM"]
properties('MP2/aug-cc-pvtz', properties = ['dipole'])
--------------------------------------------------------------------------

    Molecular point group: c1
  Charge       = 0
  Multiplicity = 1
  Basis Set: AUG-CC-PVTZ
    Blend: AUG-CC-PVTZ
  Basis Set: (AUG-CC-PVTZ AUX)
    Blend: AUG-CC-PVTZ-JKFIT

    Orbital Energies [Eh]
    ---------------------

    Doubly Occupied:

       1A    -20.608222     2A    -20.606407     3A    -20.540759
       4A    -11.388306     5A    -11.325908     6A    -11.268550
       7A    -11.264872     8A    -11.262760     9A    -11.244437
      10A    -11.236425    11A     -1.451665    12A     -1.419494
      13A     -1.346522    14A     -1.168683    15A     -1.058309
      16A     -1.026179    17A     -0.903927    18A     -0.846389
      19A     -0.806538    20A     -0.740087    21A     -0.710724
      22A     -0.697052    23A     -0.679369    24A     -0.633992
      25A     -0.625436    26A     -0.621314    27A     -0.599855
      28A     -0.590202    29A     -0.580186    30A     -0.548658
      31A     -0.504292    32A     -0.498845    33A     -0.474993
      34A     -0.446091    35A     -0.369473    36A     -0.329315

  @DF-RHF Final Energy:  -493.32687574199332

   => Energetics <=

    Nuclear Repulsion Energy =            498.0754610927972976
    One-Electron Energy =               -1661.9561987550250706
    Two-Electron Energy =                 670.5538619202345672
    Total Energy =                       -493.3268757419932626
  Basis Set: (AUG-CC-PVTZ AUX)
    Blend: AUG-CC-PVTZ-RI
    Molecular point group: c1

    Geometry (in Angstrom), charge = 0, multiplicity = 1:

       Center              X                  Y                   Z               Mass
    ------------   -----------------  -----------------  -----------------  -----------------
         O           -0.072692189188     2.146969066443    -0.158457095419    15.994914619570
         O           -2.228480189188    -1.354664933557    -0.369119095419    15.994914619570
         O           -2.360811189188     0.762566066443     0.421329904581    15.994914619570
         C           -0.192824189188    -0.231689933557     0.014712904581    12.000000000000
         C            0.695634010812     1.020803366443    -0.067762295419    12.000000000000
         C            0.463634810812    -1.468684933557     0.091379904581    12.000000000000
         C            1.970393810812     0.862411066443    -0.057035095419    12.000000000000
         C            1.853420810812    -1.545734933557     0.100529904581    12.000000000000
         C            2.607146810812    -0.373176933557     0.029021904581    12.000000000000
         C           -1.676589189188    -0.176522933557     0.054303904581    12.000000000000
         H           -0.136011189188    -2.371689933557     0.142810904581     1.007825032230
         H            2.560277810812     1.776229066443    -0.119383095419     1.007825032230
         H            2.344982810812    -2.512106933557     0.167624904581     1.007825032230
         H            3.693626810812    -0.415635933557     0.033260904581     1.007825032230
         H            0.603452810812     2.844092066443    -0.239270095419     1.007825032230
         H           -3.194053189188    -1.224862933557    -0.265264095419     1.007825032230

  Basis Set: AUG-CC-PVTZ
    Blend: AUG-CC-PVTZ
  Basis Set: (AUG-CC-PVTZ AUX)
    Blend: AUG-CC-PVTZ-JKFIT
	 Reference Energy          =    -493.3268757419933195 [Eh]
	 Singles Energy            =      -0.0000000000000000 [Eh]
	 Same-Spin Energy          =      -0.5053087648556392 [Eh]
	 Opposite-Spin Energy      =      -1.5061645232082990 [Eh]
	 Correlation Energy        =      -2.0114732880639381 [Eh]
	 Total Energy              =    -495.3383490300572589 [Eh]

	 ================> DF-SCS-MP2 Energies <==================
	-----------------------------------------------------------
	 SCS Same-Spin Scale       =       0.3333333333333333 [-]
	 SCS Opposite-Spin Scale   =       1.2000000000000000 [-]
	 SCS Same-Spin Energy      =      -0.1684362549518797 [Eh]
	 SCS Opposite-Spin Energy  =      -1.8073974278499587 [Eh]
	 SCS Correlation Energy    =      -1.9758336828018384 [Eh]
	 SCS Total Energy          =    -495.3027094247951823 [Eh]
	-----------------------------------------------------------

  Dipole Moment: [D]
     X:     2.7048      Y:    -0.4559      Z:    -0.4687     Total:     2.7827

*** Psi4 exiting successfully. Buy a developer a beer!
