                               Psi4 1.3.2 release

  ==> Input File <==

--------------------------------------------------------------------------
#psi4
#
memory 32 gb

molecule  {
0 1
  O       -0.1027990     2.1661630    -0.1573240
  O       -2.2366559    -1.3442464    -0.3714808
  O       -2.3909180     0.7817600     0.4224630
  C       -0.2229310    -0.2124960     0.0158460
  C        0.5432600     0.9664360    -0.0570110
  C        0.4335280    -1.4494910     0.0925130
  C        1.9402870     0.8816050    -0.0559020
  C        1.8233140    -1.5265410     0.1016630
  C        2.5770400    -0.3539830     0.0301550
  C       -1.7066960    -0.1573290     0.0554370
  H       -0.1661180    -2.3524960     0.1439440
  H        2.5301710     1.7954230    -0.1182500
  H        2.3148760    -2.4929130     0.1687580
  H        3.6635200    -0.3964420     0.0343940
  H        0.5733460     2.8632860    -0.2381370
  H       -3.2241600    -1.2056690    -0.2641310
units angstrom
no_reorient  #important for SAPT in psi4, default
symmetry c1  #important for SAPT in psi4, default
}

set PROPERTIES_ORIGIN ["COM"]
properties('MP2/aug-cc-pvtz', properties = ['dipole'])
--------------------------------------------------------------------------

    Molecular point group: c1
  Charge       = 0
  Multiplicity = 1
  Basis Set: AUG-CC-PVTZ
    Blend: AUG-CC-PVTZ
  Basis Set: (AUG-CC-PVTZ AUX)
    Blend: AUG-CC-PVTZ-JKFIT

    Orbital Energies [Eh]
    ---------------------

    Doubly Occupied:

       1A    -20.612845     2A    -20.602363     3A    -20.543918
       4A    -11.389456     5A    -11.330341     6A    -11.265175
       7A    -11.262266     8A    -11.255559     9A    -11.249401
      10A    -11.242109    11A     -1.451611    12A     -1.414821
      13A     -1.348524    14A     -1.166837    15A     -1.054262
      16A     -1.022456    17A     -0.896060    18A     -0.860942
      19A     -0.798504    20A     -0.745641    21A     -0.706507
      22A     -0.697768    23A     -0.675475    24A     -0.643987
      25A     -0.625485    26A     -0.623152    27A     -0.595869
      28A     -0.587838    29A     -0.580153    30A     -0.536982
      31A     -0.523138    32A     -0.497960    33A     -0.477281
      34A     -0.446943    35A     -0.361280    36A     -0.331568

  @DF-RHF Final Energy:  -493.35124741865638

   => Energetics <=

    Nuclear Repulsion Energy =            499.0629209431317577
    One-Electron Energy =               -1663.9793810631219912
    Two-Electron Energy =                 671.5652127013338486
    Total Energy =                       -493.3512474186563850
  Basis Set: (AUG-CC-PVTZ AUX)
    Blend: AUG-CC-PVTZ-RI
    Molecular point group: c1

    Geometry (in Angstrom), charge = 0, multiplicity = 1:

       Center              X                  Y                   Z               Mass
    ------------   -----------------  -----------------  -----------------  -----------------
         O           -0.064604044391     2.154381113225    -0.158888296186    15.994914619570
         O           -2.198460944391    -1.356028286775    -0.373045096186    15.994914619570
         O           -2.352723044391     0.769978113225     0.420898703814    15.994914619570
         C           -0.184736044391    -0.224277886775     0.014281703814    12.000000000000
         C            0.581454955609     0.954654113225    -0.058575296186    12.000000000000
         C            0.471722955609    -1.461272886775     0.090948703814    12.000000000000
         C            1.978481955609     0.869823113225    -0.057466296186    12.000000000000
         C            1.861508955609    -1.538322886775     0.100098703814    12.000000000000
         C            2.615234955609    -0.365764886775     0.028590703814    12.000000000000
         C           -1.668501044391    -0.169110886775     0.053872703814    12.000000000000
         H           -0.127923044391    -2.364277886775     0.142379703814     1.007825032230
         H            2.568365955609     1.783641113225    -0.119814296186     1.007825032230
         H            2.353070955609    -2.504694886775     0.167193703814     1.007825032230
         H            3.701714955609    -0.408223886775     0.032829703814     1.007825032230
         H            0.611540955609     2.851504113225    -0.239701296186     1.007825032230
         H           -3.185965044391    -1.217450886775    -0.265695296186     1.007825032230

  Basis Set: AUG-CC-PVTZ
    Blend: AUG-CC-PVTZ
  Basis Set: (AUG-CC-PVTZ AUX)
    Blend: AUG-CC-PVTZ-JKFIT
	 Reference Energy          =    -493.3512474186563850 [Eh]
	 Singles Energy            =      -0.0000000000000000 [Eh]
	 Same-Spin Energy          =      -0.5058560804281574 [Eh]
	 Opposite-Spin Energy      =      -1.5054745734774022 [Eh]
	 Correlation Energy        =      -2.0113306539055595 [Eh]
	 Total Energy              =    -495.3625780725619165 [Eh]

	 ================> DF-SCS-MP2 Energies <==================
	-----------------------------------------------------------
	 SCS Same-Spin Scale       =       0.3333333333333333 [-]
	 SCS Opposite-Spin Scale   =       1.2000000000000000 [-]
	 SCS Same-Spin Energy      =      -0.1686186934760525 [Eh]
	 SCS Opposite-Spin Energy  =      -1.8065694881728827 [Eh]
	 SCS Correlation Energy    =      -1.9751881816489352 [Eh]
	 SCS Total Energy          =    -495.3264356003053308 [Eh]
	-----------------------------------------------------------

  Dipole Moment: [D]
     X:     2.5926      Y:    -0.4746      Z:    -0.4629     Total:     2.6760

*** Psi4 exiting successfully. Buy a developer a beer!
