                               Psi4 1.3.2 release

  ==> Input File <==

--------------------------------------------------------------------------
#psi4
#
memory 32 gb

molecule  {
0 1
  O       -0.1027990     2.1661630    -0.1573240
  O       -2.2585870    -1.3354710    -0.3679860
  O       -2.3909180     0.7817600     0.4224630
  C       -0.2229310    -0.2124960     0.0158460
  C        0.4589986     1.0169081    -0.0601479
  C        0.4335280    -1.4494910     0.0925130
  C        1.9402870     0.8816050    -0.0559020
  C        1.8233140    -1.5265410     0.1016630
  C        2.5770400    -0.3539830     0.0301550
  C       -1.7066960    -0.1573290     0.0554370
  H       -0.1661180    -2.3524960     0.1439440
  H        2.5301710     1.7954230    -0.1182500
  H        2.3148760    -2.4929130     0.1687580
  H        3.6635200    -0.3964420     0.0343940
  H        0.5733460     2.8632860    -0.2381370
  H       -3.2241600    -1.2056690    -0.2641310
units angstrom
no_reorient  #important for SAPT in psi4, default
symmetry c1  #important for SAPT in psi4, default
}

set PROPERTIES_ORIGIN ["COM"]
properties('MP2/aug-cc-pvtz', properties = ['dipole'])
--------------------------------------------------------------------------

    Molecular point group: c1
  Charge       = 0
  Multiplicity = 1
  Basis Set: AUG-CC-PVTZ
    Blend: AUG-CC-PVTZ
  Basis Set: (AUG-CC-PVTZ AUX)
    Blend: AUG-CC-PVTZ-JKFIT

    Orbital Energies [Eh]
    ---------------------

    Doubly Occupied:

       1A    -20.620283     2A    -20.607182     3A    -20.540804
       4A    -11.385371     5A    -11.341694     6A    -11.262218
       7A    -11.260318     8A    -11.253278     9A    -11.251526
      10A    -11.237127    11A     -1.465964    12A     -1.449927
      13A     -1.347209    14A     -1.157556    15A     -1.051879
      16A     -1.011691    17A     -0.892033    18A     -0.871786
      19A     -0.799099    20A     -0.765265    21A     -0.708927
      22A     -0.697157    23A     -0.682858    24A     -0.648248
      25A     -0.634334    26A     -0.622649    27A     -0.612613
      28A     -0.583448    29A     -0.580785    30A     -0.536293
      31A     -0.512075    32A     -0.495336    33A     -0.475240
      34A     -0.442420    35A     -0.359962    36A     -0.318741

  @DF-RHF Final Energy:  -493.34360525699617

   => Energetics <=

    Nuclear Repulsion Energy =            499.1293445915757161
    One-Electron Energy =               -1663.9793048454312157
    Two-Electron Energy =                 671.5063549968592724
    Total Energy =                       -493.3436052569961703
  Basis Set: (AUG-CC-PVTZ AUX)
    Blend: AUG-CC-PVTZ-RI
    Molecular point group: c1

    Geometry (in Angstrom), charge = 0, multiplicity = 1:

       Center              X                  Y                   Z               Mass
    ------------   -----------------  -----------------  -----------------  -----------------
         O           -0.054737304137     2.148976361955    -0.159020557314    15.994914619570
         O           -2.210525304137    -1.352657638045    -0.369682557314    15.994914619570
         O           -2.342856304137     0.764573361955     0.420766442686    15.994914619570
         C           -0.174869304137    -0.229682638045     0.014149442686    12.000000000000
         C            0.507060295863     0.999721461955    -0.061844457314    12.000000000000
         C            0.481589695863    -1.466677638045     0.090816442686    12.000000000000
         C            1.988348695863     0.864418361955    -0.057598557314    12.000000000000
         C            1.871375695863    -1.543727638045     0.099966442686    12.000000000000
         C            2.625101695863    -0.371169638045     0.028458442686    12.000000000000
         C           -1.658634304137    -0.174515638045     0.053740442686    12.000000000000
         H           -0.118056304137    -2.369682638045     0.142247442686     1.007825032230
         H            2.578232695863     1.778236361955    -0.119946557314     1.007825032230
         H            2.362937695863    -2.510099638045     0.167061442686     1.007825032230
         H            3.711581695863    -0.413628638045     0.032697442686     1.007825032230
         H            0.621407695863     2.846099361955    -0.239833557314     1.007825032230
         H           -3.176098304137    -1.222855638045    -0.265827557314     1.007825032230

  Basis Set: AUG-CC-PVTZ
    Blend: AUG-CC-PVTZ
  Basis Set: (AUG-CC-PVTZ AUX)
    Blend: AUG-CC-PVTZ-JKFIT
	 Reference Energy          =    -493.3436052569961703 [Eh]
	 Singles Energy            =      -0.0000000000000000 [Eh]
	 Same-Spin Energy          =      -0.5051845587603242 [Eh]
	 Opposite-Spin Energy      =      -1.5034290837523079 [Eh]
	 Correlation Energy        =      -2.0086136425126320 [Eh]
	 Total Energy              =    -495.3522188995087845 [Eh]

	 ================> DF-SCS-MP2 Energies <==================
	-----------------------------------------------------------
	 SCS Same-Spin Scale       =       0.3333333333333333 [-]
	 SCS Opposite-Spin Scale   =       1.2000000000000000 [-]
	 SCS Same-Spin Energy      =      -0.1683948529201081 [Eh]
	 SCS Opposite-Spin Energy  =      -1.8041149005027695 [Eh]
	 SCS Correlation Energy    =      -1.9725097534228775 [Eh]
	 SCS Total Energy          =    -495.3161150104190256 [Eh]
	-----------------------------------------------------------

  Dipole Moment: [D]
     X:     2.4716      Y:     0.0792      Z:    -0.5124     Total:     2.5254

*** Psi4 exiting successfully. Buy a developer a beer!
