                               Psi4 1.3.2 release

  ==> Input File <==

--------------------------------------------------------------------------
#psi4
#
memory 32 gb

molecule  {
0 1
  O       -0.1027990     2.1661630    -0.1573240
  O       -2.2585870    -1.3354710    -0.3679860
  O       -2.3909180     0.7817600     0.4224630
  C       -0.2229310    -0.2124960     0.0158460
  C        0.6624597     0.8797810    -0.0566224
  C        0.4335280    -1.4494910     0.0925130
  C        1.9402870     0.8816050    -0.0559020
  C        1.8233140    -1.5265410     0.1016630
  C        2.5770400    -0.3539830     0.0301550
  C       -1.7066960    -0.1573290     0.0554370
  H       -0.1661180    -2.3524960     0.1439440
  H        2.5301710     1.7954230    -0.1182500
  H        2.3148760    -2.4929130     0.1687580
  H        3.6635200    -0.3964420     0.0343940
  H        0.5733460     2.8632860    -0.2381370
  H       -3.2241600    -1.2056690    -0.2641310
units angstrom
no_reorient  #important for SAPT in psi4, default
symmetry c1  #important for SAPT in psi4, default
}

set PROPERTIES_ORIGIN ["COM"]
properties('MP2/aug-cc-pvtz', properties = ['dipole'])
--------------------------------------------------------------------------

    Molecular point group: c1
  Charge       = 0
  Multiplicity = 1
  Basis Set: AUG-CC-PVTZ
    Blend: AUG-CC-PVTZ
  Basis Set: (AUG-CC-PVTZ AUX)
    Blend: AUG-CC-PVTZ-JKFIT

    Orbital Energies [Eh]
    ---------------------

    Doubly Occupied:

       1A    -20.612940     2A    -20.577724     3A    -20.544647
       4A    -11.394339     5A    -11.316981     6A    -11.270870
       7A    -11.267036     8A    -11.263895     9A    -11.249308
      10A    -11.242425    11A     -1.455694    12A     -1.357118
      13A     -1.347038    14A     -1.185873    15A     -1.067314
      16A     -1.035659    17A     -0.906811    18A     -0.854271
      19A     -0.809267    20A     -0.733553    21A     -0.700816
      22A     -0.695863    23A     -0.672911    24A     -0.648445
      25A     -0.625887    26A     -0.614988    27A     -0.597106
      28A     -0.574273    29A     -0.570749    30A     -0.541612
      31A     -0.515376    32A     -0.496590    33A     -0.477628
      34A     -0.449764    35A     -0.370825    36A     -0.347520

  @DF-RHF Final Energy:  -493.32409404467131

   => Energetics <=

    Nuclear Repulsion Energy =            499.1644573734353685
    One-Electron Energy =               -1664.1908746881122170
    Two-Electron Energy =                 671.7023232700055360
    Total Energy =                       -493.3240940446712557
  Basis Set: (AUG-CC-PVTZ AUX)
    Blend: AUG-CC-PVTZ-RI
    Molecular point group: c1

    Geometry (in Angstrom), charge = 0, multiplicity = 1:

       Center              X                  Y                   Z               Mass
    ------------   -----------------  -----------------  -----------------  -----------------
         O           -0.072425511304     2.160897719664    -0.159327052140    15.994914619570
         O           -2.228213511304    -1.340736280336    -0.369989052140    15.994914619570
         O           -2.360544511304     0.776494719664     0.420459947860    15.994914619570
         C           -0.192557511304    -0.217761280336     0.013842947860    12.000000000000
         C            0.692833188696     0.874515719664    -0.058625452140    12.000000000000
         C            0.463901488696    -1.454756280336     0.090509947860    12.000000000000
         C            1.970660488696     0.876339719664    -0.057905052140    12.000000000000
         C            1.853687488696    -1.531806280336     0.099659947860    12.000000000000
         C            2.607413488696    -0.359248280336     0.028151947860    12.000000000000
         C           -1.676322511304    -0.162594280336     0.053433947860    12.000000000000
         H           -0.135744511304    -2.357761280336     0.141940947860     1.007825032230
         H            2.560544488696     1.790157719664    -0.120253052140     1.007825032230
         H            2.345249488696    -2.498178280336     0.166754947860     1.007825032230
         H            3.693893488696    -0.401707280336     0.032390947860     1.007825032230
         H            0.603719488696     2.858020719664    -0.240140052140     1.007825032230
         H           -3.193786511304    -1.210934280336    -0.266134052140     1.007825032230

  Basis Set: AUG-CC-PVTZ
    Blend: AUG-CC-PVTZ
  Basis Set: (AUG-CC-PVTZ AUX)
    Blend: AUG-CC-PVTZ-JKFIT
	 Reference Energy          =    -493.3240940446713125 [Eh]
	 Singles Energy            =      -0.0000000000000000 [Eh]
	 Same-Spin Energy          =      -0.5059715799699402 [Eh]
	 Opposite-Spin Energy      =      -1.5076942627190881 [Eh]
	 Correlation Energy        =      -2.0136658426890284 [Eh]
	 Total Energy              =    -495.3377598873603347 [Eh]

	 ================> DF-SCS-MP2 Energies <==================
	-----------------------------------------------------------
	 SCS Same-Spin Scale       =       0.3333333333333333 [-]
	 SCS Opposite-Spin Scale   =       1.2000000000000000 [-]
	 SCS Same-Spin Energy      =      -0.1686571933233134 [Eh]
	 SCS Opposite-Spin Energy  =      -1.8092331152629058 [Eh]
	 SCS Correlation Energy    =      -1.9778903085862192 [Eh]
	 SCS Total Energy          =    -495.3019843532575237 [Eh]
	-----------------------------------------------------------

  Dipole Moment: [D]
     X:     2.9268      Y:    -1.2188      Z:    -0.3947     Total:     3.1949

*** Psi4 exiting successfully. Buy a developer a beer!
