                               Psi4 1.3.2 release

  ==> Input File <==

--------------------------------------------------------------------------
#psi4
#
memory 32 gb

molecule  {
0 1
  O       -0.1027990     2.1661630    -0.1573240
  O       -2.2585870    -1.3354710    -0.3679860
  O       -2.3909180     0.7817600     0.4224630
  C       -0.2229310    -0.2124960     0.0158460
  C        0.6256424     1.0140633    -0.0633073
  C        0.4335280    -1.4494910     0.0925130
  C        1.9402870     0.8816050    -0.0559020
  C        1.8233140    -1.5265410     0.1016630
  C        2.5770400    -0.3539830     0.0301550
  C       -1.7066960    -0.1573290     0.0554370
  H       -0.1661180    -2.3524960     0.1439440
  H        2.5301710     1.7954230    -0.1182500
  H        2.3148760    -2.4929130     0.1687580
  H        3.6635200    -0.3964420     0.0343940
  H        0.5733460     2.8632860    -0.2381370
  H       -3.2241600    -1.2056690    -0.2641310
units angstrom
no_reorient  #important for SAPT in psi4, default
symmetry c1  #important for SAPT in psi4, default
}

set PROPERTIES_ORIGIN ["COM"]
properties('MP2/aug-cc-pvtz', properties = ['dipole'])
--------------------------------------------------------------------------

    Molecular point group: c1
  Charge       = 0
  Multiplicity = 1
  Basis Set: AUG-CC-PVTZ
    Blend: AUG-CC-PVTZ
  Basis Set: (AUG-CC-PVTZ AUX)
    Blend: AUG-CC-PVTZ-JKFIT

    Orbital Energies [Eh]
    ---------------------

    Doubly Occupied:

       1A    -20.608771     2A    -20.605092     3A    -20.541385
       4A    -11.388701     5A    -11.328005     6A    -11.267825
       7A    -11.263494     8A    -11.262171     9A    -11.243549
      10A    -11.240908    11A     -1.452304    12A     -1.418047
      13A     -1.347148    14A     -1.167636    15A     -1.054840
      16A     -1.026709    17A     -0.901873    18A     -0.851982
      19A     -0.804873    20A     -0.741962    21A     -0.709868
      22A     -0.697478    23A     -0.678296    24A     -0.636189
      25A     -0.625273    26A     -0.621437    27A     -0.598377
      28A     -0.590705    29A     -0.580759    30A     -0.545415
      31A     -0.512483    32A     -0.498764    33A     -0.475585
      34A     -0.446510    35A     -0.365187    36A     -0.330998

  @DF-RHF Final Energy:  -493.34152932302879

   => Energetics <=

    Nuclear Repulsion Energy =            498.3575271390929515
    One-Electron Energy =               -1662.5369137919085460
    Two-Electron Energy =                 670.8378573297867433
    Total Energy =                       -493.3415293230287944
  Basis Set: (AUG-CC-PVTZ AUX)
    Blend: AUG-CC-PVTZ-RI
    Molecular point group: c1

    Geometry (in Angstrom), charge = 0, multiplicity = 1:

       Center              X                  Y                   Z               Mass
    ------------   -----------------  -----------------  -----------------  -----------------
         O           -0.069224742068     2.149223679067    -0.158745889962    15.994914619570
         O           -2.225012742068    -1.352410320933    -0.369407889962    15.994914619570
         O           -2.357343742068     0.764820679067     0.421041110038    15.994914619570
         C           -0.189356742068    -0.229435320933     0.014424110038    12.000000000000
         C            0.659216657932     0.997123979067    -0.064729189962    12.000000000000
         C            0.467102257932    -1.466430320933     0.091091110038    12.000000000000
         C            1.973861257932     0.864665679067    -0.057323889962    12.000000000000
         C            1.856888257932    -1.543480320933     0.100241110038    12.000000000000
         C            2.610614257932    -0.370922320933     0.028733110038    12.000000000000
         C           -1.673121742068    -0.174268320933     0.054015110038    12.000000000000
         H           -0.132543742068    -2.369435320933     0.142522110038     1.007825032230
         H            2.563745257932     1.778483679067    -0.119671889962     1.007825032230
         H            2.348450257932    -2.509852320933     0.167336110038     1.007825032230
         H            3.697094257932    -0.413381320933     0.032972110038     1.007825032230
         H            0.606920257932     2.846346679067    -0.239558889962     1.007825032230
         H           -3.190585742068    -1.222608320933    -0.265552889962     1.007825032230

  Basis Set: AUG-CC-PVTZ
    Blend: AUG-CC-PVTZ
  Basis Set: (AUG-CC-PVTZ AUX)
    Blend: AUG-CC-PVTZ-JKFIT
	 Reference Energy          =    -493.3415293230287944 [Eh]
	 Singles Energy            =      -0.0000000000000000 [Eh]
	 Same-Spin Energy          =      -0.5053932965102490 [Eh]
	 Opposite-Spin Energy      =      -1.5053546549148638 [Eh]
	 Correlation Energy        =      -2.0107479514251128 [Eh]
	 Total Energy              =    -495.3522772744539111 [Eh]

	 ================> DF-SCS-MP2 Energies <==================
	-----------------------------------------------------------
	 SCS Same-Spin Scale       =       0.3333333333333333 [-]
	 SCS Opposite-Spin Scale   =       1.2000000000000000 [-]
	 SCS Same-Spin Energy      =      -0.1684644321700830 [Eh]
	 SCS Opposite-Spin Energy  =      -1.8064255858978364 [Eh]
	 SCS Correlation Energy    =      -1.9748900180679194 [Eh]
	 SCS Total Energy          =    -495.3164193410967187 [Eh]
	-----------------------------------------------------------

  Dipole Moment: [D]
     X:     2.6859      Y:    -0.4623      Z:    -0.4664     Total:     2.7650

*** Psi4 exiting successfully. Buy a developer a beer!
