                               Psi4 1.3.2 release

  ==> Input File <==

--------------------------------------------------------------------------
#psi4
#
memory 32 gb

molecule  {
0 1
  O       -0.1852049     2.1183708    -0.1528491
  O       -2.2585870    -1.3354710    -0.3679860
  O       -2.3909180     0.7817600     0.4224630
  C       -0.2229310    -0.2124960     0.0158460
  C        0.5432600     0.9664360    -0.0570110
  C        0.4335280    -1.4494910     0.0925130
  C        1.9402870     0.8816050    -0.0559020
  C        1.8233140    -1.5265410     0.1016630
  C        2.5770400    -0.3539830     0.0301550
  C       -1.7066960    -0.1573290     0.0554370
  H       -0.1661180    -2.3524960     0.1439440
  H        2.5301710     1.7954230    -0.1182500
  H        2.3148760    -2.4929130     0.1687580
  H        3.6635200    -0.3964420     0.0343940
  H        0.5733460     2.8632860    -0.2381370
  H       -3.2241600    -1.2056690    -0.2641310
units angstrom
no_reorient  #important for SAPT in psi4, default
symmetry c1  #important for SAPT in psi4, default
}

set PROPERTIES_ORIGIN ["COM"]
properties('MP2/aug-cc-pvtz', properties = ['dipole'])
--------------------------------------------------------------------------

    Molecular point group: c1
  Charge       = 0
  Multiplicity = 1
  Basis Set: AUG-CC-PVTZ
    Blend: AUG-CC-PVTZ
  Basis Set: (AUG-CC-PVTZ AUX)
    Blend: AUG-CC-PVTZ-JKFIT

    Orbital Energies [Eh]
    ---------------------

    Doubly Occupied:

       1A    -20.612034     2A    -20.608998     3A    -20.541497
       4A    -11.388259     5A    -11.329445     6A    -11.266334
       7A    -11.261987     8A    -11.253811     9A    -11.251344
      10A    -11.242130    11A     -1.452773    12A     -1.402951
      13A     -1.347235    14A     -1.165805    15A     -1.054366
      16A     -1.020403    17A     -0.896952    18A     -0.856368
      19A     -0.799338    20A     -0.732239    21A     -0.702302
      22A     -0.696978    23A     -0.677374    24A     -0.641346
      25A     -0.624091    26A     -0.620044    27A     -0.595048
      28A     -0.588370    29A     -0.578812    30A     -0.539823
      31A     -0.520539    32A     -0.497561    33A     -0.475556
      34A     -0.444942    35A     -0.361498    36A     -0.331359

  @DF-RHF Final Energy:  -493.33820481372516

   => Energetics <=

    Nuclear Repulsion Energy =            499.5184091759012972
    One-Electron Energy =               -1664.9533996990221567
    Two-Electron Energy =                 672.0967857093957036
    Total Energy =                       -493.3382048137251559
  Basis Set: (AUG-CC-PVTZ AUX)
    Blend: AUG-CC-PVTZ-RI
    Molecular point group: c1

    Geometry (in Angstrom), charge = 0, multiplicity = 1:

       Center              X                  Y                   Z               Mass
    ------------   -----------------  -----------------  -----------------  -----------------
         O           -0.134919522564     2.111110124017    -0.155336913585    15.994914619570
         O           -2.208301622564    -1.342731675983    -0.370473813585    15.994914619570
         O           -2.340632622564     0.774499324017     0.419975186415    15.994914619570
         C           -0.172645622564    -0.219756675983     0.013358186415    12.000000000000
         C            0.593545377436     0.959175324017    -0.059498813585    12.000000000000
         C            0.483813377436    -1.456751675983     0.090025186415    12.000000000000
         C            1.990572377436     0.874344324017    -0.058389813585    12.000000000000
         C            1.873599377436    -1.533801675983     0.099175186415    12.000000000000
         C            2.627325377436    -0.361243675983     0.027667186415    12.000000000000
         C           -1.656410622564    -0.164589675983     0.052949186415    12.000000000000
         H           -0.115832622564    -2.359756675983     0.141456186415     1.007825032230
         H            2.580456377436     1.788162324017    -0.120737813585     1.007825032230
         H            2.365161377436    -2.500173675983     0.166270186415     1.007825032230
         H            3.713805377436    -0.403702675983     0.031906186415     1.007825032230
         H            0.623631377436     2.856025324017    -0.240624813585     1.007825032230
         H           -3.173874622564    -1.212929675983    -0.266618813585     1.007825032230

  Basis Set: AUG-CC-PVTZ
    Blend: AUG-CC-PVTZ
  Basis Set: (AUG-CC-PVTZ AUX)
    Blend: AUG-CC-PVTZ-JKFIT
	 Reference Energy          =    -493.3382048137251559 [Eh]
	 Singles Energy            =      -0.0000000000000000 [Eh]
	 Same-Spin Energy          =      -0.5071755754510170 [Eh]
	 Opposite-Spin Energy      =      -1.5086523439029007 [Eh]
	 Correlation Energy        =      -2.0158279193539177 [Eh]
	 Total Energy              =    -495.3540327330790660 [Eh]

	 ================> DF-SCS-MP2 Energies <==================
	-----------------------------------------------------------
	 SCS Same-Spin Scale       =       0.3333333333333333 [-]
	 SCS Opposite-Spin Scale   =       1.2000000000000000 [-]
	 SCS Same-Spin Energy      =      -0.1690585251503390 [Eh]
	 SCS Opposite-Spin Energy  =      -1.8103828126834807 [Eh]
	 SCS Correlation Energy    =      -1.9794413378338196 [Eh]
	 SCS Total Energy          =    -495.3176461515589608 [Eh]
	-----------------------------------------------------------

  Dipole Moment: [D]
     X:     2.6820      Y:    -0.3851      Z:    -0.4628     Total:     2.7488

*** Psi4 exiting successfully. Buy a developer a beer!
