                               Psi4 1.3.2 release

  ==> Input File <==

--------------------------------------------------------------------------
#psi4
#
memory 32 gb

molecule  {
0 1
  O       -0.1027990     2.1661630    -0.1573240
  O       -2.2145633    -1.3526603    -0.3748456
  O       -2.3909180     0.7817600     0.4224630
  C       -0.2229310    -0.2124960     0.0158460
  C        0.5432600     0.9664360    -0.0570110
  C        0.4335280    -1.4494910     0.0925130
  C        1.9402870     0.8816050    -0.0559020
  C        1.8233140    -1.5265410     0.1016630
  C        2.5770400    -0.3539830     0.0301550
  C       -1.7066960    -0.1573290     0.0554370
  H       -0.1661180    -2.3524960     0.1439440
  H        2.5301710     1.7954230    -0.1182500
  H        2.3148760    -2.4929130     0.1687580
  H        3.6635200    -0.3964420     0.0343940
  H        0.5733460     2.8632860    -0.2381370
  H       -3.2241600    -1.2056690    -0.2641310
units angstrom
no_reorient  #important for SAPT in psi4, default
symmetry c1  #important for SAPT in psi4, default
}

set PROPERTIES_ORIGIN ["COM"]
properties('MP2/aug-cc-pvtz', properties = ['dipole'])
--------------------------------------------------------------------------

    Molecular point group: c1
  Charge       = 0
  Multiplicity = 1
  Basis Set: AUG-CC-PVTZ
    Blend: AUG-CC-PVTZ
  Basis Set: (AUG-CC-PVTZ AUX)
    Blend: AUG-CC-PVTZ-JKFIT

    Orbital Energies [Eh]
    ---------------------

    Doubly Occupied:

       1A    -20.615735     2A    -20.602054     3A    -20.545126
       4A    -11.389667     5A    -11.329677     6A    -11.264686
       7A    -11.261613     8A    -11.254570     9A    -11.248937
      10A    -11.241652    11A     -1.449838    12A     -1.414442
      13A     -1.348702    14A     -1.166229    15A     -1.053466
      16A     -1.021966    17A     -0.894477    18A     -0.860149
      19A     -0.796020    20A     -0.745420    21A     -0.704823
      22A     -0.696969    23A     -0.674780    24A     -0.643921
      25A     -0.625688    26A     -0.622614    27A     -0.595512
      28A     -0.586571    29A     -0.579893    30A     -0.536890
      31A     -0.522725    32A     -0.497435    33A     -0.478061
      34A     -0.447215    35A     -0.360730    36A     -0.331116

  @DF-RHF Final Energy:  -493.34761496814957

   => Energetics <=

    Nuclear Repulsion Energy =            499.1666192311947725
    One-Electron Energy =               -1664.2097290917870396
    Two-Electron Energy =                 671.6954948924427526
    Total Energy =                       -493.3476149681495144
  Basis Set: (AUG-CC-PVTZ AUX)
    Blend: AUG-CC-PVTZ-RI
    Molecular point group: c1

    Geometry (in Angstrom), charge = 0, multiplicity = 1:

       Center              X                  Y                   Z               Mass
    ------------   -----------------  -----------------  -----------------  -----------------
         O           -0.067164103175     2.155356103882    -0.158498387991    15.994914619570
         O           -2.178928403175    -1.363467196118    -0.376019987991    15.994914619570
         O           -2.355283103175     0.770953103882     0.421288612009    15.994914619570
         C           -0.187296103175    -0.223302896118     0.014671612009    12.000000000000
         C            0.578894896825     0.955629103882    -0.058185387991    12.000000000000
         C            0.469162896825    -1.460297896118     0.091338612009    12.000000000000
         C            1.975921896825     0.870798103882    -0.057076387991    12.000000000000
         C            1.858948896825    -1.537347896118     0.100488612009    12.000000000000
         C            2.612674896825    -0.364789896118     0.028980612009    12.000000000000
         C           -1.671061103175    -0.168135896118     0.054262612009    12.000000000000
         H           -0.130483103175    -2.363302896118     0.142769612009     1.007825032230
         H            2.565805896825     1.784616103882    -0.119424387991     1.007825032230
         H            2.350510896825    -2.503719896118     0.167583612009     1.007825032230
         H            3.699154896825    -0.407248896118     0.033219612009     1.007825032230
         H            0.608980896825     2.852479103882    -0.239311387991     1.007825032230
         H           -3.188525103175    -1.216475896118    -0.265305387991     1.007825032230

  Basis Set: AUG-CC-PVTZ
    Blend: AUG-CC-PVTZ
  Basis Set: (AUG-CC-PVTZ AUX)
    Blend: AUG-CC-PVTZ-JKFIT
	 Reference Energy          =    -493.3476149681495713 [Eh]
	 Singles Energy            =      -0.0000000000000000 [Eh]
	 Same-Spin Energy          =      -0.5063823820856936 [Eh]
	 Opposite-Spin Energy      =      -1.5065693649607796 [Eh]
	 Correlation Energy        =      -2.0129517470464733 [Eh]
	 Total Energy              =    -495.3605667151960574 [Eh]

	 ================> DF-SCS-MP2 Energies <==================
	-----------------------------------------------------------
	 SCS Same-Spin Scale       =       0.3333333333333333 [-]
	 SCS Opposite-Spin Scale   =       1.2000000000000000 [-]
	 SCS Same-Spin Energy      =      -0.1687941273618979 [Eh]
	 SCS Opposite-Spin Energy  =      -1.8078832379529355 [Eh]
	 SCS Correlation Energy    =      -1.9766773653148333 [Eh]
	 SCS Total Energy          =    -495.3242923334644274 [Eh]
	-----------------------------------------------------------

  Dipole Moment: [D]
     X:     2.5326      Y:    -0.4772      Z:    -0.4632     Total:     2.6185

*** Psi4 exiting successfully. Buy a developer a beer!
