                               Psi4 1.3.2 release

  ==> Input File <==

--------------------------------------------------------------------------
#psi4
#
memory 32 gb

molecule  {
0 1
  O       -0.1027990     2.1661630    -0.1573240
  O       -2.2585870    -1.3354710    -0.3679860
  O       -2.3909180     0.7817600     0.4224630
  C       -0.2229310    -0.2124960     0.0158460
  C        0.4590453     1.0170830    -0.0568265
  C        0.4335280    -1.4494910     0.0925130
  C        1.9402870     0.8816050    -0.0559020
  C        1.8233140    -1.5265410     0.1016630
  C        2.5770400    -0.3539830     0.0301550
  C       -1.7066960    -0.1573290     0.0554370
  H       -0.1661180    -2.3524960     0.1439440
  H        2.5301710     1.7954230    -0.1182500
  H        2.3148760    -2.4929130     0.1687580
  H        3.6635200    -0.3964420     0.0343940
  H        0.5733460     2.8632860    -0.2381370
  H       -3.2241600    -1.2056690    -0.2641310
units angstrom
no_reorient  #important for SAPT in psi4, default
symmetry c1  #important for SAPT in psi4, default
}

set PROPERTIES_ORIGIN ["COM"]
properties('MP2/aug-cc-pvtz', properties = ['dipole'])
--------------------------------------------------------------------------

    Molecular point group: c1
  Charge       = 0
  Multiplicity = 1
  Basis Set: AUG-CC-PVTZ
    Blend: AUG-CC-PVTZ
  Basis Set: (AUG-CC-PVTZ AUX)
    Blend: AUG-CC-PVTZ-JKFIT

    Orbital Energies [Eh]
    ---------------------

    Doubly Occupied:

       1A    -20.620257     2A    -20.607179     3A    -20.540792
       4A    -11.385367     5A    -11.341696     6A    -11.262230
       7A    -11.260330     8A    -11.253282     9A    -11.251533
      10A    -11.237139    11A     -1.465891    12A     -1.449916
      13A     -1.347204    14A     -1.157567    15A     -1.051884
      16A     -1.011703    17A     -0.892034    18A     -0.871773
      19A     -0.799096    20A     -0.765246    21A     -0.708928
      22A     -0.697150    23A     -0.682838    24A     -0.648221
      25A     -0.634295    26A     -0.622656    27A     -0.612609
      28A     -0.583445    29A     -0.580793    30A     -0.536298
      31A     -0.512071    32A     -0.495345    33A     -0.475240
      34A     -0.442431    35A     -0.359971    36A     -0.318756

  @DF-RHF Final Energy:  -493.34361603805525

   => Energetics <=

    Nuclear Repulsion Energy =            499.1287844436273531
    One-Electron Energy =               -1663.9784629693360785
    Two-Electron Energy =                 671.5060624876534803
    Total Energy =                       -493.3436160380551883
  Basis Set: (AUG-CC-PVTZ AUX)
    Blend: AUG-CC-PVTZ-RI
    Molecular point group: c1

    Geometry (in Angstrom), charge = 0, multiplicity = 1:

       Center              X                  Y                   Z               Mass
    ------------   -----------------  -----------------  -----------------  -----------------
         O           -0.054741364075     2.148961156751    -0.159309308389    15.994914619570
         O           -2.210529364075    -1.352672843249    -0.369971308389    15.994914619570
         O           -2.342860364075     0.764558156751     0.420477691611    15.994914619570
         C           -0.174873364075    -0.229697843249     0.013860691611    12.000000000000
         C            0.507102935925     0.999881156751    -0.058811808389    12.000000000000
         C            0.481585635925    -1.466692843249     0.090527691611    12.000000000000
         C            1.988344635925     0.864403156751    -0.057887308389    12.000000000000
         C            1.871371635925    -1.543742843249     0.099677691611    12.000000000000
         C            2.625097635925    -0.371184843249     0.028169691611    12.000000000000
         C           -1.658638364075    -0.174530843249     0.053451691611    12.000000000000
         H           -0.118060364075    -2.369697843249     0.141958691611     1.007825032230
         H            2.578228635925     1.778221156751    -0.120235308389     1.007825032230
         H            2.362933635925    -2.510114843249     0.166772691611     1.007825032230
         H            3.711577635925    -0.413643843249     0.032408691611     1.007825032230
         H            0.621403635925     2.846084156751    -0.240122308389     1.007825032230
         H           -3.176102364075    -1.222870843249    -0.266116308389     1.007825032230

  Basis Set: AUG-CC-PVTZ
    Blend: AUG-CC-PVTZ
  Basis Set: (AUG-CC-PVTZ AUX)
    Blend: AUG-CC-PVTZ-JKFIT
	 Reference Energy          =    -493.3436160380552451 [Eh]
	 Singles Energy            =      -0.0000000000000000 [Eh]
	 Same-Spin Energy          =      -0.5051848624046584 [Eh]
	 Opposite-Spin Energy      =      -1.5034265024106617 [Eh]
	 Correlation Energy        =      -2.0086113648153203 [Eh]
	 Total Energy              =    -495.3522274028705397 [Eh]

	 ================> DF-SCS-MP2 Energies <==================
	-----------------------------------------------------------
	 SCS Same-Spin Scale       =       0.3333333333333333 [-]
	 SCS Opposite-Spin Scale   =       1.2000000000000000 [-]
	 SCS Same-Spin Energy      =      -0.1683949541348861 [Eh]
	 SCS Opposite-Spin Energy  =      -1.8041118028927938 [Eh]
	 SCS Correlation Energy    =      -1.9725067570276800 [Eh]
	 SCS Total Energy          =    -495.3161227950829471 [Eh]
	-----------------------------------------------------------

  Dipole Moment: [D]
     X:     2.4726      Y:     0.0783      Z:    -0.5113     Total:     2.5261

*** Psi4 exiting successfully. Buy a developer a beer!
