                               Psi4 1.3.2 release

  ==> Input File <==

--------------------------------------------------------------------------
#psi4
#
memory 32 gb

molecule  {
0 1
  O       -0.1027990     2.1661630    -0.1573240
  O       -2.2585870    -1.3354710    -0.3679860
  O       -2.3909180     0.7817600     0.4224630
  C       -0.2229310    -0.2124960     0.0158460
  C        0.5432600     0.9664360    -0.0570110
  C        0.4335280    -1.4494910     0.0925130
  C        1.9402870     0.8816050    -0.0559020
  C        1.8233140    -1.5265410     0.1016630
  C        2.5770400    -0.3539830     0.0301550
  C       -1.6505434    -0.2343979     0.0253160
  H       -0.1661180    -2.3524960     0.1439440
  H        2.5301710     1.7954230    -0.1182500
  H        2.3148760    -2.4929130     0.1687580
  H        3.6635200    -0.3964420     0.0343940
  H        0.5733460     2.8632860    -0.2381370
  H       -3.2241600    -1.2056690    -0.2641310
units angstrom
no_reorient  #important for SAPT in psi4, default
symmetry c1  #important for SAPT in psi4, default
}

set PROPERTIES_ORIGIN ["COM"]
properties('MP2/aug-cc-pvtz', properties = ['dipole'])
--------------------------------------------------------------------------

    Molecular point group: c1
  Charge       = 0
  Multiplicity = 1
  Basis Set: AUG-CC-PVTZ
    Blend: AUG-CC-PVTZ
  Basis Set: (AUG-CC-PVTZ AUX)
    Blend: AUG-CC-PVTZ-JKFIT

    Orbital Energies [Eh]
    ---------------------

    Doubly Occupied:

       1A    -20.622397     2A    -20.603783     3A    -20.521378
       4A    -11.391900     5A    -11.337804     6A    -11.271306
       7A    -11.268103     8A    -11.257049     9A    -11.253576
      10A    -11.245985    11A     -1.464996    12A     -1.416283
      13A     -1.289451    14A     -1.173724    15A     -1.066929
      16A     -1.027144    17A     -0.913693    18A     -0.867350
      19A     -0.813216    20A     -0.749265    21A     -0.724186
      22A     -0.696173    23A     -0.677483    24A     -0.647023
      25A     -0.630096    26A     -0.623416    27A     -0.598571
      28A     -0.590666    29A     -0.560909    30A     -0.530842
      31A     -0.527117    32A     -0.501994    33A     -0.445619
      34A     -0.431736    35A     -0.364429    36A     -0.335055

  @DF-RHF Final Energy:  -493.33171145778550

   => Energetics <=

    Nuclear Repulsion Energy =            499.1121763754850349
    One-Electron Energy =               -1664.0064814344582373
    Two-Electron Energy =                 671.5625936011877002
    Total Energy =                       -493.3317114577855591
  Basis Set: (AUG-CC-PVTZ AUX)
    Blend: AUG-CC-PVTZ-RI
    Molecular point group: c1

    Geometry (in Angstrom), charge = 0, multiplicity = 1:

       Center              X                  Y                   Z               Mass
    ------------   -----------------  -----------------  -----------------  -----------------
         O           -0.066944413610     2.160064337152    -0.156674652613    15.994914619570
         O           -2.222732413610    -1.341569662848    -0.367336652613    15.994914619570
         O           -2.355063413610     0.775661337152     0.423112347387    15.994914619570
         C           -0.187076413610    -0.218594662848     0.016495347387    12.000000000000
         C            0.579114586390     0.960337337152    -0.056361652613    12.000000000000
         C            0.469382586390    -1.455589662848     0.093162347387    12.000000000000
         C            1.976141586390     0.875506337152    -0.055252652613    12.000000000000
         C            1.859168586390    -1.532639662848     0.102312347387    12.000000000000
         C            2.612894586390    -0.360081662848     0.030804347387    12.000000000000
         C           -1.614688813610    -0.240496562848     0.025965347387    12.000000000000
         H           -0.130263413610    -2.358594662848     0.144593347387     1.007825032230
         H            2.566025586390     1.789324337152    -0.117600652613     1.007825032230
         H            2.350730586390    -2.499011662848     0.169407347387     1.007825032230
         H            3.699374586390    -0.402540662848     0.035043347387     1.007825032230
         H            0.609200586390     2.857187337152    -0.237487652613     1.007825032230
         H           -3.188305413610    -1.211767662848    -0.263481652613     1.007825032230

  Basis Set: AUG-CC-PVTZ
    Blend: AUG-CC-PVTZ
  Basis Set: (AUG-CC-PVTZ AUX)
    Blend: AUG-CC-PVTZ-JKFIT
	 Reference Energy          =    -493.3317114577855023 [Eh]
	 Singles Energy            =      -0.0000000000000000 [Eh]
	 Same-Spin Energy          =      -0.5075658486190904 [Eh]
	 Opposite-Spin Energy      =      -1.5084664000739054 [Eh]
	 Correlation Energy        =      -2.0160322486929960 [Eh]
	 Total Energy              =    -495.3477437064785249 [Eh]

	 ================> DF-SCS-MP2 Energies <==================
	-----------------------------------------------------------
	 SCS Same-Spin Scale       =       0.3333333333333333 [-]
	 SCS Opposite-Spin Scale   =       1.2000000000000000 [-]
	 SCS Same-Spin Energy      =      -0.1691886162063634 [Eh]
	 SCS Opposite-Spin Energy  =      -1.8101596800886863 [Eh]
	 SCS Correlation Energy    =      -1.9793482962950497 [Eh]
	 SCS Total Energy          =    -495.3110597540805315 [Eh]
	-----------------------------------------------------------

  Dipole Moment: [D]
     X:     3.0490      Y:    -0.9466      Z:    -0.6823     Total:     3.2646

*** Psi4 exiting successfully. Buy a developer a beer!
