                               Psi4 1.3.2 release

  ==> Input File <==

--------------------------------------------------------------------------
#psi4
#
memory 32 gb

molecule  {
0 1
  O       -0.1027990     2.1661630    -0.1573240
  O       -2.2585870    -1.3354710    -0.3679860
  O       -2.3909180     0.7817600     0.4224630
  C       -0.2229310    -0.2124960     0.0158460
  C        0.5015706     0.9924060    -0.0586248
  C        0.4335280    -1.4494910     0.0925130
  C        1.9402870     0.8816050    -0.0559020
  C        1.8233140    -1.5265410     0.1016630
  C        2.5770400    -0.3539830     0.0301550
  C       -1.7066960    -0.1573290     0.0554370
  H       -0.1661180    -2.3524960     0.1439440
  H        2.5301710     1.7954230    -0.1182500
  H        2.3148760    -2.4929130     0.1687580
  H        3.6635200    -0.3964420     0.0343940
  H        0.5733460     2.8632860    -0.2381370
  H       -3.2241600    -1.2056690    -0.2641310
units angstrom
no_reorient  #important for SAPT in psi4, default
symmetry c1  #important for SAPT in psi4, default
}

set PROPERTIES_ORIGIN ["COM"]
properties('MP2/aug-cc-pvtz', properties = ['dipole'])
--------------------------------------------------------------------------

    Molecular point group: c1
  Charge       = 0
  Multiplicity = 1
  Basis Set: AUG-CC-PVTZ
    Blend: AUG-CC-PVTZ
  Basis Set: (AUG-CC-PVTZ AUX)
    Blend: AUG-CC-PVTZ-JKFIT

    Orbital Energies [Eh]
    ---------------------

    Doubly Occupied:

       1A    -20.611330     2A    -20.608548     3A    -20.541828
       4A    -11.387398     5A    -11.336315     6A    -11.263973
       7A    -11.261608     8A    -11.254054     9A    -11.251810
      10A    -11.239931    11A     -1.453372    12A     -1.438221
      13A     -1.347884    14A     -1.162300    15A     -1.053158
      16A     -1.017322    17A     -0.894621    18A     -0.866321
      19A     -0.799402    20A     -0.755622    21A     -0.709527
      22A     -0.697176    23A     -0.678976    24A     -0.646046
      25A     -0.627413    26A     -0.623790    27A     -0.605693
      28A     -0.585697    29A     -0.581801    30A     -0.536788
      31A     -0.518826    32A     -0.497159    33A     -0.475919
      34A     -0.444774    35A     -0.360702    36A     -0.325404

  @DF-RHF Final Energy:  -493.35168985962127

   => Energetics <=

    Nuclear Repulsion Energy =            499.0220327829053417
    One-Electron Energy =               -1663.8260283554664056
    Two-Electron Energy =                 671.4523057129397330
    Total Energy =                       -493.3516898596212741
  Basis Set: (AUG-CC-PVTZ AUX)
    Blend: AUG-CC-PVTZ-RI
    Molecular point group: c1

    Geometry (in Angstrom), charge = 0, multiplicity = 1:

       Center              X                  Y                   Z               Mass
    ------------   -----------------  -----------------  -----------------  -----------------
         O           -0.058438367169     2.151106490126    -0.159152970382    15.994914619570
         O           -2.214226367169    -1.350527509874    -0.369814970382    15.994914619570
         O           -2.346557367169     0.766703490126     0.420634029618    15.994914619570
         C           -0.178570367169    -0.227552509874     0.014017029618    12.000000000000
         C            0.545931232831     0.977349490126    -0.060453770382    12.000000000000
         C            0.477888632831    -1.464547509874     0.090684029618    12.000000000000
         C            1.984647632831     0.866548490126    -0.057730970382    12.000000000000
         C            1.867674632831    -1.541597509874     0.099834029618    12.000000000000
         C            2.621400632831    -0.369039509874     0.028326029618    12.000000000000
         C           -1.662335367169    -0.172385509874     0.053608029618    12.000000000000
         H           -0.121757367169    -2.367552509874     0.142115029618     1.007825032230
         H            2.574531632831     1.780366490126    -0.120078970382     1.007825032230
         H            2.359236632831    -2.507969509874     0.166929029618     1.007825032230
         H            3.707880632831    -0.411498509874     0.032565029618     1.007825032230
         H            0.617706632831     2.848229490126    -0.239965970382     1.007825032230
         H           -3.179799367169    -1.220725509874    -0.265959970382     1.007825032230

  Basis Set: AUG-CC-PVTZ
    Blend: AUG-CC-PVTZ
  Basis Set: (AUG-CC-PVTZ AUX)
    Blend: AUG-CC-PVTZ-JKFIT
	 Reference Energy          =    -493.3516898596212741 [Eh]
	 Singles Energy            =      -0.0000000000000000 [Eh]
	 Same-Spin Energy          =      -0.5052551680677051 [Eh]
	 Opposite-Spin Energy      =      -1.5038224030575886 [Eh]
	 Correlation Energy        =      -2.0090775711252937 [Eh]
	 Total Energy              =    -495.3607674307465913 [Eh]

	 ================> DF-SCS-MP2 Energies <==================
	-----------------------------------------------------------
	 SCS Same-Spin Scale       =       0.3333333333333333 [-]
	 SCS Opposite-Spin Scale   =       1.2000000000000000 [-]
	 SCS Same-Spin Energy      =      -0.1684183893559017 [Eh]
	 SCS Opposite-Spin Energy  =      -1.8045868836691064 [Eh]
	 SCS Correlation Energy    =      -1.9730052730250081 [Eh]
	 SCS Total Energy          =    -495.3246951326462977 [Eh]
	-----------------------------------------------------------

  Dipole Moment: [D]
     X:     2.5635      Y:    -0.2012      Z:    -0.4871     Total:     2.6171

*** Psi4 exiting successfully. Buy a developer a beer!
