                               Psi4 1.4a3.dev225

  ==> Input File <==

--------------------------------------------------------------------------
#psi4
#
memory 32 gb

molecule  {
0 1
  O       -0.1026610     2.1662260    -0.1575610
  O       -2.2584930    -1.3355120    -0.3678820
  O       -2.3910220     0.7817980     0.4224010
  C       -0.2229580    -0.2124560     0.0160270
  C        0.5432810     0.9664510    -0.0570850
  C        0.4334420    -1.4495130     0.0922690
  C        1.9403100     0.8815900    -0.0555280
  C        1.8232300    -1.5265840     0.1016960
  C        2.5770020    -0.3540720     0.0300640
  C       -1.6954698    -0.1726764     0.0494910
  H       -0.1662180    -2.3524950     0.1438230
  H        2.5302810     1.7953260    -0.1182260
  H        2.3147800    -2.4929990     0.1682820
  H        3.6634790    -0.3965710     0.0346780
  H        0.5735000     2.8633950    -0.2378390
  H       -3.2240480    -1.2056750    -0.2641070
units angstrom
no_reorient  #important for SAPT in psi4, default
symmetry c1  #important for SAPT in psi4, default
}

set PROPERTIES_ORIGIN ["COM"]
properties('MP2/aug-cc-pvtz', properties = ['dipole'])
--------------------------------------------------------------------------

    Molecular point group: c1
  Charge       = 0
  Multiplicity = 1
  Basis Set: AUG-CC-PVTZ
    Blend: AUG-CC-PVTZ
  Basis Set: (AUG-CC-PVTZ AUX)
    Blend: AUG-CC-PVTZ-JKFIT

    Orbital Energies [Eh]
    ---------------------

    Doubly Occupied:

       1A    -20.612499     2A    -20.602866     3A    -20.538567
       4A    -11.390061     5A    -11.332344     6A    -11.266764
       7A    -11.263946     8A    -11.256722     9A    -11.250599
      10A    -11.243250    11A     -1.453817    12A     -1.415427
      13A     -1.337805    14A     -1.168684    15A     -1.057385
      16A     -1.023787    17A     -0.901054    18A     -0.862914
      19A     -0.803489    20A     -0.746494    21A     -0.711515
      22A     -0.696872    23A     -0.676225    24A     -0.643899
      25A     -0.624592    26A     -0.624501    27A     -0.596637
      28A     -0.589201    29A     -0.577350    30A     -0.536361
      31A     -0.524128    32A     -0.499182    33A     -0.470285
      34A     -0.444740    35A     -0.362540    36A     -0.332654

  @DF-RHF Final Energy:  -493.35162657807456

   => Energetics <=

    Nuclear Repulsion Energy =            498.9793654098315301
    One-Electron Energy =               -1663.7836746455511729
    Two-Electron Energy =                 671.4526826576451413
    Total Energy =                       -493.3516265780746153
  Basis Set: (AUG-CC-PVTZ AUX)
    Blend: AUG-CC-PVTZ-RI
    Molecular point group: c1

    Geometry (in Angstrom), charge = 0, multiplicity = 1:

       Center              X                  Y                   Z               Mass
    ------------   -----------------  -----------------  -----------------  -----------------
         O           -0.062899909622     2.154765959300    -0.159006550106    15.994914619570
         O           -2.218731909622    -1.346972040700    -0.369327550106    15.994914619570
         O           -2.351260909622     0.770337959300     0.420955449894    15.994914619570
         C           -0.183196909622    -0.223916040700     0.014581449894    12.000000000000
         C            0.583042090378     0.954990959300    -0.058530550106    12.000000000000
         C            0.473203090378    -1.460973040700     0.090823449894    12.000000000000
         C            1.980071090378     0.870129959300    -0.056973550106    12.000000000000
         C            1.862991090378    -1.538044040700     0.100250449894    12.000000000000
         C            2.616763090378    -0.365532040700     0.028618449894    12.000000000000
         C           -1.655708709622    -0.184136440700     0.048045449894    12.000000000000
         H           -0.126456909622    -2.363955040700     0.142377449894     1.007825032230
         H            2.570042090378     1.783865959300    -0.119671550106     1.007825032230
         H            2.354541090378    -2.504459040700     0.166836449894     1.007825032230
         H            3.703240090378    -0.408031040700     0.033232449894     1.007825032230
         H            0.613261090378     2.851934959300    -0.239284550106     1.007825032230
         H           -3.184286909622    -1.217135040700    -0.265552550106     1.007825032230

  Basis Set: AUG-CC-PVTZ
    Blend: AUG-CC-PVTZ
  Basis Set: (AUG-CC-PVTZ AUX)
    Blend: AUG-CC-PVTZ-JKFIT
	 Reference Energy          =    -493.3516265780745584 [Eh]
	 Singles Energy            =      -0.0000000000000000 [Eh]
	 Same-Spin Energy          =      -0.5057618173011659 [Eh]
	 Opposite-Spin Energy      =      -1.5051932983714578 [Eh]
	 Correlation Energy        =      -2.0109551156726235 [Eh]
	 Total Energy              =    -495.3625816937471882 [Eh]

	 ================> DF-SCS-MP2 Energies <==================
	-----------------------------------------------------------
	 SCS Same-Spin Scale       =       0.3333333333333333 [-]
	 SCS Opposite-Spin Scale   =       1.2000000000000000 [-]
	 SCS Same-Spin Energy      =      -0.1685872724337220 [Eh]
	 SCS Opposite-Spin Energy  =      -1.8062319580457493 [Eh]
	 SCS Correlation Energy    =      -1.9748192304794712 [Eh]
	 SCS Total Energy          =    -495.3264458085540127 [Eh]
	-----------------------------------------------------------

  Dipole Moment: [D]
     X:     2.7380      Y:    -0.5735      Z:    -0.5085     Total:     2.8432

*** Psi4 exiting successfully. Buy a developer a beer!
