                               Psi4 1.3.2 release

  ==> Input File <==

--------------------------------------------------------------------------
#psi4
#
memory 32 gb

molecule  {
0 1
  O       -0.1444209     2.1429836    -0.1551463
  O       -2.2585870    -1.3354710    -0.3679860
  O       -2.3909180     0.7817600     0.4224630
  C       -0.2229310    -0.2124960     0.0158460
  C        0.5432600     0.9664360    -0.0570110
  C        0.4335280    -1.4494910     0.0925130
  C        1.9402870     0.8816050    -0.0559020
  C        1.8233140    -1.5265410     0.1016630
  C        2.5770400    -0.3539830     0.0301550
  C       -1.7066960    -0.1573290     0.0554370
  H       -0.1661180    -2.3524960     0.1439440
  H        2.5301710     1.7954230    -0.1182500
  H        2.3148760    -2.4929130     0.1687580
  H        3.6635200    -0.3964420     0.0343940
  H        0.5733460     2.8632860    -0.2381370
  H       -3.2241600    -1.2056690    -0.2641310
units angstrom
no_reorient  #important for SAPT in psi4, default
symmetry c1  #important for SAPT in psi4, default
}

set PROPERTIES_ORIGIN ["COM"]
properties('MP2/aug-cc-pvtz', properties = ['dipole'])
--------------------------------------------------------------------------

    Molecular point group: c1
  Charge       = 0
  Multiplicity = 1
  Basis Set: AUG-CC-PVTZ
    Blend: AUG-CC-PVTZ
  Basis Set: (AUG-CC-PVTZ AUX)
    Blend: AUG-CC-PVTZ-JKFIT

    Orbital Energies [Eh]
    ---------------------

    Doubly Occupied:

       1A    -20.609378     2A    -20.607596     3A    -20.542089
       4A    -11.388759     5A    -11.330114     6A    -11.266007
       7A    -11.262446     8A    -11.255142     9A    -11.250594
      10A    -11.242326    11A     -1.453144    12A     -1.408568
      13A     -1.347829    14A     -1.166576    15A     -1.054697
      16A     -1.021544    17A     -0.897257    18A     -0.858864
      19A     -0.800063    20A     -0.738309    21A     -0.706043
      22A     -0.697404    23A     -0.676737    24A     -0.642644
      25A     -0.624632    26A     -0.621947    27A     -0.595604
      28A     -0.588877    29A     -0.579803    30A     -0.538503
      31A     -0.522215    32A     -0.498001    33A     -0.476017
      34A     -0.445801    35A     -0.361645    36A     -0.331675

  @DF-RHF Final Energy:  -493.34790357133477

   => Energetics <=

    Nuclear Repulsion Energy =            499.2196314418039265
    One-Electron Energy =               -1664.3173667344024125
    Two-Electron Energy =                 671.7498317212636039
    Total Energy =                       -493.3479035713347685
  Basis Set: (AUG-CC-PVTZ AUX)
    Blend: AUG-CC-PVTZ-RI
    Molecular point group: c1

    Geometry (in Angstrom), charge = 0, multiplicity = 1:

       Center              X                  Y                   Z               Mass
    ------------   -----------------  -----------------  -----------------  -----------------
         O           -0.098861513955     2.132870828074    -0.157367917345    15.994914619570
         O           -2.213027613955    -1.345583771926    -0.370207617345    15.994914619570
         O           -2.345358613955     0.771647228074     0.420241382655    15.994914619570
         C           -0.177371613955    -0.222608771926     0.013624382655    12.000000000000
         C            0.588819386045     0.956323228074    -0.059232617345    12.000000000000
         C            0.479087386045    -1.459603771926     0.090291382655    12.000000000000
         C            1.985846386045     0.871492228074    -0.058123617345    12.000000000000
         C            1.868873386045    -1.536653771926     0.099441382655    12.000000000000
         C            2.622599386045    -0.364095771926     0.027933382655    12.000000000000
         C           -1.661136613955    -0.167441771926     0.053215382655    12.000000000000
         H           -0.120558613955    -2.362608771926     0.141722382655     1.007825032230
         H            2.575730386045     1.785310228074    -0.120471617345     1.007825032230
         H            2.360435386045    -2.503025771926     0.166536382655     1.007825032230
         H            3.709079386045    -0.406554771926     0.032172382655     1.007825032230
         H            0.618905386045     2.853173228074    -0.240358617345     1.007825032230
         H           -3.178600613955    -1.215781771926    -0.266352617345     1.007825032230

  Basis Set: AUG-CC-PVTZ
    Blend: AUG-CC-PVTZ
  Basis Set: (AUG-CC-PVTZ AUX)
    Blend: AUG-CC-PVTZ-JKFIT
	 Reference Energy          =    -493.3479035713347685 [Eh]
	 Singles Energy            =      -0.0000000000000000 [Eh]
	 Same-Spin Energy          =      -0.5062282885469066 [Eh]
	 Opposite-Spin Energy      =      -1.5064404025372871 [Eh]
	 Correlation Energy        =      -2.0126686910841936 [Eh]
	 Total Energy              =    -495.3605722624189411 [Eh]

	 ================> DF-SCS-MP2 Energies <==================
	-----------------------------------------------------------
	 SCS Same-Spin Scale       =       0.3333333333333333 [-]
	 SCS Opposite-Spin Scale   =       1.2000000000000000 [-]
	 SCS Same-Spin Energy      =      -0.1687427628489689 [Eh]
	 SCS Opposite-Spin Energy  =      -1.8077284830447444 [Eh]
	 SCS Correlation Energy    =      -1.9764712458937133 [Eh]
	 SCS Total Energy          =    -495.3243748172284882 [Eh]
	-----------------------------------------------------------

  Dipole Moment: [D]
     X:     2.6703      Y:    -0.4248      Z:    -0.4630     Total:     2.7432

*** Psi4 exiting successfully. Buy a developer a beer!
