                               Psi4 1.3.2 release

  ==> Input File <==

--------------------------------------------------------------------------
#psi4
#
memory 32 gb

molecule  {
0 1
  O       -0.1027990     2.1661630    -0.1573240
  O       -2.2585870    -1.3354710    -0.3679860
  O       -2.3909180     0.7817600     0.4224630
  C       -0.2229310    -0.2124960     0.0158460
  C        0.5432600     0.9664360    -0.0570110
  C        0.4335280    -1.4494910     0.0925130
  C        1.9402870     0.8816050    -0.0559020
  C        1.8233140    -1.5265410     0.1016630
  C        2.5770400    -0.3539830     0.0301550
  C       -1.7066960    -0.1573290     0.0554370
  H       -0.1661180    -2.3524960     0.1439440
  H        2.5301710     1.7954230    -0.1182500
  H        2.3148760    -2.4929130     0.1687580
  H        3.6635200    -0.3964420     0.0343940
  H        0.5039634     2.7917508    -0.2298444
  H       -3.2241600    -1.2056690    -0.2641310
units angstrom
no_reorient  #important for SAPT in psi4, default
symmetry c1  #important for SAPT in psi4, default
}

set PROPERTIES_ORIGIN ["COM"]
properties('MP2/aug-cc-pvtz', properties = ['dipole'])
--------------------------------------------------------------------------

    Molecular point group: c1
  Charge       = 0
  Multiplicity = 1
  Basis Set: AUG-CC-PVTZ
    Blend: AUG-CC-PVTZ
  Basis Set: (AUG-CC-PVTZ AUX)
    Blend: AUG-CC-PVTZ-JKFIT

    Orbital Energies [Eh]
    ---------------------

    Doubly Occupied:

       1A    -20.610223     2A    -20.593526     3A    -20.543169
       4A    -11.389794     5A    -11.331948     6A    -11.266234
       7A    -11.263379     8A    -11.257286     9A    -11.250773
      10A    -11.243377    11A     -1.454562    12A     -1.439199
      13A     -1.349015    14A     -1.169651    15A     -1.056089
      16A     -1.026847    17A     -0.899294    18A     -0.869906
      19A     -0.803345    20A     -0.759769    21A     -0.711422
      22A     -0.698556    23A     -0.677817    24A     -0.645345
      25A     -0.627175    26A     -0.624874    27A     -0.599198
      28A     -0.591846    29A     -0.583326    30A     -0.538601
      31A     -0.524509    32A     -0.499974    33A     -0.476942
      34A     -0.447335    35A     -0.362304    36A     -0.333373

  @DF-RHF Final Energy:  -493.34917011712645

   => Energetics <=

    Nuclear Repulsion Energy =            499.6678099925966876
    One-Electron Energy =               -1664.9939947638156355
    Two-Electron Energy =                 671.9770146540926135
    Total Energy =                       -493.3491701171263912
  Basis Set: (AUG-CC-PVTZ AUX)
    Blend: AUG-CC-PVTZ-RI
    Molecular point group: c1

    Geometry (in Angstrom), charge = 0, multiplicity = 1:

       Center              X                  Y                   Z               Mass
    ------------   -----------------  -----------------  -----------------  -----------------
         O           -0.061556109669     2.153886539794    -0.159353816210    15.994914619570
         O           -2.217344109669    -1.347747460206    -0.370015816210    15.994914619570
         O           -2.349675109669     0.769483539794     0.420433183790    15.994914619570
         C           -0.181688109669    -0.224772460206     0.013816183790    12.000000000000
         C            0.584502890331     0.954159539794    -0.059040816210    12.000000000000
         C            0.474770890331    -1.461767460206     0.090483183790    12.000000000000
         C            1.981529890331     0.869328539794    -0.057931816210    12.000000000000
         C            1.864556890331    -1.538817460206     0.099633183790    12.000000000000
         C            2.618282890331    -0.366259460206     0.028125183790    12.000000000000
         C           -1.665453109669    -0.169605460206     0.053407183790    12.000000000000
         H           -0.124875109669    -2.364772460206     0.141914183790     1.007825032230
         H            2.571413890331     1.783146539794    -0.120279816210     1.007825032230
         H            2.356118890331    -2.505189460206     0.166728183790     1.007825032230
         H            3.704762890331    -0.408718460206     0.032364183790     1.007825032230
         H            0.545206290331     2.779474339794    -0.231874216210     1.007825032230
         H           -3.182917109669    -1.217945460206    -0.266160816210     1.007825032230

  Basis Set: AUG-CC-PVTZ
    Blend: AUG-CC-PVTZ
  Basis Set: (AUG-CC-PVTZ AUX)
    Blend: AUG-CC-PVTZ-JKFIT
	 Reference Energy          =    -493.3491701171264481 [Eh]
	 Singles Energy            =      -0.0000000000000000 [Eh]
	 Same-Spin Energy          =      -0.5040584970909725 [Eh]
	 Opposite-Spin Energy      =      -1.5013869802254747 [Eh]
	 Correlation Energy        =      -2.0054454773164472 [Eh]
	 Total Energy              =    -495.3546155944429188 [Eh]

	 ================> DF-SCS-MP2 Energies <==================
	-----------------------------------------------------------
	 SCS Same-Spin Scale       =       0.3333333333333333 [-]
	 SCS Opposite-Spin Scale   =       1.2000000000000000 [-]
	 SCS Same-Spin Energy      =      -0.1680194990303241 [Eh]
	 SCS Opposite-Spin Energy  =      -1.8016643762705695 [Eh]
	 SCS Correlation Energy    =      -1.9696838753008936 [Eh]
	 SCS Total Energy          =    -495.3188539924273641 [Eh]
	-----------------------------------------------------------

  Dipole Moment: [D]
     X:     2.6197      Y:    -0.5856      Z:    -0.4515     Total:     2.7221

*** Psi4 exiting successfully. Buy a developer a beer!
