                               Psi4 1.3.2 release

  ==> Input File <==

--------------------------------------------------------------------------
#psi4
#
memory 32 gb

molecule  {
0 1
  O       -0.1027990     2.1661630    -0.1573240
  O       -2.2585870    -1.3354710    -0.3679860
  O       -2.3909180     0.7817600     0.4224630
  C       -0.2229310    -0.2124960     0.0158460
  C        0.5432600     0.9664360    -0.0570110
  C        0.5594091    -1.3745679     0.0829712
  C        1.9402870     0.8816050    -0.0559020
  C        1.8233140    -1.5265410     0.1016630
  C        2.5770400    -0.3539830     0.0301550
  C       -1.7066960    -0.1573290     0.0554370
  H       -0.1661180    -2.3524960     0.1439440
  H        2.5301710     1.7954230    -0.1182500
  H        2.3148760    -2.4929130     0.1687580
  H        3.6635200    -0.3964420     0.0343940
  H        0.5733460     2.8632860    -0.2381370
  H       -3.2241600    -1.2056690    -0.2641310
units angstrom
no_reorient  #important for SAPT in psi4, default
symmetry c1  #important for SAPT in psi4, default
}

set PROPERTIES_ORIGIN ["COM"]
properties('MP2/aug-cc-pvtz', properties = ['dipole'])
--------------------------------------------------------------------------

    Molecular point group: c1
  Charge       = 0
  Multiplicity = 1
  Basis Set: AUG-CC-PVTZ
    Blend: AUG-CC-PVTZ
  Basis Set: (AUG-CC-PVTZ AUX)
    Blend: AUG-CC-PVTZ-JKFIT

    Orbital Energies [Eh]
    ---------------------

    Doubly Occupied:

       1A    -20.609083     2A    -20.603286     3A    -20.543448
       4A    -11.391868     5A    -11.331727     6A    -11.268788
       7A    -11.256622     8A    -11.253564     9A    -11.250078
      10A    -11.228800    11A     -1.453036    12A     -1.415804
      13A     -1.348504    14A     -1.182962    15A     -1.052900
      16A     -1.037744    17A     -0.902540    18A     -0.852252
      19A     -0.809263    20A     -0.737748    21A     -0.711618
      22A     -0.701083    23A     -0.683341    24A     -0.645124
      25A     -0.624717    26A     -0.609687    27A     -0.597424
      28A     -0.594750    29A     -0.580303    30A     -0.543559
      31A     -0.510678    32A     -0.489519    33A     -0.474137
      34A     -0.449152    35A     -0.362273    36A     -0.341878

  @DF-RHF Final Energy:  -493.32546798132415

   => Energetics <=

    Nuclear Repulsion Energy =            500.5335108908503230
    One-Electron Energy =               -1666.8194364938201488
    Two-Electron Energy =                 672.9604576216457872
    Total Energy =                       -493.3254679813240955
  Basis Set: (AUG-CC-PVTZ AUX)
    Blend: AUG-CC-PVTZ-RI
    Molecular point group: c1

    Geometry (in Angstrom), charge = 0, multiplicity = 1:

       Center              X                  Y                   Z               Mass
    ------------   -----------------  -----------------  -----------------  -----------------
         O           -0.073006369205     2.146850676242    -0.158463737371    15.994914619570
         O           -2.228794369205    -1.354783323758    -0.369125737371    15.994914619570
         O           -2.361125369205     0.762447676242     0.421323262629    15.994914619570
         C           -0.193138369205    -0.231808323758     0.014706262629    12.000000000000
         C            0.573052630795     0.947123676242    -0.058150737371    12.000000000000
         C            0.589201730795    -1.393880223758     0.081831462629    12.000000000000
         C            1.970079630795     0.862292676242    -0.057041737371    12.000000000000
         C            1.853106630795    -1.545853323758     0.100523262629    12.000000000000
         C            2.606832630795    -0.373295323758     0.029015262629    12.000000000000
         C           -1.676903369205    -0.176641323758     0.054297262629    12.000000000000
         H           -0.136325369205    -2.371808323758     0.142804262629     1.007825032230
         H            2.559963630795     1.776110676242    -0.119389737371     1.007825032230
         H            2.344668630795    -2.512225323758     0.167618262629     1.007825032230
         H            3.693312630795    -0.415754323758     0.033254262629     1.007825032230
         H            0.603138630795     2.843973676242    -0.239276737371     1.007825032230
         H           -3.194367369205    -1.224981323758    -0.265270737371     1.007825032230

  Basis Set: AUG-CC-PVTZ
    Blend: AUG-CC-PVTZ
  Basis Set: (AUG-CC-PVTZ AUX)
    Blend: AUG-CC-PVTZ-JKFIT
	 Reference Energy          =    -493.3254679813241523 [Eh]
	 Singles Energy            =      -0.0000000000000000 [Eh]
	 Same-Spin Energy          =      -0.5057387427560081 [Eh]
	 Opposite-Spin Energy      =      -1.5052536714744074 [Eh]
	 Correlation Energy        =      -2.0109924142304152 [Eh]
	 Total Energy              =    -495.3364603955545817 [Eh]

	 ================> DF-SCS-MP2 Energies <==================
	-----------------------------------------------------------
	 SCS Same-Spin Scale       =       0.3333333333333333 [-]
	 SCS Opposite-Spin Scale   =       1.2000000000000000 [-]
	 SCS Same-Spin Energy      =      -0.1685795809186693 [Eh]
	 SCS Opposite-Spin Energy  =      -1.8063044057692887 [Eh]
	 SCS Correlation Energy    =      -1.9748839866879582 [Eh]
	 SCS Total Energy          =    -495.3003519680121371 [Eh]
	-----------------------------------------------------------

  Dipole Moment: [D]
     X:     2.7081      Y:    -0.3809      Z:    -0.4612     Total:     2.7734

*** Psi4 exiting successfully. Buy a developer a beer!
