                               Psi4 1.3.2 release

  ==> Input File <==

--------------------------------------------------------------------------
#psi4
#
memory 32 gb

molecule  {
0 1
  O       -0.1027990     2.1661630    -0.1573240
  O       -2.2585870    -1.3354710    -0.3679860
  O       -2.3909180     0.7817600     0.4224630
  C       -0.2229310    -0.2124960     0.0158460
  C        0.5432600     0.9664360    -0.0570110
  C        0.4118101    -1.4606806     0.0940243
  C        1.9402870     0.8816050    -0.0559020
  C        1.8233140    -1.5265410     0.1016630
  C        2.5770400    -0.3539830     0.0301550
  C       -1.7066960    -0.1573290     0.0554370
  H       -0.1661180    -2.3524960     0.1439440
  H        2.5301710     1.7954230    -0.1182500
  H        2.3148760    -2.4929130     0.1687580
  H        3.6635200    -0.3964420     0.0343940
  H        0.5733460     2.8632860    -0.2381370
  H       -3.2241600    -1.2056690    -0.2641310
units angstrom
no_reorient  #important for SAPT in psi4, default
symmetry c1  #important for SAPT in psi4, default
}

set PROPERTIES_ORIGIN ["COM"]
properties('MP2/aug-cc-pvtz', properties = ['dipole'])
--------------------------------------------------------------------------

    Molecular point group: c1
  Charge       = 0
  Multiplicity = 1
  Basis Set: AUG-CC-PVTZ
    Blend: AUG-CC-PVTZ
  Basis Set: (AUG-CC-PVTZ AUX)
    Blend: AUG-CC-PVTZ-JKFIT

    Orbital Energies [Eh]
    ---------------------

    Doubly Occupied:

       1A    -20.609889     2A    -20.602617     3A    -20.542599
       4A    -11.388901     5A    -11.330972     6A    -11.265227
       7A    -11.264115     8A    -11.257413     9A    -11.249904
      10A    -11.244861    11A     -1.453675    12A     -1.415151
      13A     -1.348426    14A     -1.165488    15A     -1.055822
      16A     -1.020643    17A     -0.897010    18A     -0.863615
      19A     -0.800053    20A     -0.747842    21A     -0.708573
      22A     -0.697496    23A     -0.674689    24A     -0.644145
      25A     -0.628807    26A     -0.624180    27A     -0.596184
      28A     -0.588674    29A     -0.579100    30A     -0.535988
      31A     -0.526995    32A     -0.496995    33A     -0.476400
      34A     -0.445905    35A     -0.362250    36A     -0.330233

  @DF-RHF Final Energy:  -493.35270561012817

   => Energetics <=

    Nuclear Repulsion Energy =            498.7506131860079677
    One-Electron Energy =               -1663.3249655235722457
    Two-Electron Energy =                 671.2216467274361094
    Total Energy =                       -493.3527056101281687
  Basis Set: (AUG-CC-PVTZ AUX)
    Blend: AUG-CC-PVTZ-RI
    Molecular point group: c1

    Geometry (in Angstrom), charge = 0, multiplicity = 1:

       Center              X                  Y                   Z               Mass
    ------------   -----------------  -----------------  -----------------  -----------------
         O           -0.060174620582     2.154337017745    -0.159424655811    15.994914619570
         O           -2.215962620582    -1.347296982255    -0.370086655811    15.994914619570
         O           -2.348293620582     0.769934017745     0.420362344189    15.994914619570
         C           -0.180306620582    -0.224321982255     0.013745344189    12.000000000000
         C            0.585884379418     0.954610017745    -0.059111655811    12.000000000000
         C            0.454434479418    -1.472506582255     0.091923644189    12.000000000000
         C            1.982911379418     0.869779017745    -0.058002655811    12.000000000000
         C            1.865938379418    -1.538366982255     0.099562344189    12.000000000000
         C            2.619664379418    -0.365808982255     0.028054344189    12.000000000000
         C           -1.664071620582    -0.169154982255     0.053336344189    12.000000000000
         H           -0.123493620582    -2.364321982255     0.141843344189     1.007825032230
         H            2.572795379418     1.783597017745    -0.120350655811     1.007825032230
         H            2.357500379418    -2.504738982255     0.166657344189     1.007825032230
         H            3.706144379418    -0.408267982255     0.032293344189     1.007825032230
         H            0.615970379418     2.851460017745    -0.240237655811     1.007825032230
         H           -3.181535620582    -1.217494982255    -0.266231655811     1.007825032230

  Basis Set: AUG-CC-PVTZ
    Blend: AUG-CC-PVTZ
  Basis Set: (AUG-CC-PVTZ AUX)
    Blend: AUG-CC-PVTZ-JKFIT
	 Reference Energy          =    -493.3527056101281687 [Eh]
	 Singles Energy            =      -0.0000000000000000 [Eh]
	 Same-Spin Energy          =      -0.5053614135535817 [Eh]
	 Opposite-Spin Energy      =      -1.5045917388219250 [Eh]
	 Correlation Energy        =      -2.0099531523755068 [Eh]
	 Total Energy              =    -495.3626587625036564 [Eh]

	 ================> DF-SCS-MP2 Energies <==================
	-----------------------------------------------------------
	 SCS Same-Spin Scale       =       0.3333333333333333 [-]
	 SCS Opposite-Spin Scale   =       1.2000000000000000 [-]
	 SCS Same-Spin Energy      =      -0.1684538045178605 [Eh]
	 SCS Opposite-Spin Energy  =      -1.8055100865863098 [Eh]
	 SCS Correlation Energy    =      -1.9739638911041704 [Eh]
	 SCS Total Energy          =    -495.3266695012323453 [Eh]
	-----------------------------------------------------------

  Dipole Moment: [D]
     X:     2.6495      Y:    -0.4782      Z:    -0.4634     Total:     2.7319

*** Psi4 exiting successfully. Buy a developer a beer!
