                               Psi4 1.3.2 release

  ==> Input File <==

--------------------------------------------------------------------------
#psi4
#
memory 32 gb

molecule  {
0 1
  O       -0.0603985     2.1879786    -0.1581541
  O       -2.2585870    -1.3354710    -0.3679860
  O       -2.3909180     0.7817600     0.4224630
  C       -0.2229310    -0.2124960     0.0158460
  C        0.5432600     0.9664360    -0.0570110
  C        0.4335280    -1.4494910     0.0925130
  C        1.9402870     0.8816050    -0.0559020
  C        1.8233140    -1.5265410     0.1016630
  C        2.5770400    -0.3539830     0.0301550
  C       -1.7066960    -0.1573290     0.0554370
  H       -0.1661180    -2.3524960     0.1439440
  H        2.5301710     1.7954230    -0.1182500
  H        2.3148760    -2.4929130     0.1687580
  H        3.6635200    -0.3964420     0.0343940
  H        0.5733460     2.8632860    -0.2381370
  H       -3.2241600    -1.2056690    -0.2641310
units angstrom
no_reorient  #important for SAPT in psi4, default
symmetry c1  #important for SAPT in psi4, default
}

set PROPERTIES_ORIGIN ["COM"]
properties('MP2/aug-cc-pvtz', properties = ['dipole'])
--------------------------------------------------------------------------

    Molecular point group: c1
  Charge       = 0
  Multiplicity = 1
  Basis Set: AUG-CC-PVTZ
    Blend: AUG-CC-PVTZ
  Basis Set: (AUG-CC-PVTZ AUX)
    Blend: AUG-CC-PVTZ-JKFIT

    Orbital Energies [Eh]
    ---------------------

    Doubly Occupied:

       1A    -20.610263     2A    -20.597267     3A    -20.543392
       4A    -11.389895     5A    -11.332145     6A    -11.265311
       7A    -11.263407     8A    -11.258074     9A    -11.249169
      10A    -11.242855    11A     -1.454090    12A     -1.422872
      13A     -1.349070    14A     -1.168422    15A     -1.055462
      16A     -1.024680    17A     -0.898730    18A     -0.865075
      19A     -0.803056    20A     -0.754195    21A     -0.711126
      22A     -0.698211    23A     -0.675452    24A     -0.645811
      25A     -0.626244    26A     -0.624764    27A     -0.596934
      28A     -0.588810    29A     -0.580234    30A     -0.535541
      31A     -0.524576    32A     -0.499003    33A     -0.477019
      34A     -0.447388    35A     -0.362039    36A     -0.332400

  @DF-RHF Final Energy:  -493.35494584612070

   => Energetics <=

    Nuclear Repulsion Energy =            498.7739876926125362
    One-Electron Energy =               -1663.3119007714024065
    Two-Electron Energy =                 671.1829672326691707
    Total Energy =                       -493.3549458461206996
  Basis Set: (AUG-CC-PVTZ AUX)
    Blend: AUG-CC-PVTZ-RI
    Molecular point group: c1

    Geometry (in Angstrom), charge = 0, multiplicity = 1:

       Center              X                  Y                   Z               Mass
    ------------   -----------------  -----------------  -----------------  -----------------
         O           -0.024575509088     2.172651872046    -0.160027177798    15.994914619570
         O           -2.222764009088    -1.350797727954    -0.369859077798    15.994914619570
         O           -2.355095009088     0.766433272046     0.420589922202    15.994914619570
         C           -0.187108009088    -0.227822727954     0.013972922202    12.000000000000
         C            0.579082990912     0.951109272046    -0.058884077798    12.000000000000
         C            0.469350990912    -1.464817727954     0.090639922202    12.000000000000
         C            1.976109990912     0.866278272046    -0.057775077798    12.000000000000
         C            1.859136990912    -1.541867727954     0.099789922202    12.000000000000
         C            2.612862990912    -0.369309727954     0.028281922202    12.000000000000
         C           -1.670873009088    -0.172655727954     0.053563922202    12.000000000000
         H           -0.130295009088    -2.367822727954     0.142070922202     1.007825032230
         H            2.565993990912     1.780096272046    -0.120123077798     1.007825032230
         H            2.350698990912    -2.508239727954     0.166884922202     1.007825032230
         H            3.699342990912    -0.411768727954     0.032520922202     1.007825032230
         H            0.609168990912     2.847959272046    -0.240010077798     1.007825032230
         H           -3.188337009088    -1.220995727954    -0.266004077798     1.007825032230

  Basis Set: AUG-CC-PVTZ
    Blend: AUG-CC-PVTZ
  Basis Set: (AUG-CC-PVTZ AUX)
    Blend: AUG-CC-PVTZ-JKFIT
	 Reference Energy          =    -493.3549458461206996 [Eh]
	 Singles Energy            =      -0.0000000000000000 [Eh]
	 Same-Spin Energy          =      -0.5045482401149142 [Eh]
	 Opposite-Spin Energy      =      -1.5026394173634881 [Eh]
	 Correlation Energy        =      -2.0071876574784024 [Eh]
	 Total Energy              =    -495.3621335035991251 [Eh]

	 ================> DF-SCS-MP2 Energies <==================
	-----------------------------------------------------------
	 SCS Same-Spin Scale       =       0.3333333333333333 [-]
	 SCS Opposite-Spin Scale   =       1.2000000000000000 [-]
	 SCS Same-Spin Energy      =      -0.1681827467049714 [Eh]
	 SCS Opposite-Spin Energy  =      -1.8031673008361855 [Eh]
	 SCS Correlation Energy    =      -1.9713500475411569 [Eh]
	 SCS Total Energy          =    -495.3262958936618361 [Eh]
	-----------------------------------------------------------

  Dipole Moment: [D]
     X:     2.6338      Y:    -0.5252      Z:    -0.4630     Total:     2.7252

*** Psi4 exiting successfully. Buy a developer a beer!
