                               Psi4 1.3.2 release

  ==> Input File <==

--------------------------------------------------------------------------
#psi4
#
memory 32 gb

molecule  {
0 1
  O       -0.1027990     2.1661630    -0.1573240
  O       -2.3864132    -1.2753833    -0.3443485
  O       -2.3909180     0.7817600     0.4224630
  C       -0.2229310    -0.2124960     0.0158460
  C        0.5432600     0.9664360    -0.0570110
  C        0.4335280    -1.4494910     0.0925130
  C        1.9402870     0.8816050    -0.0559020
  C        1.8233140    -1.5265410     0.1016630
  C        2.5770400    -0.3539830     0.0301550
  C       -1.7066960    -0.1573290     0.0554370
  H       -0.1661180    -2.3524960     0.1439440
  H        2.5301710     1.7954230    -0.1182500
  H        2.3148760    -2.4929130     0.1687580
  H        3.6635200    -0.3964420     0.0343940
  H        0.5733460     2.8632860    -0.2381370
  H       -3.2241600    -1.2056690    -0.2641310
units angstrom
no_reorient  #important for SAPT in psi4, default
symmetry c1  #important for SAPT in psi4, default
}

set PROPERTIES_ORIGIN ["COM"]
properties('MP2/aug-cc-pvtz', properties = ['dipole'])
--------------------------------------------------------------------------

    Molecular point group: c1
  Charge       = 0
  Multiplicity = 1
  Basis Set: AUG-CC-PVTZ
    Blend: AUG-CC-PVTZ
  Basis Set: (AUG-CC-PVTZ AUX)
    Blend: AUG-CC-PVTZ-JKFIT

    Orbital Energies [Eh]
    ---------------------

    Doubly Occupied:

       1A    -20.604622     2A    -20.588337     3A    -20.535806
       4A    -11.389820     5A    -11.335052     6A    -11.268654
       7A    -11.266833     8A    -11.262881     9A    -11.252736
      10A    -11.245357    11A     -1.470136    12A     -1.417540
      13A     -1.349937    14A     -1.171098    15A     -1.059932
      16A     -1.025992    17A     -0.912989    18A     -0.867312
      19A     -0.821411    20A     -0.748587    21A     -0.726264
      22A     -0.692984    23A     -0.678172    24A     -0.646708
      25A     -0.625631    26A     -0.624323    27A     -0.598418
      28A     -0.592743    29A     -0.578755    30A     -0.537389
      31A     -0.526271    32A     -0.501600    33A     -0.471864
      34A     -0.443408    35A     -0.365010    36A     -0.334805

  @DF-RHF Final Energy:  -493.33812620043904

   => Energetics <=

    Nuclear Repulsion Energy =            498.6785336437655474
    One-Electron Energy =               -1662.9545670190734654
    Two-Electron Energy =                 670.9379071748687693
    Total Energy =                       -493.3381262004390919
  Basis Set: (AUG-CC-PVTZ AUX)
    Blend: AUG-CC-PVTZ-RI
    Molecular point group: c1

    Geometry (in Angstrom), charge = 0, multiplicity = 1:

       Center              X                  Y                   Z               Mass
    ------------   -----------------  -----------------  -----------------  -----------------
         O           -0.047250383382     2.146401356021    -0.162032348173    15.994914619570
         O           -2.330864583382    -1.295144943979    -0.349056848173    15.994914619570
         O           -2.335369383382     0.761998356021     0.417754651827    15.994914619570
         C           -0.167382383382    -0.232257643979     0.011137651827    12.000000000000
         C            0.598808616618     0.946674356021    -0.061719348173    12.000000000000
         C            0.489076616618    -1.469252643979     0.087804651827    12.000000000000
         C            1.995835616618     0.861843356021    -0.060610348173    12.000000000000
         C            1.878862616618    -1.546302643979     0.096954651827    12.000000000000
         C            2.632588616618    -0.373744643979     0.025446651827    12.000000000000
         C           -1.651147383382    -0.177090643979     0.050728651827    12.000000000000
         H           -0.110569383382    -2.372257643979     0.139235651827     1.007825032230
         H            2.585719616618     1.775661356021    -0.122958348173     1.007825032230
         H            2.370424616618    -2.512674643979     0.164049651827     1.007825032230
         H            3.719068616618    -0.416203643979     0.029685651827     1.007825032230
         H            0.628894616618     2.843524356021    -0.242845348173     1.007825032230
         H           -3.168611383382    -1.225430643979    -0.268839348173     1.007825032230

  Basis Set: AUG-CC-PVTZ
    Blend: AUG-CC-PVTZ
  Basis Set: (AUG-CC-PVTZ AUX)
    Blend: AUG-CC-PVTZ-JKFIT
	 Reference Energy          =    -493.3381262004390351 [Eh]
	 Singles Energy            =      -0.0000000000000000 [Eh]
	 Same-Spin Energy          =      -0.5027850563365347 [Eh]
	 Opposite-Spin Energy      =      -1.4993487223010626 [Eh]
	 Correlation Energy        =      -2.0021337786375972 [Eh]
	 Total Energy              =    -495.3402599790766203 [Eh]

	 ================> DF-SCS-MP2 Energies <==================
	-----------------------------------------------------------
	 SCS Same-Spin Scale       =       0.3333333333333333 [-]
	 SCS Opposite-Spin Scale   =       1.2000000000000000 [-]
	 SCS Same-Spin Energy      =      -0.1675950187788449 [Eh]
	 SCS Opposite-Spin Energy  =      -1.7992184667612752 [Eh]
	 SCS Correlation Energy    =      -1.9668134855401200 [Eh]
	 SCS Total Energy          =    -495.3049396859791500 [Eh]
	-----------------------------------------------------------

  Dipole Moment: [D]
     X:     3.0547      Y:    -0.4473      Z:    -0.4578     Total:     3.1210

*** Psi4 exiting successfully. Buy a developer a beer!
