                               Psi4 1.3.2 release

  ==> Input File <==

--------------------------------------------------------------------------
#psi4
#
memory 32 gb

molecule  {
0 1
  O       -0.1027990     2.1661630    -0.1573240
  O       -2.2585870    -1.3354710    -0.3679860
  O       -2.3909180     0.7817600     0.4224630
  C       -0.2229310    -0.2124960     0.0158460
  C        0.5432600     0.9664360    -0.0570110
  C        0.4335280    -1.4494910     0.0925130
  C        1.9402870     0.8816050    -0.0559020
  C        1.8233140    -1.5265410     0.1016630
  C        2.5770400    -0.3539830     0.0301550
  C       -1.7066960    -0.1573290     0.0554370
  H       -0.1661180    -2.3524960     0.1439440
  H        2.5301710     1.7954230    -0.1182500
  H        2.3148760    -2.4929130     0.1687580
  H        3.6635200    -0.3964420     0.0343940
  H        0.4345808     2.7202155    -0.2215518
  H       -3.2241600    -1.2056690    -0.2641310
units angstrom
no_reorient  #important for SAPT in psi4, default
symmetry c1  #important for SAPT in psi4, default
}

set PROPERTIES_ORIGIN ["COM"]
properties('MP2/aug-cc-pvtz', properties = ['dipole'])
--------------------------------------------------------------------------

    Molecular point group: c1
  Charge       = 0
  Multiplicity = 1
  Basis Set: AUG-CC-PVTZ
    Blend: AUG-CC-PVTZ
  Basis Set: (AUG-CC-PVTZ AUX)
    Blend: AUG-CC-PVTZ-JKFIT

    Orbital Energies [Eh]
    ---------------------

    Doubly Occupied:

       1A    -20.610698     2A    -20.582365     3A    -20.543683
       4A    -11.390349     5A    -11.332996     6A    -11.266849
       7A    -11.263906     8A    -11.258165     9A    -11.251804
      10A    -11.244271    11A     -1.474406    12A     -1.453536
      13A     -1.349612    14A     -1.172298    15A     -1.057423
      16A     -1.031768    17A     -0.902037    18A     -0.879702
      19A     -0.806219    20A     -0.772079    21A     -0.713016
      22A     -0.699281    23A     -0.679465    24A     -0.646608
      25A     -0.628968    26A     -0.626174    27A     -0.602570
      28A     -0.595275    29A     -0.585033    30A     -0.540083
      31A     -0.525374    32A     -0.501647    33A     -0.477429
      34A     -0.448088    35A     -0.362843    36A     -0.334878

  @DF-RHF Final Energy:  -493.30861670828631

   => Energetics <=

    Nuclear Repulsion Energy =            500.4973282261753980
    One-Electron Energy =               -1666.3900893088891735
    Two-Electron Energy =                 672.5841443744275239
    Total Energy =                       -493.3086167082863085
  Basis Set: (AUG-CC-PVTZ AUX)
    Blend: AUG-CC-PVTZ-RI
    Molecular point group: c1

    Geometry (in Angstrom), charge = 0, multiplicity = 1:

       Center              X                  Y                   Z               Mass
    ------------   -----------------  -----------------  -----------------  -----------------
         O           -0.061049519342     2.154408847852    -0.159414363825    15.994914619570
         O           -2.216837519342    -1.347225152148    -0.370076363825    15.994914619570
         O           -2.349168519342     0.770005847852     0.420372636175    15.994914619570
         C           -0.181181519342    -0.224250152148     0.013755636175    12.000000000000
         C            0.585009480658     0.954681847852    -0.059101363825    12.000000000000
         C            0.475277480658    -1.461245152148     0.090422636175    12.000000000000
         C            1.982036480658     0.869850847852    -0.057992363825    12.000000000000
         C            1.865063480658    -1.538295152148     0.099572636175    12.000000000000
         C            2.618789480658    -0.365737152148     0.028064636175    12.000000000000
         C           -1.664946519342    -0.169083152148     0.053346636175    12.000000000000
         H           -0.124368519342    -2.364250152148     0.141853636175     1.007825032230
         H            2.571920480658     1.783668847852    -0.120340363825     1.007825032230
         H            2.356625480658    -2.504667152148     0.166667636175     1.007825032230
         H            3.705269480658    -0.408196152148     0.032303636175     1.007825032230
         H            0.476330280658     2.708461347852    -0.223642163825     1.007825032230
         H           -3.182410519342    -1.217423152148    -0.266221363825     1.007825032230

  Basis Set: AUG-CC-PVTZ
    Blend: AUG-CC-PVTZ
  Basis Set: (AUG-CC-PVTZ AUX)
    Blend: AUG-CC-PVTZ-JKFIT
	 Reference Energy          =    -493.3086167082863085 [Eh]
	 Singles Energy            =      -0.0000000000000000 [Eh]
	 Same-Spin Energy          =      -0.5028490831962611 [Eh]
	 Opposite-Spin Energy      =      -1.4987258327753583 [Eh]
	 Correlation Energy        =      -2.0015749159716192 [Eh]
	 Total Energy              =    -495.3101916242579250 [Eh]

	 ================> DF-SCS-MP2 Energies <==================
	-----------------------------------------------------------
	 SCS Same-Spin Scale       =       0.3333333333333333 [-]
	 SCS Opposite-Spin Scale   =       1.2000000000000000 [-]
	 SCS Same-Spin Energy      =      -0.1676163610654204 [Eh]
	 SCS Opposite-Spin Energy  =      -1.7984709993304300 [Eh]
	 SCS Correlation Energy    =      -1.9660873603958504 [Eh]
	 SCS Total Energy          =    -495.2747040686821833 [Eh]
	-----------------------------------------------------------

  Dipole Moment: [D]
     X:     2.5902      Y:    -0.7108      Z:    -0.4397     Total:     2.7217

*** Psi4 exiting successfully. Buy a developer a beer!
