                               Psi4 1.4a3.dev225

  ==> Input File <==

--------------------------------------------------------------------------
#psi4
#
memory 32 gb

molecule  {
0 1
  O       -0.1026610     2.1662260    -0.1575610
  O       -2.2584930    -1.3355120    -0.3678820
  O       -2.3910220     0.7817980     0.4224010
  C       -0.2229580    -0.2124560     0.0160270
  C        0.5432810     0.9664510    -0.0570850
  C        0.4334420    -1.4495130     0.0922690
  C        1.9403100     0.8815900    -0.0555280
  C        1.8232300    -1.5265840     0.1016960
  C        2.5770020    -0.3540720     0.0300640
  C       -1.6786215    -0.1957966     0.0404581
  H       -0.1662180    -2.3524950     0.1438230
  H        2.5302810     1.7953260    -0.1182260
  H        2.3147800    -2.4929990     0.1682820
  H        3.6634790    -0.3965710     0.0346780
  H        0.5735000     2.8633950    -0.2378390
  H       -3.2240480    -1.2056750    -0.2641070
units angstrom
no_reorient  #important for SAPT in psi4, default
symmetry c1  #important for SAPT in psi4, default
}

set PROPERTIES_ORIGIN ["COM"]
properties('MP2/aug-cc-pvtz', properties = ['dipole'])
--------------------------------------------------------------------------

    Molecular point group: c1
  Charge       = 0
  Multiplicity = 1
  Basis Set: AUG-CC-PVTZ
    Blend: AUG-CC-PVTZ
  Basis Set: (AUG-CC-PVTZ AUX)
    Blend: AUG-CC-PVTZ-JKFIT

    Orbital Energies [Eh]
    ---------------------

    Doubly Occupied:

       1A    -20.616376     2A    -20.603178     3A    -20.532228
       4A    -11.390975     5A    -11.334366     6A    -11.268439
       7A    -11.265494     8A    -11.256894     9A    -11.251704
      10A    -11.244275    11A     -1.456675    12A     -1.415754
      13A     -1.320176    14A     -1.170566    15A     -1.060925
      16A     -1.025044    17A     -0.905879    18A     -0.864600
      19A     -0.806994    20A     -0.747447    21A     -0.715913
      22A     -0.696127    23A     -0.676561    24A     -0.644442
      25A     -0.626320    26A     -0.623714    27A     -0.597327
      28A     -0.589676    29A     -0.571778    30A     -0.535024
      31A     -0.525120    32A     -0.500253    33A     -0.460788
      34A     -0.440818    35A     -0.363456    36A     -0.333582

  @DF-RHF Final Energy:  -493.34611360644055

   => Energetics <=

    Nuclear Repulsion Energy =            499.0125590443498709
    One-Electron Energy =               -1663.8395690325380656
    Two-Electron Energy =                 671.4808963817475842
    Total Energy =                       -493.3461136064405537
  Basis Set: (AUG-CC-PVTZ AUX)
    Blend: AUG-CC-PVTZ-RI
    Molecular point group: c1

    Geometry (in Angstrom), charge = 0, multiplicity = 1:

       Center              X                  Y                   Z               Mass
    ------------   -----------------  -----------------  -----------------  -----------------
         O           -0.064364642787     2.156775949846    -0.158221260896    15.994914619570
         O           -2.220196642787    -1.344962050154    -0.368542260896    15.994914619570
         O           -2.352725642787     0.772347949846     0.421740739104    15.994914619570
         C           -0.184661642787    -0.221906050154     0.015366739104    12.000000000000
         C            0.581577357213     0.957000949846    -0.057745260896    12.000000000000
         C            0.471738357213    -1.458963050154     0.091608739104    12.000000000000
         C            1.978606357213     0.872139949846    -0.056188260896    12.000000000000
         C            1.861526357213    -1.536034050154     0.101035739104    12.000000000000
         C            2.615298357213    -0.363522050154     0.029403739104    12.000000000000
         C           -1.640325142787    -0.205246650154     0.039797839104    12.000000000000
         H           -0.127921642787    -2.361945050154     0.143162739104     1.007825032230
         H            2.568577357213     1.785875949846    -0.118886260896     1.007825032230
         H            2.353076357213    -2.502449050154     0.167621739104     1.007825032230
         H            3.701775357213    -0.406021050154     0.034017739104     1.007825032230
         H            0.611796357213     2.853944949846    -0.238499260896     1.007825032230
         H           -3.185751642787    -1.215125050154    -0.264767260896     1.007825032230

  Basis Set: AUG-CC-PVTZ
    Blend: AUG-CC-PVTZ
  Basis Set: (AUG-CC-PVTZ AUX)
    Blend: AUG-CC-PVTZ-JKFIT
	 Reference Energy          =    -493.3461136064405537 [Eh]
	 Singles Energy            =      -0.0000000000000000 [Eh]
	 Same-Spin Energy          =      -0.5064133859282840 [Eh]
	 Opposite-Spin Energy      =      -1.5063841666969693 [Eh]
	 Correlation Energy        =      -2.0127975526252531 [Eh]
	 Total Energy              =    -495.3589111590658263 [Eh]

	 ================> DF-SCS-MP2 Energies <==================
	-----------------------------------------------------------
	 SCS Same-Spin Scale       =       0.3333333333333333 [-]
	 SCS Opposite-Spin Scale   =       1.2000000000000000 [-]
	 SCS Same-Spin Energy      =      -0.1688044619760947 [Eh]
	 SCS Opposite-Spin Energy  =      -1.8076610000363631 [Eh]
	 SCS Correlation Energy    =      -1.9764654620124578 [Eh]
	 SCS Total Energy          =    -495.3225790684530239 [Eh]
	-----------------------------------------------------------

  Dipole Moment: [D]
     X:     2.8586      Y:    -0.7196      Z:    -0.5758     Total:     3.0035

*** Psi4 exiting successfully. Buy a developer a beer!
