                               Psi4 1.4a3.dev225

  ==> Input File <==

--------------------------------------------------------------------------
#psi4
#
memory 32 gb

molecule  {
0 1
  O       -0.1026610     2.1662260    -0.1575610
  O       -2.2584930    -1.3355120    -0.3678820
  O       -2.3910220     0.7817980     0.4224010
  C       -0.2229580    -0.2124560     0.0160270
  C        0.5432810     0.9664510    -0.0570850
  C        0.4334420    -1.4495130     0.0922690
  C        1.9403100     0.8815900    -0.0555280
  C        1.8232300    -1.5265840     0.1016960
  C        2.5770020    -0.3540720     0.0300640
  C       -1.6986361    -0.1400398     0.0617020
  H       -0.1662180    -2.3524950     0.1438230
  H        2.5302810     1.7953260    -0.1182260
  H        2.3147800    -2.4929990     0.1682820
  H        3.6634790    -0.3965710     0.0346780
  H        0.5735000     2.8633950    -0.2378390
  H       -3.2240480    -1.2056750    -0.2641070
units angstrom
no_reorient  #important for SAPT in psi4, default
symmetry c1  #important for SAPT in psi4, default
}

set PROPERTIES_ORIGIN ["COM"]
properties('MP2/aug-cc-pvtz', properties = ['dipole'])
--------------------------------------------------------------------------

    Molecular point group: c1
  Charge       = 0
  Multiplicity = 1
  Basis Set: AUG-CC-PVTZ
    Blend: AUG-CC-PVTZ
  Basis Set: (AUG-CC-PVTZ AUX)
    Blend: AUG-CC-PVTZ-JKFIT

    Orbital Energies [Eh]
    ---------------------

    Doubly Occupied:

       1A    -20.603827     2A    -20.603739     3A    -20.545416
       4A    -11.388535     5A    -11.331618     6A    -11.266393
       7A    -11.263693     8A    -11.256676     9A    -11.250302
      10A    -11.243045    11A     -1.448848    12A     -1.416034
      13A     -1.349982    14A     -1.168193    15A     -1.056249
      16A     -1.023675    17A     -0.897571    18A     -0.862046
      19A     -0.798514    20A     -0.746318    21A     -0.707209
      22A     -0.696468    23A     -0.675908    24A     -0.643860
      25A     -0.625589    26A     -0.621626    27A     -0.595870
      28A     -0.588811    29A     -0.583103    30A     -0.537986
      31A     -0.524115    32A     -0.498785    33A     -0.478955
      34A     -0.447486    35A     -0.362545    36A     -0.332759

  @DF-RHF Final Energy:  -493.35357678533188

   => Energetics <=

    Nuclear Repulsion Energy =            499.0535168034669482
    One-Electron Energy =               -1663.9306911403914455
    Two-Electron Energy =                 671.5235975515927294
    Total Energy =                       -493.3535767853318248
  Basis Set: (AUG-CC-PVTZ AUX)
    Blend: AUG-CC-PVTZ-RI
    Molecular point group: c1

    Geometry (in Angstrom), charge = 0, multiplicity = 1:

       Center              X                  Y                   Z               Mass
    ------------   -----------------  -----------------  -----------------  -----------------
         O           -0.062624642407     2.151928645720    -0.160068132383    15.994914619570
         O           -2.218456642407    -1.349809354280    -0.370389132383    15.994914619570
         O           -2.350985642407     0.767500645720     0.419893867617    15.994914619570
         C           -0.182921642407    -0.226753354280     0.013519867617    12.000000000000
         C            0.583317357593     0.952153645720    -0.059592132383    12.000000000000
         C            0.473478357593    -1.463810354280     0.089761867617    12.000000000000
         C            1.980346357593     0.867292645720    -0.058035132383    12.000000000000
         C            1.863266357593    -1.540881354280     0.099188867617    12.000000000000
         C            2.617038357593    -0.368369354280     0.027556867617    12.000000000000
         C           -1.658599742407    -0.154337154280     0.059194867617    12.000000000000
         H           -0.126181642407    -2.366792354280     0.141315867617     1.007825032230
         H            2.570317357593     1.781028645720    -0.120733132383     1.007825032230
         H            2.354816357593    -2.507296354280     0.165774867617     1.007825032230
         H            3.703515357593    -0.410868354280     0.032170867617     1.007825032230
         H            0.613536357593     2.849097645720    -0.240346132383     1.007825032230
         H           -3.184011642407    -1.219972354280    -0.266614132383     1.007825032230

  Basis Set: AUG-CC-PVTZ
    Blend: AUG-CC-PVTZ
  Basis Set: (AUG-CC-PVTZ AUX)
    Blend: AUG-CC-PVTZ-JKFIT
	 Reference Energy          =    -493.3535767853318816 [Eh]
	 Singles Energy            =      -0.0000000000000000 [Eh]
	 Same-Spin Energy          =      -0.5052836151924118 [Eh]
	 Opposite-Spin Energy      =      -1.5044392571682295 [Eh]
	 Correlation Energy        =      -2.0097228723606415 [Eh]
	 Total Energy              =    -495.3632996576925507 [Eh]

	 ================> DF-SCS-MP2 Energies <==================
	-----------------------------------------------------------
	 SCS Same-Spin Scale       =       0.3333333333333333 [-]
	 SCS Opposite-Spin Scale   =       1.2000000000000000 [-]
	 SCS Same-Spin Energy      =      -0.1684278717308039 [Eh]
	 SCS Opposite-Spin Energy  =      -1.8053271086018752 [Eh]
	 SCS Correlation Energy    =      -1.9737549803326790 [Eh]
	 SCS Total Energy          =    -495.3273317656645531 [Eh]
	-----------------------------------------------------------

  Dipole Moment: [D]
     X:     2.7483      Y:    -0.3368      Z:    -0.4079     Total:     2.7988

*** Psi4 exiting successfully. Buy a developer a beer!
