                               Psi4 1.3.2 release

  ==> Input File <==

--------------------------------------------------------------------------
#psi4
#
memory 32 gb

molecule  {
0 1
  O       -0.1027990     2.1661630    -0.1573240
  O       -2.2585870    -1.3354710    -0.3679860
  O       -2.3909180     0.7817600     0.4224630
  C       -0.2229310    -0.2124960     0.0158460
  C        0.5432600     0.9664360    -0.0570110
  C        0.4335280    -1.4494910     0.0925130
  C        1.9402870     0.8816050    -0.0559020
  C        1.8233140    -1.5265410     0.1016630
  C        2.5770400    -0.3539830     0.0301550
  C       -1.6663581    -0.0712182     0.0863851
  H       -0.1661180    -2.3524960     0.1439440
  H        2.5301710     1.7954230    -0.1182500
  H        2.3148760    -2.4929130     0.1687580
  H        3.6635200    -0.3964420     0.0343940
  H        0.5733460     2.8632860    -0.2381370
  H       -3.2241600    -1.2056690    -0.2641310
units angstrom
no_reorient  #important for SAPT in psi4, default
symmetry c1  #important for SAPT in psi4, default
}

set PROPERTIES_ORIGIN ["COM"]
properties('MP2/aug-cc-pvtz', properties = ['dipole'])
--------------------------------------------------------------------------

    Molecular point group: c1
  Charge       = 0
  Multiplicity = 1
  Basis Set: AUG-CC-PVTZ
    Blend: AUG-CC-PVTZ
  Basis Set: (AUG-CC-PVTZ AUX)
    Blend: AUG-CC-PVTZ-JKFIT

    Orbital Energies [Eh]
    ---------------------

    Doubly Occupied:

       1A    -20.608185     2A    -20.579094     3A    -20.556149
       4A    -11.386234     5A    -11.334251     6A    -11.269453
       7A    -11.266979     8A    -11.257887     9A    -11.252211
      10A    -11.245127    11A     -1.451298    12A     -1.419954
      13A     -1.337570    14A     -1.171416    15A     -1.061471
      16A     -1.026711    17A     -0.899537    18A     -0.863024
      19A     -0.790757    20A     -0.748628    21A     -0.700985
      22A     -0.696824    23A     -0.674501    24A     -0.643427
      25A     -0.627422    26A     -0.618380    27A     -0.594403
      28A     -0.592262    29A     -0.586905    30A     -0.540884
      31A     -0.526240    32A     -0.499806    33A     -0.482625
      34A     -0.446253    35A     -0.365578    36A     -0.335871

  @DF-RHF Final Energy:  -493.34440503990305

   => Energetics <=

    Nuclear Repulsion Energy =            499.4409533918164357
    One-Electron Energy =               -1664.6541149736665375
    Two-Electron Energy =                 671.8687565419469365
    Total Energy =                       -493.3444050399031084
  Basis Set: (AUG-CC-PVTZ AUX)
    Blend: AUG-CC-PVTZ-RI
    Molecular point group: c1

    Geometry (in Angstrom), charge = 0, multiplicity = 1:

       Center              X                  Y                   Z               Mass
    ------------   -----------------  -----------------  -----------------  -----------------
         O           -0.065569538069     2.145878056142    -0.161983789801    15.994914619570
         O           -2.221357538069    -1.355755943858    -0.372645789801    15.994914619570
         O           -2.353688538069     0.761475056142     0.417803210199    15.994914619570
         C           -0.185701538069    -0.232780943858     0.011186210199    12.000000000000
         C            0.580489461931     0.946151056142    -0.061670789801    12.000000000000
         C            0.470757461931    -1.469775943858     0.087853210199    12.000000000000
         C            1.977516461931     0.861320056142    -0.060561789801    12.000000000000
         C            1.860543461931    -1.546825943858     0.097003210199    12.000000000000
         C            2.614269461931    -0.374267943858     0.025495210199    12.000000000000
         C           -1.629128638069    -0.091503143858     0.081725310199    12.000000000000
         H           -0.128888538069    -2.372780943858     0.139284210199     1.007825032230
         H            2.567400461931     1.775138056142    -0.122909789801     1.007825032230
         H            2.352105461931    -2.513197943858     0.164098210199     1.007825032230
         H            3.700749461931    -0.416726943858     0.029734210199     1.007825032230
         H            0.610575461931     2.843001056142    -0.242796789801     1.007825032230
         H           -3.186930538069    -1.225953943858    -0.268790789801     1.007825032230

  Basis Set: AUG-CC-PVTZ
    Blend: AUG-CC-PVTZ
  Basis Set: (AUG-CC-PVTZ AUX)
    Blend: AUG-CC-PVTZ-JKFIT
	 Reference Energy          =    -493.3444050399030516 [Eh]
	 Singles Energy            =      -0.0000000000000000 [Eh]
	 Same-Spin Energy          =      -0.5052769235676653 [Eh]
	 Opposite-Spin Energy      =      -1.5048878605071438 [Eh]
	 Correlation Energy        =      -2.0101647840748091 [Eh]
	 Total Energy              =    -495.3545698239778403 [Eh]

	 ================> DF-SCS-MP2 Energies <==================
	-----------------------------------------------------------
	 SCS Same-Spin Scale       =       0.3333333333333333 [-]
	 SCS Opposite-Spin Scale   =       1.2000000000000000 [-]
	 SCS Same-Spin Energy      =      -0.1684256411892218 [Eh]
	 SCS Opposite-Spin Energy  =      -1.8058654326085726 [Eh]
	 SCS Correlation Energy    =      -1.9742910737977943 [Eh]
	 SCS Total Energy          =    -495.3186961137008666 [Eh]
	-----------------------------------------------------------

  Dipole Moment: [D]
     X:     3.1432      Y:     0.2153      Z:    -0.1885     Total:     3.1562

*** Psi4 exiting successfully. Buy a developer a beer!
