                               Psi4 1.3.2 release

  ==> Input File <==

--------------------------------------------------------------------------
#psi4
#
memory 32 gb

molecule  {
0 1
  O       -0.1027990     2.1661630    -0.1573240
  O       -2.2585870    -1.3354710    -0.3679860
  O       -2.3909180     0.7817600     0.4224630
  C       -0.2229310    -0.2124960     0.0158460
  C        0.5432600     0.9664360    -0.0570110
  C        0.4335280    -1.4494910     0.0925130
  C        1.9402870     0.8816050    -0.0559020
  C        1.8233140    -1.5265410     0.1016630
  C        2.5770400    -0.3539830     0.0301550
  C       -1.5069051    -0.1647573     0.0501060
  H       -0.1661180    -2.3524960     0.1439440
  H        2.5301710     1.7954230    -0.1182500
  H        2.3148760    -2.4929130     0.1687580
  H        3.6635200    -0.3964420     0.0343940
  H        0.5733460     2.8632860    -0.2381370
  H       -3.2241600    -1.2056690    -0.2641310
units angstrom
no_reorient  #important for SAPT in psi4, default
symmetry c1  #important for SAPT in psi4, default
}

set PROPERTIES_ORIGIN ["COM"]
properties('MP2/aug-cc-pvtz', properties = ['dipole'])
--------------------------------------------------------------------------

    Molecular point group: c1
  Charge       = 0
  Multiplicity = 1
  Basis Set: AUG-CC-PVTZ
    Blend: AUG-CC-PVTZ
  Basis Set: (AUG-CC-PVTZ AUX)
    Blend: AUG-CC-PVTZ-JKFIT

    Orbital Energies [Eh]
    ---------------------

    Doubly Occupied:

       1A    -20.616876     2A    -20.581026     3A    -20.517798
       4A    -11.385169     5A    -11.354677     6A    -11.288138
       7A    -11.283979     8A    -11.263440     9A    -11.256015
      10A    -11.251780    11A     -1.429984    12A     -1.387369
      13A     -1.262307    14A     -1.192158    15A     -1.098705
      16A     -1.040584    17A     -0.933190    18A     -0.879465
      19A     -0.801072    20A     -0.758851    21A     -0.717505
      22A     -0.697352    23A     -0.652834    24A     -0.646333
      25A     -0.633530    26A     -0.621462    27A     -0.599815
      28A     -0.571591    29A     -0.564180    30A     -0.539962
      31A     -0.528512    32A     -0.508728    33A     -0.440036
      34A     -0.417686    35A     -0.372251    36A     -0.346645

  @DF-RHF Final Energy:  -493.27694313069969

   => Energetics <=

    Nuclear Repulsion Energy =            500.1168564908928715
    One-Electron Energy =               -1665.9055864846641271
    Two-Electron Energy =                 672.5117868630716202
    Total Energy =                       -493.2769431306996921
  Basis Set: (AUG-CC-PVTZ AUX)
    Blend: AUG-CC-PVTZ-RI
    Molecular point group: c1

    Geometry (in Angstrom), charge = 0, multiplicity = 1:

       Center              X                  Y                   Z               Mass
    ------------   -----------------  -----------------  -----------------  -----------------
         O           -0.079431832618     2.154010023280    -0.158829809818    15.994914619570
         O           -2.235219832618    -1.347623976720    -0.369491809818    15.994914619570
         O           -2.367550832618     0.769607023280     0.420957190182    15.994914619570
         C           -0.199563832618    -0.224648976720     0.014340190182    12.000000000000
         C            0.566627167382     0.954283023280    -0.058516809818    12.000000000000
         C            0.456895167382    -1.461643976720     0.091007190182    12.000000000000
         C            1.963654167382     0.869452023280    -0.057407809818    12.000000000000
         C            1.846681167382    -1.538693976720     0.100157190182    12.000000000000
         C            2.600407167382    -0.366135976720     0.028649190182    12.000000000000
         C           -1.483537932618    -0.176910276720     0.048600190182    12.000000000000
         H           -0.142750832618    -2.364648976720     0.142438190182     1.007825032230
         H            2.553538167382     1.783270023280    -0.119755809818     1.007825032230
         H            2.338243167382    -2.505065976720     0.167252190182     1.007825032230
         H            3.686887167382    -0.408594976720     0.032888190182     1.007825032230
         H            0.596713167382     2.851133023280    -0.239642809818     1.007825032230
         H           -3.200792832618    -1.217821976720    -0.265636809818     1.007825032230

  Basis Set: AUG-CC-PVTZ
    Blend: AUG-CC-PVTZ
  Basis Set: (AUG-CC-PVTZ AUX)
    Blend: AUG-CC-PVTZ-JKFIT
	 Reference Energy          =    -493.2769431306996921 [Eh]
	 Singles Energy            =      -0.0000000000000000 [Eh]
	 Same-Spin Energy          =      -0.5106979117968853 [Eh]
	 Opposite-Spin Energy      =      -1.5157529223423880 [Eh]
	 Correlation Energy        =      -2.0264508341392733 [Eh]
	 Total Energy              =    -495.3033939648389605 [Eh]

	 ================> DF-SCS-MP2 Energies <==================
	-----------------------------------------------------------
	 SCS Same-Spin Scale       =       0.3333333333333333 [-]
	 SCS Opposite-Spin Scale   =       1.2000000000000000 [-]
	 SCS Same-Spin Energy      =      -0.1702326372656284 [Eh]
	 SCS Opposite-Spin Energy  =      -1.8189035068108654 [Eh]
	 SCS Correlation Energy    =      -1.9891361440764939 [Eh]
	 SCS Total Energy          =    -495.2660792747761889 [Eh]
	-----------------------------------------------------------

  Dipole Moment: [D]
     X:     4.4795      Y:    -0.2503      Z:    -0.4454     Total:     4.5086

*** Psi4 exiting successfully. Buy a developer a beer!
