                               Psi4 1.3.2 release

  ==> Input File <==

--------------------------------------------------------------------------
#psi4
#
memory 32 gb

molecule  {
0 1
  O       -0.1027990     2.1661630    -0.1573240
  O       -2.2585870    -1.3354710    -0.3679860
  O       -2.3909180     0.7817600     0.4224630
  C       -0.2229310    -0.2124960     0.0158460
  C        0.5008628     0.9448008    -0.0540443
  C        0.4335280    -1.4494910     0.0925130
  C        1.9402870     0.8816050    -0.0559020
  C        1.8233140    -1.5265410     0.1016630
  C        2.5770400    -0.3539830     0.0301550
  C       -1.7066960    -0.1573290     0.0554370
  H       -0.1661180    -2.3524960     0.1439440
  H        2.5301710     1.7954230    -0.1182500
  H        2.3148760    -2.4929130     0.1687580
  H        3.6635200    -0.3964420     0.0343940
  H        0.5733460     2.8632860    -0.2381370
  H       -3.2241600    -1.2056690    -0.2641310
units angstrom
no_reorient  #important for SAPT in psi4, default
symmetry c1  #important for SAPT in psi4, default
}

set PROPERTIES_ORIGIN ["COM"]
properties('MP2/aug-cc-pvtz', properties = ['dipole'])
--------------------------------------------------------------------------

    Molecular point group: c1
  Charge       = 0
  Multiplicity = 1
  Basis Set: AUG-CC-PVTZ
    Blend: AUG-CC-PVTZ
  Basis Set: (AUG-CC-PVTZ AUX)
    Blend: AUG-CC-PVTZ-JKFIT

    Orbital Energies [Eh]
    ---------------------

    Doubly Occupied:

       1A    -20.610301     2A    -20.601408     3A    -20.543445
       4A    -11.389564     5A    -11.331557     6A    -11.264304
       7A    -11.262547     8A    -11.253978     9A    -11.253025
      10A    -11.242532    11A     -1.454242    12A     -1.413648
      13A     -1.349125    14A     -1.168380    15A     -1.058293
      16A     -1.019274    17A     -0.896036    18A     -0.865647
      19A     -0.799435    20A     -0.747898    21A     -0.709220
      22A     -0.697618    23A     -0.674878    24A     -0.649079
      25A     -0.625723    26A     -0.624525    27A     -0.595476
      28A     -0.587352    29A     -0.579350    30A     -0.533645
      31A     -0.524956    32A     -0.498399    33A     -0.476938
      34A     -0.446255    35A     -0.363479    36A     -0.330833

  @DF-RHF Final Energy:  -493.35134858738638

   => Energetics <=

    Nuclear Repulsion Energy =            499.3060637577305556
    One-Electron Energy =               -1664.4300974116993075
    Two-Electron Energy =                 671.7726850665824259
    Total Energy =                       -493.3513485873863829
  Basis Set: (AUG-CC-PVTZ AUX)
    Blend: AUG-CC-PVTZ-RI
    Molecular point group: c1

    Geometry (in Angstrom), charge = 0, multiplicity = 1:

       Center              X                  Y                   Z               Mass
    ------------   -----------------  -----------------  -----------------  -----------------
         O           -0.058376833475     2.155245122227    -0.159551183273    15.994914619570
         O           -2.214164833475    -1.346388877773    -0.370213183273    15.994914619570
         O           -2.346495833475     0.770842122227     0.420235816727    15.994914619570
         C           -0.178508833475    -0.223413877773     0.013618816727    12.000000000000
         C            0.545284966525     0.933882922227    -0.056271483273    12.000000000000
         C            0.477950166525    -1.460408877773     0.090285816727    12.000000000000
         C            1.984709166525     0.870687122227    -0.058129183273    12.000000000000
         C            1.867736166525    -1.537458877773     0.099435816727    12.000000000000
         C            2.621462166525    -0.364900877773     0.027927816727    12.000000000000
         C           -1.662273833475    -0.168246877773     0.053209816727    12.000000000000
         H           -0.121695833475    -2.363413877773     0.141716816727     1.007825032230
         H            2.574593166525     1.784505122227    -0.120477183273     1.007825032230
         H            2.359298166525    -2.503830877773     0.166530816727     1.007825032230
         H            3.707942166525    -0.407359877773     0.032166816727     1.007825032230
         H            0.617768166525     2.852368122227    -0.240364183273     1.007825032230
         H           -3.179737833475    -1.216586877773    -0.266358183273     1.007825032230

  Basis Set: AUG-CC-PVTZ
    Blend: AUG-CC-PVTZ
  Basis Set: (AUG-CC-PVTZ AUX)
    Blend: AUG-CC-PVTZ-JKFIT
	 Reference Energy          =    -493.3513485873863829 [Eh]
	 Singles Energy            =      -0.0000000000000000 [Eh]
	 Same-Spin Energy          =      -0.5051390903614987 [Eh]
	 Opposite-Spin Energy      =      -1.5043377651765475 [Eh]
	 Correlation Energy        =      -2.0094768555380460 [Eh]
	 Total Energy              =    -495.3608254429244084 [Eh]

	 ================> DF-SCS-MP2 Energies <==================
	-----------------------------------------------------------
	 SCS Same-Spin Scale       =       0.3333333333333333 [-]
	 SCS Opposite-Spin Scale   =       1.2000000000000000 [-]
	 SCS Same-Spin Energy      =      -0.1683796967871662 [Eh]
	 SCS Opposite-Spin Energy  =      -1.8052053182118568 [Eh]
	 SCS Correlation Energy    =      -1.9735850149990231 [Eh]
	 SCS Total Energy          =    -495.3249336023853857 [Eh]
	-----------------------------------------------------------

  Dipole Moment: [D]
     X:     2.6357      Y:    -0.4778      Z:    -0.4603     Total:     2.7179

*** Psi4 exiting successfully. Buy a developer a beer!
