                               Psi4 1.4a3.dev225

  ==> Input File <==

--------------------------------------------------------------------------
#psi4
#
memory 32 gb

molecule  {
0 1
  O       -0.1026610     2.1662260    -0.1575610
  O       -2.2584930    -1.3355120    -0.3678820
  O       -2.3910220     0.7817980     0.4224010
  C       -0.2229580    -0.2124560     0.0160270
  C        0.5432810     0.9664510    -0.0570850
  C        0.4334420    -1.4495130     0.0922690
  C        1.9403100     0.8815900    -0.0555280
  C        1.8232300    -1.5265840     0.1016960
  C        2.5770020    -0.3540720     0.0300640
  C       -1.6567542    -0.1591210     0.0541838
  H       -0.1662180    -2.3524950     0.1438230
  H        2.5302810     1.7953260    -0.1182260
  H        2.3147800    -2.4929990     0.1682820
  H        3.6634790    -0.3965710     0.0346780
  H        0.5735000     2.8633950    -0.2378390
  H       -3.2240480    -1.2056750    -0.2641070
units angstrom
no_reorient  #important for SAPT in psi4, default
symmetry c1  #important for SAPT in psi4, default
}

set PROPERTIES_ORIGIN ["COM"]
properties('MP2/aug-cc-pvtz', properties = ['dipole'])
--------------------------------------------------------------------------

    Molecular point group: c1
  Charge       = 0
  Multiplicity = 1
  Basis Set: AUG-CC-PVTZ
    Blend: AUG-CC-PVTZ
  Basis Set: (AUG-CC-PVTZ AUX)
    Blend: AUG-CC-PVTZ-JKFIT

    Orbital Energies [Eh]
    ---------------------

    Doubly Occupied:

       1A    -20.605758     2A    -20.603248     3A    -20.537583
       4A    -11.389558     5A    -11.336208     6A    -11.270540
       7A    -11.267649     8A    -11.256676     9A    -11.252934
      10A    -11.245609    11A     -1.438161    12A     -1.417685
      13A     -1.326782    14A     -1.172800    15A     -1.064633
      16A     -1.027003    17A     -0.906046    18A     -0.865748
      19A     -0.800676    20A     -0.748511    21A     -0.711742
      22A     -0.692440    23A     -0.674201    24A     -0.643296
      25A     -0.626523    26A     -0.618871    27A     -0.595966
      28A     -0.588655    29A     -0.578862    30A     -0.537701
      31A     -0.526453    32A     -0.501278    33A     -0.466087
      34A     -0.443191    35A     -0.365429    36A     -0.335528

  @DF-RHF Final Energy:  -493.34645901304384

   => Energetics <=

    Nuclear Repulsion Energy =            499.1902453573374032
    One-Electron Energy =               -1664.1933467214535085
    Two-Electron Energy =                 671.6566423510721506
    Total Energy =                       -493.3464590130438410
  Basis Set: (AUG-CC-PVTZ AUX)
    Blend: AUG-CC-PVTZ-RI
    Molecular point group: c1

    Geometry (in Angstrom), charge = 0, multiplicity = 1:

       Center              X                  Y                   Z               Mass
    ------------   -----------------  -----------------  -----------------  -----------------
         O           -0.066265710522     2.153587499519    -0.159414525973    15.994914619570
         O           -2.222097710522    -1.348150500481    -0.369735525973    15.994914619570
         O           -2.354626710522     0.769159499519     0.420547474027    15.994914619570
         C           -0.186562710522    -0.225094500481     0.014173474027    12.000000000000
         C            0.579676289478     0.953812499519    -0.058938525973    12.000000000000
         C            0.469837289478    -1.462151500481     0.090415474027    12.000000000000
         C            1.976705289478     0.868951499519    -0.057381525973    12.000000000000
         C            1.859625289478    -1.539222500481     0.099842474027    12.000000000000
         C            2.613397289478    -0.366710500481     0.028210474027    12.000000000000
         C           -1.620358910522    -0.171759500481     0.052330274027    12.000000000000
         H           -0.129822710522    -2.365133500481     0.141969474027     1.007825032230
         H            2.566676289478     1.782687499519    -0.120079525973     1.007825032230
         H            2.351175289478    -2.505637500481     0.166428474027     1.007825032230
         H            3.699874289478    -0.409209500481     0.032824474027     1.007825032230
         H            0.609895289478     2.850756499519    -0.239692525973     1.007825032230
         H           -3.187652710522    -1.218313500481    -0.265960525973     1.007825032230

  Basis Set: AUG-CC-PVTZ
    Blend: AUG-CC-PVTZ
  Basis Set: (AUG-CC-PVTZ AUX)
    Blend: AUG-CC-PVTZ-JKFIT
	 Reference Energy          =    -493.3464590130438410 [Eh]
	 Singles Energy            =      -0.0000000000000000 [Eh]
	 Same-Spin Energy          =      -0.5064033858565896 [Eh]
	 Opposite-Spin Energy      =      -1.5066907020671281 [Eh]
	 Correlation Energy        =      -2.0130940879237178 [Eh]
	 Total Energy              =    -495.3595531009675597 [Eh]

	 ================> DF-SCS-MP2 Energies <==================
	-----------------------------------------------------------
	 SCS Same-Spin Scale       =       0.3333333333333333 [-]
	 SCS Opposite-Spin Scale   =       1.2000000000000000 [-]
	 SCS Same-Spin Energy      =      -0.1688011286188632 [Eh]
	 SCS Opposite-Spin Energy  =      -1.8080288424805535 [Eh]
	 SCS Correlation Energy    =      -1.9768299710994166 [Eh]
	 SCS Total Energy          =    -495.3232889841432325 [Eh]
	-----------------------------------------------------------

  Dipole Moment: [D]
     X:     3.1054      Y:    -0.4348      Z:    -0.4625     Total:     3.1696

*** Psi4 exiting successfully. Buy a developer a beer!
