                               Psi4 1.3.2 release

  ==> Input File <==

--------------------------------------------------------------------------
#psi4
#
memory 32 gb

molecule  {
0 1
  O       -0.1027990     2.1661630    -0.1573240
  O       -2.2585870    -1.3354710    -0.3679860
  O       -2.3909180     0.7817600     0.4224630
  C       -0.2229310    -0.2124960     0.0158460
  C        0.4959750     1.0542439    -0.0643529
  C        0.4335280    -1.4494910     0.0925130
  C        1.9402870     0.8816050    -0.0559020
  C        1.8233140    -1.5265410     0.1016630
  C        2.5770400    -0.3539830     0.0301550
  C       -1.7066960    -0.1573290     0.0554370
  H       -0.1661180    -2.3524960     0.1439440
  H        2.5301710     1.7954230    -0.1182500
  H        2.3148760    -2.4929130     0.1687580
  H        3.6635200    -0.3964420     0.0343940
  H        0.5733460     2.8632860    -0.2381370
  H       -3.2241600    -1.2056690    -0.2641310
units angstrom
no_reorient  #important for SAPT in psi4, default
symmetry c1  #important for SAPT in psi4, default
}

set PROPERTIES_ORIGIN ["COM"]
properties('MP2/aug-cc-pvtz', properties = ['dipole'])
--------------------------------------------------------------------------

    Molecular point group: c1
  Charge       = 0
  Multiplicity = 1
  Basis Set: AUG-CC-PVTZ
    Blend: AUG-CC-PVTZ
  Basis Set: (AUG-CC-PVTZ AUX)
    Blend: AUG-CC-PVTZ-JKFIT

    Orbital Energies [Eh]
    ---------------------

    Doubly Occupied:

       1A    -20.625847     2A    -20.606232     3A    -20.539760
       4A    -11.384540     5A    -11.343494     6A    -11.263285
       7A    -11.260201     8A    -11.254161     9A    -11.249558
      10A    -11.235860    11A     -1.478857    12A     -1.449520
      13A     -1.346236    14A     -1.154662    15A     -1.047253
      16A     -1.013424    17A     -0.892947    18A     -0.872278
      19A     -0.798988    20A     -0.766003    21A     -0.708193
      22A     -0.698100    23A     -0.685642    24A     -0.645841
      25A     -0.638032    26A     -0.621934    27A     -0.614871
      28A     -0.585801    29A     -0.579595    30A     -0.538672
      31A     -0.508463    32A     -0.494454    33A     -0.474550
      34A     -0.442156    35A     -0.358033    36A     -0.316911

  @DF-RHF Final Energy:  -493.34151095655096

   => Energetics <=

    Nuclear Repulsion Energy =            498.7585058673467984
    One-Electron Energy =               -1663.2113277707439920
    Two-Electron Energy =                 671.1113109468462881
    Total Energy =                       -493.3415109565510193
  Basis Set: (AUG-CC-PVTZ AUX)
    Blend: AUG-CC-PVTZ-RI
    Molecular point group: c1

    Geometry (in Angstrom), charge = 0, multiplicity = 1:

       Center              X                  Y                   Z               Mass
    ------------   -----------------  -----------------  -----------------  -----------------
         O           -0.057951904980     2.145730516114    -0.158654989099    15.994914619570
         O           -2.213739904980    -1.355903483886    -0.369316989099    15.994914619570
         O           -2.346070904980     0.761327516114     0.421132010901    15.994914619570
         C           -0.178083904980    -0.232928483886     0.014515010901    12.000000000000
         C            0.540822095020     1.033811416114    -0.065683889099    12.000000000000
         C            0.478375095020    -1.469923483886     0.091182010901    12.000000000000
         C            1.985134095020     0.861172516114    -0.057232989099    12.000000000000
         C            1.868161095020    -1.546973483886     0.100332010901    12.000000000000
         C            2.621887095020    -0.374415483886     0.028824010901    12.000000000000
         C           -1.661848904980    -0.177761483886     0.054106010901    12.000000000000
         H           -0.121270904980    -2.372928483886     0.142613010901     1.007825032230
         H            2.575018095020     1.774990516114    -0.119580989099     1.007825032230
         H            2.359723095020    -2.513345483886     0.167427010901     1.007825032230
         H            3.708367095020    -0.416874483886     0.033063010901     1.007825032230
         H            0.618193095020     2.842853516114    -0.239467989099     1.007825032230
         H           -3.179312904980    -1.226101483886    -0.265461989099     1.007825032230

  Basis Set: AUG-CC-PVTZ
    Blend: AUG-CC-PVTZ
  Basis Set: (AUG-CC-PVTZ AUX)
    Blend: AUG-CC-PVTZ-JKFIT
	 Reference Energy          =    -493.3415109565509624 [Eh]
	 Singles Energy            =      -0.0000000000000000 [Eh]
	 Same-Spin Energy          =      -0.5054489506307600 [Eh]
	 Opposite-Spin Energy      =      -1.5034005019552554 [Eh]
	 Correlation Energy        =      -2.0088494525860154 [Eh]
	 Total Energy              =    -495.3503604091369539 [Eh]

	 ================> DF-SCS-MP2 Energies <==================
	-----------------------------------------------------------
	 SCS Same-Spin Scale       =       0.3333333333333333 [-]
	 SCS Opposite-Spin Scale   =       1.2000000000000000 [-]
	 SCS Same-Spin Energy      =      -0.1684829835435867 [Eh]
	 SCS Opposite-Spin Energy  =      -1.8040806023463065 [Eh]
	 SCS Correlation Energy    =      -1.9725635858898931 [Eh]
	 SCS Total Energy          =    -495.3140745424408351 [Eh]
	-----------------------------------------------------------

  Dipole Moment: [D]
     X:     2.4451      Y:     0.1972      Z:    -0.5250     Total:     2.5086

*** Psi4 exiting successfully. Buy a developer a beer!
