                               Psi4 1.3.2 release

  ==> Input File <==

--------------------------------------------------------------------------
#psi4
#
memory 32 gb

molecule  {
0 1
  O       -0.1444123     2.1428857    -0.1563716
  O       -2.2585870    -1.3354710    -0.3679860
  O       -2.3909180     0.7817600     0.4224630
  C       -0.2229310    -0.2124960     0.0158460
  C        0.5432600     0.9664360    -0.0570110
  C        0.4335280    -1.4494910     0.0925130
  C        1.9402870     0.8816050    -0.0559020
  C        1.8233140    -1.5265410     0.1016630
  C        2.5770400    -0.3539830     0.0301550
  C       -1.7066960    -0.1573290     0.0554370
  H       -0.1661180    -2.3524960     0.1439440
  H        2.5301710     1.7954230    -0.1182500
  H        2.3148760    -2.4929130     0.1687580
  H        3.6635200    -0.3964420     0.0343940
  H        0.5733460     2.8632860    -0.2381370
  H       -3.2241600    -1.2056690    -0.2641310
units angstrom
no_reorient  #important for SAPT in psi4, default
symmetry c1  #important for SAPT in psi4, default
}

set PROPERTIES_ORIGIN ["COM"]
properties('MP2/aug-cc-pvtz', properties = ['dipole'])
--------------------------------------------------------------------------

    Molecular point group: c1
  Charge       = 0
  Multiplicity = 1
  Basis Set: AUG-CC-PVTZ
    Blend: AUG-CC-PVTZ
  Basis Set: (AUG-CC-PVTZ AUX)
    Blend: AUG-CC-PVTZ-JKFIT

    Orbital Energies [Eh]
    ---------------------

    Doubly Occupied:

       1A    -20.609379     2A    -20.607595     3A    -20.542091
       4A    -11.388760     5A    -11.330115     6A    -11.266007
       7A    -11.262446     8A    -11.255142     9A    -11.250594
      10A    -11.242326    11A     -1.453145    12A     -1.408575
      13A     -1.347830    14A     -1.166577    15A     -1.054698
      16A     -1.021545    17A     -0.897258    18A     -0.858867
      19A     -0.800063    20A     -0.738314    21A     -0.706051
      22A     -0.697407    23A     -0.676737    24A     -0.642637
      25A     -0.624617    26A     -0.621957    27A     -0.595628
      28A     -0.588864    29A     -0.579809    30A     -0.538502
      31A     -0.522220    32A     -0.498003    33A     -0.476016
      34A     -0.445804    35A     -0.361646    36A     -0.331673

  @DF-RHF Final Energy:  -493.34790945513851

   => Energetics <=

    Nuclear Repulsion Energy =            499.2191492122389036
    One-Electron Energy =               -1664.3163136930252222
    Two-Electron Energy =                 671.7492550256479262
    Total Energy =                       -493.3479094551385060
  Basis Set: (AUG-CC-PVTZ AUX)
    Blend: AUG-CC-PVTZ-RI
    Molecular point group: c1

    Geometry (in Angstrom), charge = 0, multiplicity = 1:

       Center              X                  Y                   Z               Mass
    ------------   -----------------  -----------------  -----------------  -----------------
         O           -0.098853910511     2.132784272586    -0.158451231340    15.994914619570
         O           -2.213028610511    -1.345572427414    -0.370065631340    15.994914619570
         O           -2.345359610511     0.771658572586     0.420383368660    15.994914619570
         C           -0.177372610511    -0.222597427414     0.013766368660    12.000000000000
         C            0.588818389489     0.956334572586    -0.059090631340    12.000000000000
         C            0.479086389489    -1.459592427414     0.090433368660    12.000000000000
         C            1.985845389489     0.871503572586    -0.057981631340    12.000000000000
         C            1.868872389489    -1.536642427414     0.099583368660    12.000000000000
         C            2.622598389489    -0.364084427414     0.028075368660    12.000000000000
         C           -1.661137610511    -0.167430427414     0.053357368660    12.000000000000
         H           -0.120559610511    -2.362597427414     0.141864368660     1.007825032230
         H            2.575729389489     1.785321572586    -0.120329631340     1.007825032230
         H            2.360434389489    -2.503014427414     0.166678368660     1.007825032230
         H            3.709078389489    -0.406543427414     0.032314368660     1.007825032230
         H            0.618904389489     2.853184572586    -0.240216631340     1.007825032230
         H           -3.178601610511    -1.215770427414    -0.266210631340     1.007825032230

  Basis Set: AUG-CC-PVTZ
    Blend: AUG-CC-PVTZ
  Basis Set: (AUG-CC-PVTZ AUX)
    Blend: AUG-CC-PVTZ-JKFIT
	 Reference Energy          =    -493.3479094551385060 [Eh]
	 Singles Energy            =      -0.0000000000000000 [Eh]
	 Same-Spin Energy          =      -0.5062273712495535 [Eh]
	 Opposite-Spin Energy      =      -1.5064382821648601 [Eh]
	 Correlation Energy        =      -2.0126656534144134 [Eh]
	 Total Energy              =    -495.3605751085528937 [Eh]

	 ================> DF-SCS-MP2 Energies <==================
	-----------------------------------------------------------
	 SCS Same-Spin Scale       =       0.3333333333333333 [-]
	 SCS Opposite-Spin Scale   =       1.2000000000000000 [-]
	 SCS Same-Spin Energy      =      -0.1687424570831845 [Eh]
	 SCS Opposite-Spin Energy  =      -1.8077259385978319 [Eh]
	 SCS Correlation Energy    =      -1.9764683956810165 [Eh]
	 SCS Total Energy          =    -495.3243778508195305 [Eh]
	-----------------------------------------------------------

  Dipole Moment: [D]
     X:     2.6703      Y:    -0.4247      Z:    -0.4613     Total:     2.7430

*** Psi4 exiting successfully. Buy a developer a beer!
