                               Psi4 1.4a3.dev225

  ==> Input File <==

--------------------------------------------------------------------------
#psi4
#
memory 32 gb

molecule  {
0 1
  O       -0.1026610     2.1662260    -0.1575610
  O       -2.2584930    -1.3355120    -0.3678820
  O       -2.3910220     0.7817980     0.4224010
  C       -0.2229580    -0.2124560     0.0160270
  C        0.5432810     0.9664510    -0.0570850
  C        0.4334420    -1.4495130     0.0922690
  C        1.9403100     0.8815900    -0.0555280
  C        1.8232300    -1.5265840     0.1016960
  C        2.5770020    -0.3540720     0.0300640
  C       -1.7347825    -0.1187294     0.0705679
  H       -0.1662180    -2.3524950     0.1438230
  H        2.5302810     1.7953260    -0.1182260
  H        2.3147800    -2.4929990     0.1682820
  H        3.6634790    -0.3965710     0.0346780
  H        0.5735000     2.8633950    -0.2378390
  H       -3.2240480    -1.2056750    -0.2641070
units angstrom
no_reorient  #important for SAPT in psi4, default
symmetry c1  #important for SAPT in psi4, default
}

set PROPERTIES_ORIGIN ["COM"]
properties('MP2/aug-cc-pvtz', properties = ['dipole'])
--------------------------------------------------------------------------

    Molecular point group: c1
  Charge       = 0
  Multiplicity = 1
  Basis Set: AUG-CC-PVTZ
    Blend: AUG-CC-PVTZ
  Basis Set: (AUG-CC-PVTZ AUX)
    Blend: AUG-CC-PVTZ-JKFIT

    Orbital Energies [Eh]
    ---------------------

    Doubly Occupied:

       1A    -20.602553     2A    -20.602295     3A    -20.553004
       4A    -11.386957     5A    -11.327771     6A    -11.262984
       7A    -11.260379     8A    -11.256027     9A    -11.248067
      10A    -11.240857    11A     -1.462924    12A     -1.414731
      13A     -1.366924    14A     -1.164408    15A     -1.049431
      16A     -1.020862    17A     -0.889751    18A     -0.858752
      19A     -0.795717    20A     -0.744674    21A     -0.704793
      22A     -0.701967    23A     -0.675859    24A     -0.646918
      25A     -0.628636    26A     -0.621560    27A     -0.595778
      28A     -0.588748    29A     -0.584500    30A     -0.538567
      31A     -0.522479    32A     -0.497115    33A     -0.490280
      34A     -0.448478    35A     -0.359761    36A     -0.330409

  @DF-RHF Final Energy:  -493.35312425965282

   => Energetics <=

    Nuclear Repulsion Energy =            498.9924761997018550
    One-Electron Energy =               -1663.8013706997260215
    Two-Electron Energy =                 671.4557702403711801
    Total Energy =                       -493.3531242596528728
  Basis Set: (AUG-CC-PVTZ AUX)
    Blend: AUG-CC-PVTZ-RI
    Molecular point group: c1

    Geometry (in Angstrom), charge = 0, multiplicity = 1:

       Center              X                  Y                   Z               Mass
    ------------   -----------------  -----------------  -----------------  -----------------
         O           -0.059482198906     2.150075992953    -0.160838903188    15.994914619570
         O           -2.215314198906    -1.351662007047    -0.371159903188    15.994914619570
         O           -2.347843198906     0.765647992953     0.419123096812    15.994914619570
         C           -0.179779198906    -0.228606007047     0.012749096812    12.000000000000
         C            0.586459801094     0.950300992953    -0.060362903188    12.000000000000
         C            0.476620801094    -1.465663007047     0.088991096812    12.000000000000
         C            1.983488801094     0.865439992953    -0.058805903188    12.000000000000
         C            1.866408801094    -1.542734007047     0.098418096812    12.000000000000
         C            2.620180801094    -0.370222007047     0.026786096812    12.000000000000
         C           -1.691603698906    -0.134879407047     0.067289996812    12.000000000000
         H           -0.123039198906    -2.368645007047     0.140545096812     1.007825032230
         H            2.573459801094     1.779175992953    -0.121503903188     1.007825032230
         H            2.357958801094    -2.509149007047     0.165004096812     1.007825032230
         H            3.706657801094    -0.412721007047     0.031400096812     1.007825032230
         H            0.616678801094     2.847244992953    -0.241116903188     1.007825032230
         H           -3.180869198906    -1.221825007047    -0.267384903188     1.007825032230

  Basis Set: AUG-CC-PVTZ
    Blend: AUG-CC-PVTZ
  Basis Set: (AUG-CC-PVTZ AUX)
    Blend: AUG-CC-PVTZ-JKFIT
	 Reference Energy          =    -493.3531242596528159 [Eh]
	 Singles Energy            =      -0.0000000000000000 [Eh]
	 Same-Spin Energy          =      -0.5044068287430082 [Eh]
	 Opposite-Spin Energy      =      -1.5026817205211607 [Eh]
	 Correlation Energy        =      -2.0070885492641688 [Eh]
	 Total Energy              =    -495.3602128089169696 [Eh]

	 ================> DF-SCS-MP2 Energies <==================
	-----------------------------------------------------------
	 SCS Same-Spin Scale       =       0.3333333333333333 [-]
	 SCS Opposite-Spin Scale   =       1.2000000000000000 [-]
	 SCS Same-Spin Energy      =      -0.1681356095810027 [Eh]
	 SCS Opposite-Spin Energy  =      -1.8032180646253928 [Eh]
	 SCS Correlation Energy    =      -1.9713536742063955 [Eh]
	 SCS Total Energy          =    -495.3244779338592139 [Eh]
	-----------------------------------------------------------

  Dipole Moment: [D]
     X:     2.4366      Y:    -0.1987      Z:    -0.3386     Total:     2.4680

*** Psi4 exiting successfully. Buy a developer a beer!
