                               Psi4 1.3.2 release

  ==> Input File <==

--------------------------------------------------------------------------
#psi4
#
memory 32 gb

molecule  {
0 1
  O       -0.1027990     2.1661630    -0.1573240
  O       -2.2585870    -1.3354710    -0.3679860
  O       -2.4925516     0.7093546     0.3960930
  C       -0.2229310    -0.2124960     0.0158460
  C        0.5432600     0.9664360    -0.0570110
  C        0.4335280    -1.4494910     0.0925130
  C        1.9402870     0.8816050    -0.0559020
  C        1.8233140    -1.5265410     0.1016630
  C        2.5770400    -0.3539830     0.0301550
  C       -1.7066960    -0.1573290     0.0554370
  H       -0.1661180    -2.3524960     0.1439440
  H        2.5301710     1.7954230    -0.1182500
  H        2.3148760    -2.4929130     0.1687580
  H        3.6635200    -0.3964420     0.0343940
  H        0.5733460     2.8632860    -0.2381370
  H       -3.2241600    -1.2056690    -0.2641310
units angstrom
no_reorient  #important for SAPT in psi4, default
symmetry c1  #important for SAPT in psi4, default
}

set PROPERTIES_ORIGIN ["COM"]
properties('MP2/aug-cc-pvtz', properties = ['dipole'])
--------------------------------------------------------------------------

    Molecular point group: c1
  Charge       = 0
  Multiplicity = 1
  Basis Set: AUG-CC-PVTZ
    Blend: AUG-CC-PVTZ
  Basis Set: (AUG-CC-PVTZ AUX)
    Blend: AUG-CC-PVTZ-JKFIT

    Orbital Energies [Eh]
    ---------------------

    Doubly Occupied:

       1A    -20.606511     2A    -20.598786     3A    -20.540141
       4A    -11.388487     5A    -11.334591     6A    -11.268795
       7A    -11.266495     8A    -11.261704     9A    -11.252446
      10A    -11.245166    11A     -1.453508    12A     -1.418757
      13A     -1.337957    14A     -1.170739    15A     -1.058659
      16A     -1.025975    17A     -0.899637    18A     -0.864346
      19A     -0.800904    20A     -0.748387    21A     -0.708252
      22A     -0.695268    23A     -0.676466    24A     -0.644528
      25A     -0.626653    26A     -0.622928    27A     -0.598389
      28A     -0.589956    29A     -0.583308    30A     -0.537894
      31A     -0.526079    32A     -0.500686    33A     -0.471128
      34A     -0.445451    35A     -0.365312    36A     -0.335197

  @DF-RHF Final Energy:  -493.35175256695311

   => Energetics <=

    Nuclear Repulsion Energy =            498.0908103855376794
    One-Electron Energy =               -1661.9461512839907300
    Two-Electron Energy =                 670.5035883314999410
    Total Energy =                       -493.3517525669531096
  Basis Set: (AUG-CC-PVTZ AUX)
    Blend: AUG-CC-PVTZ-RI
    Molecular point group: c1

    Geometry (in Angstrom), charge = 0, multiplicity = 1:

       Center              X                  Y                   Z               Mass
    ------------   -----------------  -----------------  -----------------  -----------------
         O           -0.050285544281     2.161754466311    -0.156237550838    15.994914619570
         O           -2.206073544281    -1.339879533689    -0.366899550838    15.994914619570
         O           -2.440038144281     0.704946066311     0.397179449162    15.994914619570
         C           -0.170417544281    -0.216904533689     0.016932449162    12.000000000000
         C            0.595773455719     0.962027466311    -0.055924550838    12.000000000000
         C            0.486041455719    -1.453899533689     0.093599449162    12.000000000000
         C            1.992800455719     0.877196466311    -0.054815550838    12.000000000000
         C            1.875827455719    -1.530949533689     0.102749449162    12.000000000000
         C            2.629553455719    -0.358391533689     0.031241449162    12.000000000000
         C           -1.654182544281    -0.161737533689     0.056523449162    12.000000000000
         H           -0.113604544281    -2.356904533689     0.145030449162     1.007825032230
         H            2.582684455719     1.791014466311    -0.117163550838     1.007825032230
         H            2.367389455719    -2.497321533689     0.169844449162     1.007825032230
         H            3.716033455719    -0.400850533689     0.035480449162     1.007825032230
         H            0.625859455719     2.858877466311    -0.237050550838     1.007825032230
         H           -3.171646544281    -1.210077533689    -0.263044550838     1.007825032230

  Basis Set: AUG-CC-PVTZ
    Blend: AUG-CC-PVTZ
  Basis Set: (AUG-CC-PVTZ AUX)
    Blend: AUG-CC-PVTZ-JKFIT
	 Reference Energy          =    -493.3517525669531096 [Eh]
	 Singles Energy            =      -0.0000000000000000 [Eh]
	 Same-Spin Energy          =      -0.5049758464350451 [Eh]
	 Opposite-Spin Energy      =      -1.5037830155076142 [Eh]
	 Correlation Energy        =      -2.0087588619426593 [Eh]
	 Total Energy              =    -495.3605114288957907 [Eh]

	 ================> DF-SCS-MP2 Energies <==================
	-----------------------------------------------------------
	 SCS Same-Spin Scale       =       0.3333333333333333 [-]
	 SCS Opposite-Spin Scale   =       1.2000000000000000 [-]
	 SCS Same-Spin Energy      =      -0.1683252821450150 [Eh]
	 SCS Opposite-Spin Energy  =      -1.8045396186091369 [Eh]
	 SCS Correlation Energy    =      -1.9728649007541519 [Eh]
	 SCS Total Energy          =    -495.3246174677072418 [Eh]
	-----------------------------------------------------------

  Dipole Moment: [D]
     X:     3.0802      Y:    -0.3378      Z:    -0.4123     Total:     3.1259

*** Psi4 exiting successfully. Buy a developer a beer!
