                               Psi4 1.4a3.dev225

  ==> Input File <==

--------------------------------------------------------------------------
#psi4
#
memory 32 gb

molecule  {
0 1
  O       -0.1026610     2.1662260    -0.1575610
  O       -2.2584930    -1.3355120    -0.3678820
  O       -2.3910220     0.7817980     0.4224010
  C       -0.2229580    -0.2124560     0.0160270
  C        0.5196428     1.0103567    -0.0607619
  C        0.4334420    -1.4495130     0.0922690
  C        1.9403100     0.8815900    -0.0555280
  C        1.8232300    -1.5265840     0.1016960
  C        2.5770020    -0.3540720     0.0300640
  C       -1.7067020    -0.1572630     0.0555130
  H       -0.1662180    -2.3524950     0.1438230
  H        2.5302810     1.7953260    -0.1182260
  H        2.3147800    -2.4929990     0.1682820
  H        3.6634790    -0.3965710     0.0346780
  H        0.5735000     2.8633950    -0.2378390
  H       -3.2240480    -1.2056750    -0.2641070
units angstrom
no_reorient  #important for SAPT in psi4, default
symmetry c1  #important for SAPT in psi4, default
}

set PROPERTIES_ORIGIN ["COM"]
properties('MP2/aug-cc-pvtz', properties = ['dipole'])
--------------------------------------------------------------------------

    Molecular point group: c1
  Charge       = 0
  Multiplicity = 1
  Basis Set: AUG-CC-PVTZ
    Blend: AUG-CC-PVTZ
  Basis Set: (AUG-CC-PVTZ AUX)
    Blend: AUG-CC-PVTZ-JKFIT

    Orbital Energies [Eh]
    ---------------------

    Doubly Occupied:

       1A    -20.613727     2A    -20.608063     3A    -20.541314
       4A    -11.386973     5A    -11.336946     6A    -11.264474
       7A    -11.261573     8A    -11.255513     9A    -11.249811
      10A    -11.239480    11A     -1.453514    12A     -1.443126
      13A     -1.347415    14A     -1.160971    15A     -1.051079
      16A     -1.018324    17A     -0.895167    18A     -0.865384
      19A     -0.799819    20A     -0.756028    21A     -0.709406
      22A     -0.697185    23A     -0.680275    24A     -0.643904
      25A     -0.627832    26A     -0.623633    27A     -0.607788
      28A     -0.586602    29A     -0.581815    30A     -0.538538
      31A     -0.516712    32A     -0.496876    33A     -0.475590
      34A     -0.444638    35A     -0.359909    36A     -0.324650

  @DF-RHF Final Energy:  -493.35128126785787

   => Energetics <=

    Nuclear Repulsion Energy =            498.8337111618082531
    One-Electron Energy =               -1663.4418781365488940
    Two-Electron Energy =                 671.2568857068828265
    Total Energy =                       -493.3512812678578712
  Basis Set: (AUG-CC-PVTZ AUX)
    Blend: AUG-CC-PVTZ-RI
    Molecular point group: c1

    Geometry (in Angstrom), charge = 0, multiplicity = 1:

       Center              X                  Y                   Z               Mass
    ------------   -----------------  -----------------  -----------------  -----------------
         O           -0.059868397165     2.149608961084    -0.159210425022    15.994914619570
         O           -2.215700397165    -1.352129038916    -0.369531425022    15.994914619570
         O           -2.348229397165     0.765180961084     0.420751574978    15.994914619570
         C           -0.180165397165    -0.229073038916     0.014377574978    12.000000000000
         C            0.562435402835     0.993739661084    -0.062411325022    12.000000000000
         C            0.476234602835    -1.466130038916     0.090619574978    12.000000000000
         C            1.983102602835     0.864972961084    -0.057177425022    12.000000000000
         C            1.866022602835    -1.543201038916     0.100046574978    12.000000000000
         C            2.619794602835    -0.370689038916     0.028414574978    12.000000000000
         C           -1.663909397165    -0.173880038916     0.053863574978    12.000000000000
         H           -0.123425397165    -2.369112038916     0.142173574978     1.007825032230
         H            2.573073602835     1.778708961084    -0.119875425022     1.007825032230
         H            2.357572602835    -2.509616038916     0.166632574978     1.007825032230
         H            3.706271602835    -0.413188038916     0.033028574978     1.007825032230
         H            0.616292602835     2.846777961084    -0.239488425022     1.007825032230
         H           -3.181255397165    -1.222292038916    -0.265756425022     1.007825032230

  Basis Set: AUG-CC-PVTZ
    Blend: AUG-CC-PVTZ
  Basis Set: (AUG-CC-PVTZ AUX)
    Blend: AUG-CC-PVTZ-JKFIT
	 Reference Energy          =    -493.3512812678578712 [Eh]
	 Singles Energy            =      -0.0000000000000000 [Eh]
	 Same-Spin Energy          =      -0.5053608930205362 [Eh]
	 Opposite-Spin Energy      =      -1.5038308913461114 [Eh]
	 Correlation Energy        =      -2.0091917843666476 [Eh]
	 Total Energy              =    -495.3604730522245063 [Eh]

	 ================> DF-SCS-MP2 Energies <==================
	-----------------------------------------------------------
	 SCS Same-Spin Scale       =       0.3333333333333333 [-]
	 SCS Opposite-Spin Scale   =       1.2000000000000000 [-]
	 SCS Same-Spin Energy      =      -0.1684536310068454 [Eh]
	 SCS Opposite-Spin Energy  =      -1.8045970696153335 [Eh]
	 SCS Correlation Energy    =      -1.9730507006221789 [Eh]
	 SCS Total Energy          =    -495.3243319684800667 [Eh]
	-----------------------------------------------------------

  Dipole Moment: [D]
     X:     2.5548      Y:    -0.1492      Z:    -0.4922     Total:     2.6061

*** Psi4 exiting successfully. Buy a developer a beer!
