                               Psi4 1.3.2 release

  ==> Input File <==

--------------------------------------------------------------------------
#psi4
#
memory 32 gb

molecule  {
0 1
  O       -0.1027990     2.1661630    -0.1573240
  O       -2.2585870    -1.3354710    -0.3679860
  O       -2.3909180     0.7817600     0.4224630
  C       -0.2229310    -0.2124960     0.0158460
  C        0.5221566     0.9554340    -0.0555121
  C        0.4335280    -1.4494910     0.0925130
  C        1.9402870     0.8816050    -0.0559020
  C        1.8233140    -1.5265410     0.1016630
  C        2.5770400    -0.3539830     0.0301550
  C       -1.7066960    -0.1573290     0.0554370
  H       -0.1661180    -2.3524960     0.1439440
  H        2.5301710     1.7954230    -0.1182500
  H        2.3148760    -2.4929130     0.1687580
  H        3.6635200    -0.3964420     0.0343940
  H        0.5733460     2.8632860    -0.2381370
  H       -3.2241600    -1.2056690    -0.2641310
units angstrom
no_reorient  #important for SAPT in psi4, default
symmetry c1  #important for SAPT in psi4, default
}

set PROPERTIES_ORIGIN ["COM"]
properties('MP2/aug-cc-pvtz', properties = ['dipole'])
--------------------------------------------------------------------------

    Molecular point group: c1
  Charge       = 0
  Multiplicity = 1
  Basis Set: AUG-CC-PVTZ
    Blend: AUG-CC-PVTZ
  Basis Set: (AUG-CC-PVTZ AUX)
    Blend: AUG-CC-PVTZ-JKFIT

    Orbital Energies [Eh]
    ---------------------

    Doubly Occupied:

       1A    -20.610052     2A    -20.602051     3A    -20.543079
       4A    -11.389436     5A    -11.331369     6A    -11.265005
       7A    -11.262746     8A    -11.254833     9A    -11.251971
      10A    -11.242511    11A     -1.453910    12A     -1.414441
      13A     -1.348778    14A     -1.167822    15A     -1.056496
      16A     -1.021183    17A     -0.896889    18A     -0.863801
      19A     -0.800317    20A     -0.746906    21A     -0.709026
      22A     -0.697739    23A     -0.675495    24A     -0.646608
      25A     -0.625422    26A     -0.624171    27A     -0.595830
      28A     -0.588158    29A     -0.579860    30A     -0.535004
      31A     -0.524872    32A     -0.498437    33A     -0.476721
      34A     -0.446476    35A     -0.362386    36A     -0.331556

  @DF-RHF Final Energy:  -493.35329496490272

   => Energetics <=

    Nuclear Repulsion Energy =            499.1362160172429299
    One-Electron Energy =               -1664.0963035365218730
    Two-Electron Energy =                 671.6067925543761703
    Total Energy =                       -493.3532949649027159
  Basis Set: (AUG-CC-PVTZ AUX)
    Blend: AUG-CC-PVTZ-RI
    Molecular point group: c1

    Geometry (in Angstrom), charge = 0, multiplicity = 1:

       Center              X                  Y                   Z               Mass
    ------------   -----------------  -----------------  -----------------  -----------------
         O           -0.060228043096     2.154320708448    -0.159423577797    15.994914619570
         O           -2.216016043096    -1.347313291552    -0.370085577797    15.994914619570
         O           -2.348347043096     0.769917708448     0.420363422203    15.994914619570
         C           -0.180360043096    -0.224338291552     0.013746422203    12.000000000000
         C            0.564727556904     0.943591708448    -0.057611677797    12.000000000000
         C            0.476098956904    -1.461333291552     0.090413422203    12.000000000000
         C            1.982857956904     0.869762708448    -0.058001577797    12.000000000000
         C            1.865884956904    -1.538383291552     0.099563422203    12.000000000000
         C            2.619610956904    -0.365825291552     0.028055422203    12.000000000000
         C           -1.664125043096    -0.169171291552     0.053337422203    12.000000000000
         H           -0.123547043096    -2.364338291552     0.141844422203     1.007825032230
         H            2.572741956904     1.783580708448    -0.120349577797     1.007825032230
         H            2.357446956904    -2.504755291552     0.166658422203     1.007825032230
         H            3.706090956904    -0.408284291552     0.032294422203     1.007825032230
         H            0.615916956904     2.851443708448    -0.240236577797     1.007825032230
         H           -3.181589043096    -1.217511291552    -0.266230577797     1.007825032230

  Basis Set: AUG-CC-PVTZ
    Blend: AUG-CC-PVTZ
  Basis Set: (AUG-CC-PVTZ AUX)
    Blend: AUG-CC-PVTZ-JKFIT
	 Reference Energy          =    -493.3532949649027159 [Eh]
	 Singles Energy            =      -0.0000000000000000 [Eh]
	 Same-Spin Energy          =      -0.5052607772544895 [Eh]
	 Opposite-Spin Energy      =      -1.5043541840760761 [Eh]
	 Correlation Energy        =      -2.0096149613305654 [Eh]
	 Total Energy              =    -495.3629099262332716 [Eh]

	 ================> DF-SCS-MP2 Energies <==================
	-----------------------------------------------------------
	 SCS Same-Spin Scale       =       0.3333333333333333 [-]
	 SCS Opposite-Spin Scale   =       1.2000000000000000 [-]
	 SCS Same-Spin Energy      =      -0.1684202590848298 [Eh]
	 SCS Opposite-Spin Energy  =      -1.8052250208912912 [Eh]
	 SCS Correlation Energy    =      -1.9736452799761210 [Eh]
	 SCS Total Energy          =    -495.3269402448788128 [Eh]
	-----------------------------------------------------------

  Dipole Moment: [D]
     X:     2.6455      Y:    -0.4744      Z:    -0.4614     Total:     2.7270

*** Psi4 exiting successfully. Buy a developer a beer!
