                               Psi4 1.3.2 release

  ==> Input File <==

--------------------------------------------------------------------------
#psi4
#
memory 32 gb

molecule  {
0 1
  O       -0.1027990     2.1661630    -0.1573240
  O       -2.2585870    -1.3354710    -0.3679860
  O       -2.4256856     0.7587312     0.4141064
  C       -0.2229310    -0.2124960     0.0158460
  C        0.5432600     0.9664360    -0.0570110
  C        0.4335280    -1.4494910     0.0925130
  C        1.9402870     0.8816050    -0.0559020
  C        1.8233140    -1.5265410     0.1016630
  C        2.5770400    -0.3539830     0.0301550
  C       -1.7066960    -0.1573290     0.0554370
  H       -0.1661180    -2.3524960     0.1439440
  H        2.5301710     1.7954230    -0.1182500
  H        2.3148760    -2.4929130     0.1687580
  H        3.6635200    -0.3964420     0.0343940
  H        0.5733460     2.8632860    -0.2381370
  H       -3.2241600    -1.2056690    -0.2641310
units angstrom
no_reorient  #important for SAPT in psi4, default
symmetry c1  #important for SAPT in psi4, default
}

set PROPERTIES_ORIGIN ["COM"]
properties('MP2/aug-cc-pvtz', properties = ['dipole'])
--------------------------------------------------------------------------

    Molecular point group: c1
  Charge       = 0
  Multiplicity = 1
  Basis Set: AUG-CC-PVTZ
    Blend: AUG-CC-PVTZ
  Basis Set: (AUG-CC-PVTZ AUX)
    Blend: AUG-CC-PVTZ-JKFIT

    Orbital Energies [Eh]
    ---------------------

    Doubly Occupied:

       1A    -20.606229     2A    -20.603973     3A    -20.541922
       4A    -11.389002     5A    -11.332230     6A    -11.266737
       7A    -11.264148     8A    -11.258288     9A    -11.250745
      10A    -11.243458    11A     -1.453402    12A     -1.416384
      13A     -1.345113    14A     -1.168570    15A     -1.056292
      16A     -1.023982    17A     -0.898407    18A     -0.862640
      19A     -0.801120    20A     -0.746733    21A     -0.708682
      22A     -0.696968    23A     -0.676333    24A     -0.644292
      25A     -0.625466    26A     -0.623607    27A     -0.597001
      28A     -0.589205    29A     -0.581371    30A     -0.537328
      31A     -0.524445    32A     -0.499196    33A     -0.474857
      34A     -0.446573    35A     -0.363019    36A     -0.333107

  @DF-RHF Final Energy:  -493.35385705791469

   => Energetics <=

    Nuclear Repulsion Energy =            498.6475872504593099
    One-Electron Energy =               -1663.1012292663920107
    Two-Electron Energy =                 671.0997849580179491
    Total Energy =                       -493.3538570579147517
  Basis Set: (AUG-CC-PVTZ AUX)
    Blend: AUG-CC-PVTZ-RI
    Molecular point group: c1

    Geometry (in Angstrom), charge = 0, multiplicity = 1:

       Center              X                  Y                   Z               Mass
    ------------   -----------------  -----------------  -----------------  -----------------
         O           -0.058033880403     2.156032776762    -0.158324917779    15.994914619570
         O           -2.213821880403    -1.345601223238    -0.368986917779    15.994914619570
         O           -2.380920480403     0.748600976762     0.413105482221    15.994914619570
         C           -0.178165880403    -0.222626223238     0.014845082221    12.000000000000
         C            0.588025119597     0.956305776762    -0.058011917779    12.000000000000
         C            0.478293119597    -1.459621223238     0.091512082221    12.000000000000
         C            1.985052119597     0.871474776762    -0.056902917779    12.000000000000
         C            1.868079119597    -1.536671223238     0.100662082221    12.000000000000
         C            2.621805119597    -0.364113223238     0.029154082221    12.000000000000
         C           -1.661930880403    -0.167459223238     0.054436082221    12.000000000000
         H           -0.121352880403    -2.362626223238     0.142943082221     1.007825032230
         H            2.574936119597     1.785292776762    -0.119250917779     1.007825032230
         H            2.359641119597    -2.503043223238     0.167757082221     1.007825032230
         H            3.708285119597    -0.406572223238     0.033393082221     1.007825032230
         H            0.618111119597     2.853155776762    -0.239137917779     1.007825032230
         H           -3.179394880403    -1.215799223238    -0.265131917779     1.007825032230

  Basis Set: AUG-CC-PVTZ
    Blend: AUG-CC-PVTZ
  Basis Set: (AUG-CC-PVTZ AUX)
    Blend: AUG-CC-PVTZ-JKFIT
	 Reference Energy          =    -493.3538570579146949 [Eh]
	 Singles Energy            =      -0.0000000000000000 [Eh]
	 Same-Spin Energy          =      -0.5051945640365885 [Eh]
	 Opposite-Spin Energy      =      -1.5041639478046203 [Eh]
	 Correlation Energy        =      -2.0093585118412087 [Eh]
	 Total Energy              =    -495.3632155697558801 [Eh]

	 ================> DF-SCS-MP2 Energies <==================
	-----------------------------------------------------------
	 SCS Same-Spin Scale       =       0.3333333333333333 [-]
	 SCS Opposite-Spin Scale   =       1.2000000000000000 [-]
	 SCS Same-Spin Energy      =      -0.1683981880121961 [Eh]
	 SCS Opposite-Spin Energy  =      -1.8049967373655442 [Eh]
	 SCS Correlation Energy    =      -1.9733949253777403 [Eh]
	 SCS Total Energy          =    -495.3272519832924559 [Eh]
	-----------------------------------------------------------

  Dipole Moment: [D]
     X:     2.7987      Y:    -0.4300      Z:    -0.4470     Total:     2.8666

*** Psi4 exiting successfully. Buy a developer a beer!
