                               Psi4 1.3.2 release

  ==> Input File <==

--------------------------------------------------------------------------
#psi4
#
memory 32 gb

molecule  {
0 1
  O       -0.1027990     2.1661630    -0.1573240
  O       -2.2585870    -1.3354710    -0.3679860
  O       -2.3909180     0.7817600     0.4224630
  C       -0.2229310    -0.2124960     0.0158460
  C        0.5432600     0.9664360    -0.0570110
  C        0.4763574    -1.4259849     0.0894208
  C        1.9402870     0.8816050    -0.0559020
  C        1.8233140    -1.5265410     0.1016630
  C        2.5770400    -0.3539830     0.0301550
  C       -1.7066960    -0.1573290     0.0554370
  H       -0.1661180    -2.3524960     0.1439440
  H        2.5301710     1.7954230    -0.1182500
  H        2.3148760    -2.4929130     0.1687580
  H        3.6635200    -0.3964420     0.0343940
  H        0.5733460     2.8632860    -0.2381370
  H       -3.2241600    -1.2056690    -0.2641310
units angstrom
no_reorient  #important for SAPT in psi4, default
symmetry c1  #important for SAPT in psi4, default
}

set PROPERTIES_ORIGIN ["COM"]
properties('MP2/aug-cc-pvtz', properties = ['dipole'])
--------------------------------------------------------------------------

    Molecular point group: c1
  Charge       = 0
  Multiplicity = 1
  Basis Set: AUG-CC-PVTZ
    Blend: AUG-CC-PVTZ
  Basis Set: (AUG-CC-PVTZ AUX)
    Blend: AUG-CC-PVTZ-JKFIT

    Orbital Energies [Eh]
    ---------------------

    Doubly Occupied:

       1A    -20.609602     2A    -20.602827     3A    -20.542962
       4A    -11.390134     5A    -11.331143     6A    -11.266600
       7A    -11.260605     8A    -11.255154     9A    -11.249852
      10A    -11.237908    11A     -1.453402    12A     -1.415346
      13A     -1.348465    14A     -1.171868    15A     -1.053753
      16A     -1.027873    17A     -0.899444    18A     -0.858268
      19A     -0.803738    20A     -0.742526    21A     -0.709794
      22A     -0.698617    23A     -0.678780    24A     -0.644327
      25A     -0.624475    26A     -0.617644    27A     -0.596424
      28A     -0.590422    29A     -0.581311    30A     -0.539524
      31A     -0.514131    32A     -0.501821    33A     -0.476541
      34A     -0.447819    35A     -0.361330    36A     -0.335562

  @DF-RHF Final Energy:  -493.35101447033196

   => Energetics <=

    Nuclear Repulsion Energy =            499.4476377005789232
    One-Electron Energy =               -1664.7173173295477682
    Two-Electron Energy =                 671.9186651586368271
    Total Energy =                       -493.3510144703319611
  Basis Set: (AUG-CC-PVTZ AUX)
    Blend: AUG-CC-PVTZ-RI
    Molecular point group: c1

    Geometry (in Angstrom), charge = 0, multiplicity = 1:

       Center              X                  Y                   Z               Mass
    ------------   -----------------  -----------------  -----------------  -----------------
         O           -0.065786140497     2.151320693105    -0.159024443378    15.994914619570
         O           -2.221574140497    -1.350313306895    -0.369686443378    15.994914619570
         O           -2.353905140497     0.766917693105     0.420762556622    15.994914619570
         C           -0.185918140497    -0.227338306895     0.014145556622    12.000000000000
         C            0.580272859503     0.951593693105    -0.058711443378    12.000000000000
         C            0.513370259503    -1.440827206895     0.087720356622    12.000000000000
         C            1.977299859503     0.866762693105    -0.057602443378    12.000000000000
         C            1.860326859503    -1.541383306895     0.099962556622    12.000000000000
         C            2.614052859503    -0.368825306895     0.028454556622    12.000000000000
         C           -1.669683140497    -0.172171306895     0.053736556622    12.000000000000
         H           -0.129105140497    -2.367338306895     0.142243556622     1.007825032230
         H            2.567183859503     1.780580693105    -0.119950443378     1.007825032230
         H            2.351888859503    -2.507755306895     0.167057556622     1.007825032230
         H            3.700532859503    -0.411284306895     0.032693556622     1.007825032230
         H            0.610358859503     2.848443693105    -0.239837443378     1.007825032230
         H           -3.187147140497    -1.220511306895    -0.265831443378     1.007825032230

  Basis Set: AUG-CC-PVTZ
    Blend: AUG-CC-PVTZ
  Basis Set: (AUG-CC-PVTZ AUX)
    Blend: AUG-CC-PVTZ-JKFIT
	 Reference Energy          =    -493.3510144703319611 [Eh]
	 Singles Energy            =      -0.0000000000000000 [Eh]
	 Same-Spin Energy          =      -0.5053885920866961 [Eh]
	 Opposite-Spin Energy      =      -1.5043785745210636 [Eh]
	 Correlation Energy        =      -2.0097671666077597 [Eh]
	 Total Energy              =    -495.3607816369397483 [Eh]

	 ================> DF-SCS-MP2 Energies <==================
	-----------------------------------------------------------
	 SCS Same-Spin Scale       =       0.3333333333333333 [-]
	 SCS Opposite-Spin Scale   =       1.2000000000000000 [-]
	 SCS Same-Spin Energy      =      -0.1684628640288987 [Eh]
	 SCS Opposite-Spin Energy  =      -1.8052542894252763 [Eh]
	 SCS Correlation Energy    =      -1.9737171534541751 [Eh]
	 SCS Total Energy          =    -495.3247316237861355 [Eh]
	-----------------------------------------------------------

  Dipole Moment: [D]
     X:     2.6666      Y:    -0.4514      Z:    -0.4611     Total:     2.7435

*** Psi4 exiting successfully. Buy a developer a beer!
