                               Psi4 1.3.2 release

  ==> Input File <==

--------------------------------------------------------------------------
#psi4
#
memory 32 gb

molecule  {
0 1
  O       -0.1027990     2.1661630    -0.1573240
  O       -2.2585870    -1.3354710    -0.3679860
  O       -2.3189253     0.8243586     0.4378251
  C       -0.2229310    -0.2124960     0.0158460
  C        0.5432600     0.9664360    -0.0570110
  C        0.4335280    -1.4494910     0.0925130
  C        1.9402870     0.8816050    -0.0559020
  C        1.8233140    -1.5265410     0.1016630
  C        2.5770400    -0.3539830     0.0301550
  C       -1.7066960    -0.1573290     0.0554370
  H       -0.1661180    -2.3524960     0.1439440
  H        2.5301710     1.7954230    -0.1182500
  H        2.3148760    -2.4929130     0.1687580
  H        3.6635200    -0.3964420     0.0343940
  H        0.5733460     2.8632860    -0.2381370
  H       -3.2241600    -1.2056690    -0.2641310
units angstrom
no_reorient  #important for SAPT in psi4, default
symmetry c1  #important for SAPT in psi4, default
}

set PROPERTIES_ORIGIN ["COM"]
properties('MP2/aug-cc-pvtz', properties = ['dipole'])
--------------------------------------------------------------------------

    Molecular point group: c1
  Charge       = 0
  Multiplicity = 1
  Basis Set: AUG-CC-PVTZ
    Blend: AUG-CC-PVTZ
  Basis Set: (AUG-CC-PVTZ AUX)
    Blend: AUG-CC-PVTZ-JKFIT

    Orbital Energies [Eh]
    ---------------------

    Doubly Occupied:

       1A    -20.616670     2A    -20.600027     3A    -20.544161
       4A    -11.390004     5A    -11.328477     6A    -11.263443
       7A    -11.260344     8A    -11.253100     9A    -11.248061
      10A    -11.240719    11A     -1.454354    12A     -1.412886
      13A     -1.354646    14A     -1.165117    15A     -1.052507
      16A     -1.020815    17A     -0.896654    18A     -0.859964
      19A     -0.801425    20A     -0.744276    21A     -0.709791
      22A     -0.699291    23A     -0.675330    24A     -0.643857
      25A     -0.626333    26A     -0.622424    27A     -0.594599
      28A     -0.588720    29A     -0.577691    30A     -0.536552
      31A     -0.521674    32A     -0.497203    33A     -0.479317
      34A     -0.445765    35A     -0.359342    36A     -0.329774

  @DF-RHF Final Energy:  -493.35153219168734

   => Energetics <=

    Nuclear Repulsion Energy =            499.7092528925878696
    One-Electron Energy =               -1665.2909475956851111
    Two-Electron Energy =                 672.2301625114098442
    Total Energy =                       -493.3515321916872836
  Basis Set: (AUG-CC-PVTZ AUX)
    Blend: AUG-CC-PVTZ-RI
    Molecular point group: c1

    Geometry (in Angstrom), charge = 0, multiplicity = 1:

       Center              X                  Y                   Z               Mass
    ------------   -----------------  -----------------  -----------------  -----------------
         O           -0.070405110757     2.148427967831    -0.161073406697    15.994914619570
         O           -2.226193110757    -1.353206032169    -0.371735406697    15.994914619570
         O           -2.286531410757     0.806623567831     0.434075693303    15.994914619570
         C           -0.190537110757    -0.230231032169     0.012096593303    12.000000000000
         C            0.575653889243     0.948700967831    -0.060760406697    12.000000000000
         C            0.465921889243    -1.467226032169     0.088763593303    12.000000000000
         C            1.972680889243     0.863869967831    -0.059651406697    12.000000000000
         C            1.855707889243    -1.544276032169     0.097913593303    12.000000000000
         C            2.609433889243    -0.371718032169     0.026405593303    12.000000000000
         C           -1.674302110757    -0.175064032169     0.051687593303    12.000000000000
         H           -0.133724110757    -2.370231032169     0.140194593303     1.007825032230
         H            2.562564889243     1.777687967831    -0.121999406697     1.007825032230
         H            2.347269889243    -2.510648032169     0.165008593303     1.007825032230
         H            3.695913889243    -0.414177032169     0.030644593303     1.007825032230
         H            0.605739889243     2.845550967831    -0.241886406697     1.007825032230
         H           -3.191766110757    -1.223404032169    -0.267880406697     1.007825032230

  Basis Set: AUG-CC-PVTZ
    Blend: AUG-CC-PVTZ
  Basis Set: (AUG-CC-PVTZ AUX)
    Blend: AUG-CC-PVTZ-JKFIT
	 Reference Energy          =    -493.3515321916873404 [Eh]
	 Singles Energy            =      -0.0000000000000000 [Eh]
	 Same-Spin Energy          =      -0.5057521438740433 [Eh]
	 Opposite-Spin Energy      =      -1.5051268689020816 [Eh]
	 Correlation Energy        =      -2.0108790127761251 [Eh]
	 Total Energy              =    -495.3624112044634558 [Eh]

	 ================> DF-SCS-MP2 Energies <==================
	-----------------------------------------------------------
	 SCS Same-Spin Scale       =       0.3333333333333333 [-]
	 SCS Opposite-Spin Scale   =       1.2000000000000000 [-]
	 SCS Same-Spin Energy      =      -0.1685840479580144 [Eh]
	 SCS Opposite-Spin Energy  =      -1.8061522426824979 [Eh]
	 SCS Correlation Energy    =      -1.9747362906405124 [Eh]
	 SCS Total Energy          =    -495.3262684823278619 [Eh]
	-----------------------------------------------------------

  Dipole Moment: [D]
     X:     2.3584      Y:    -0.5452      Z:    -0.4893     Total:     2.4696

*** Psi4 exiting successfully. Buy a developer a beer!
