                               Psi4 1.3.2 release

  ==> Input File <==

--------------------------------------------------------------------------
#psi4
#
memory 32 gb

molecule  {
0 1
  O       -0.1027990     2.1661630    -0.1573240
  O       -2.2585870    -1.3354710    -0.3679860
  O       -2.3909180     0.7817600     0.4224630
  C       -0.2229310    -0.2124960     0.0158460
  C        0.5432600     0.9664360    -0.0570110
  C        0.4335280    -1.4494910     0.0925130
  C        1.9402870     0.8816050    -0.0559020
  C        1.8233140    -1.5265410     0.1016630
  C        2.5770400    -0.3539830     0.0301550
  C       -1.8065914    -0.1536148     0.0581025
  H       -0.1661180    -2.3524960     0.1439440
  H        2.5301710     1.7954230    -0.1182500
  H        2.3148760    -2.4929130     0.1687580
  H        3.6635200    -0.3964420     0.0343940
  H        0.5733460     2.8632860    -0.2381370
  H       -3.2241600    -1.2056690    -0.2641310
units angstrom
no_reorient  #important for SAPT in psi4, default
symmetry c1  #important for SAPT in psi4, default
}

set PROPERTIES_ORIGIN ["COM"]
properties('MP2/aug-cc-pvtz', properties = ['dipole'])
--------------------------------------------------------------------------

    Molecular point group: c1
  Charge       = 0
  Multiplicity = 1
  Basis Set: AUG-CC-PVTZ
    Blend: AUG-CC-PVTZ
  Basis Set: (AUG-CC-PVTZ AUX)
    Blend: AUG-CC-PVTZ-JKFIT

    Orbital Energies [Eh]
    ---------------------

    Doubly Occupied:

       1A    -20.622767     2A    -20.597018     3A    -20.553079
       4A    -11.389446     5A    -11.321283     6A    -11.256717
       7A    -11.254085     8A    -11.252691     9A    -11.243888
      10A    -11.236604    11A     -1.485074    12A     -1.410219
      13A     -1.391387    14A     -1.157725    15A     -1.038674
      16A     -1.014965    17A     -0.883673    18A     -0.854093
      19A     -0.801945    20A     -0.742515    21A     -0.714736
      22A     -0.706249    23A     -0.673678    24A     -0.651827
      25A     -0.642327    26A     -0.617638    27A     -0.594178
      28A     -0.586665    29A     -0.578149    30A     -0.536928
      31A     -0.518633    32A     -0.500937    33A     -0.490059
      34A     -0.442507    35A     -0.353888    36A     -0.325032

  @DF-RHF Final Energy:  -493.34702164031734

   => Energetics <=

    Nuclear Repulsion Energy =            498.6094271027826608
    One-Electron Energy =               -1663.0303379098704681
    Two-Electron Energy =                 671.0738891667704138
    Total Energy =                       -493.3470216403172799
  Basis Set: (AUG-CC-PVTZ AUX)
    Blend: AUG-CC-PVTZ-RI
    Molecular point group: c1

    Geometry (in Angstrom), charge = 0, multiplicity = 1:

       Center              X                  Y                   Z               Mass
    ------------   -----------------  -----------------  -----------------  -----------------
         O           -0.053378138032     2.153041332713    -0.159524997983    15.994914619570
         O           -2.209166138032    -1.348592667287    -0.370186997983    15.994914619570
         O           -2.341497138032     0.768638332713     0.420262002017    15.994914619570
         C           -0.173510138032    -0.225617667287     0.013645002017    12.000000000000
         C            0.592680861968     0.953314332713    -0.059211997983    12.000000000000
         C            0.482948861968    -1.462612667287     0.090312002017    12.000000000000
         C            1.989707861968     0.868483332713    -0.058102997983    12.000000000000
         C            1.872734861968    -1.539662667287     0.099462002017    12.000000000000
         C            2.626460861968    -0.367104667287     0.027954002017    12.000000000000
         C           -1.757170538032    -0.166736467287     0.055901502017    12.000000000000
         H           -0.116697138032    -2.365617667287     0.141743002017     1.007825032230
         H            2.579591861968     1.782301332713    -0.120450997983     1.007825032230
         H            2.364296861968    -2.506034667287     0.166557002017     1.007825032230
         H            3.712940861968    -0.409563667287     0.032193002017     1.007825032230
         H            0.622766861968     2.850164332713    -0.240337997983     1.007825032230
         H           -3.174739138032    -1.218790667287    -0.266331997983     1.007825032230

  Basis Set: AUG-CC-PVTZ
    Blend: AUG-CC-PVTZ
  Basis Set: (AUG-CC-PVTZ AUX)
    Blend: AUG-CC-PVTZ-JKFIT
	 Reference Energy          =    -493.3470216403173367 [Eh]
	 Singles Energy            =      -0.0000000000000000 [Eh]
	 Same-Spin Energy          =      -0.5040813391792296 [Eh]
	 Opposite-Spin Energy      =      -1.5014903654718219 [Eh]
	 Correlation Energy        =      -2.0055717046510515 [Eh]
	 Total Energy              =    -495.3525933449683976 [Eh]

	 ================> DF-SCS-MP2 Energies <==================
	-----------------------------------------------------------
	 SCS Same-Spin Scale       =       0.3333333333333333 [-]
	 SCS Opposite-Spin Scale   =       1.2000000000000000 [-]
	 SCS Same-Spin Energy      =      -0.1680271130597432 [Eh]
	 SCS Opposite-Spin Energy  =      -1.8017884385661862 [Eh]
	 SCS Correlation Energy    =      -1.9698155516259295 [Eh]
	 SCS Total Energy          =    -495.3168371919432502 [Eh]
	-----------------------------------------------------------

  Dipole Moment: [D]
     X:     1.7375      Y:    -0.5084      Z:    -0.4495     Total:     1.8653

*** Psi4 exiting successfully. Buy a developer a beer!
