                               Psi4 1.3.2 release

  ==> Input File <==

--------------------------------------------------------------------------
#psi4
#
memory 32 gb

molecule  {
0 1
  O       -0.1027990     2.1661630    -0.1573240
  O       -2.2585870    -1.3354710    -0.3679860
  O       -2.3909180     0.7817600     0.4224630
  C       -0.2229310    -0.2124960     0.0158460
  C        0.5432600     0.9664360    -0.0570110
  C        0.3004546    -1.5108613     0.1012148
  C        1.9402870     0.8816050    -0.0559020
  C        1.8233140    -1.5265410     0.1016630
  C        2.5770400    -0.3539830     0.0301550
  C       -1.7066960    -0.1573290     0.0554370
  H       -0.1661180    -2.3524960     0.1439440
  H        2.5301710     1.7954230    -0.1182500
  H        2.3148760    -2.4929130     0.1687580
  H        3.6635200    -0.3964420     0.0343940
  H        0.5733460     2.8632860    -0.2381370
  H       -3.2241600    -1.2056690    -0.2641310
units angstrom
no_reorient  #important for SAPT in psi4, default
symmetry c1  #important for SAPT in psi4, default
}

set PROPERTIES_ORIGIN ["COM"]
properties('MP2/aug-cc-pvtz', properties = ['dipole'])
--------------------------------------------------------------------------

    Molecular point group: c1
  Charge       = 0
  Multiplicity = 1
  Basis Set: AUG-CC-PVTZ
    Blend: AUG-CC-PVTZ
  Basis Set: (AUG-CC-PVTZ AUX)
    Blend: AUG-CC-PVTZ-JKFIT

    Orbital Energies [Eh]
    ---------------------

    Doubly Occupied:

       1A    -20.610267     2A    -20.602476     3A    -20.541936
       4A    -11.386981     5A    -11.331070     6A    -11.270359
       7A    -11.263200     8A    -11.262977     9A    -11.255369
      10A    -11.250362    11A     -1.454198    12A     -1.415046
      13A     -1.348357    14A     -1.157902    15A     -1.060267
      16A     -1.011334    17A     -0.894223    18A     -0.873294
      19A     -0.795110    20A     -0.759738    21A     -0.706731
      22A     -0.696824    23A     -0.667870    24A     -0.654037
      25A     -0.642849    26A     -0.624566    27A     -0.596177
      28A     -0.588754    29A     -0.570995    30A     -0.542166
      31A     -0.521747    32A     -0.491328    33A     -0.475372
      34A     -0.441058    35A     -0.365615    36A     -0.321641

  @DF-RHF Final Energy:  -493.32274177519906

   => Energetics <=

    Nuclear Repulsion Energy =            497.8295505632817708
    One-Electron Energy =               -1661.4001943936455064
    Two-Electron Energy =                 670.2479020551645590
    Total Energy =                       -493.3227417751991197
  Basis Set: (AUG-CC-PVTZ AUX)
    Blend: AUG-CC-PVTZ-RI
    Molecular point group: c1

    Geometry (in Angstrom), charge = 0, multiplicity = 1:

       Center              X                  Y                   Z               Mass
    ------------   -----------------  -----------------  -----------------  -----------------
         O           -0.050493757001     2.158699554945    -0.160049773111    15.994914619570
         O           -2.206281757001    -1.342934445055    -0.370711773111    15.994914619570
         O           -2.338612757001     0.774296554945     0.419737226889    15.994914619570
         C           -0.170625757001    -0.219959445055     0.013120226889    12.000000000000
         C            0.595565242999     0.958972554945    -0.059736773111    12.000000000000
         C            0.352759842999    -1.518324745055     0.098489026889    12.000000000000
         C            1.992592242999     0.874141554945    -0.058627773111    12.000000000000
         C            1.875619242999    -1.534004445055     0.098937226889    12.000000000000
         C            2.629345242999    -0.361446445055     0.027429226889    12.000000000000
         C           -1.654390757001    -0.164792445055     0.052711226889    12.000000000000
         H           -0.113812757001    -2.359959445055     0.141218226889     1.007825032230
         H            2.582476242999     1.787959554945    -0.120975773111     1.007825032230
         H            2.367181242999    -2.500376445055     0.166032226889     1.007825032230
         H            3.715825242999    -0.403905445055     0.031668226889     1.007825032230
         H            0.625651242999     2.855822554945    -0.240862773111     1.007825032230
         H           -3.171854757001    -1.213132445055    -0.266856773111     1.007825032230

  Basis Set: AUG-CC-PVTZ
    Blend: AUG-CC-PVTZ
  Basis Set: (AUG-CC-PVTZ AUX)
    Blend: AUG-CC-PVTZ-JKFIT
	 Reference Energy          =    -493.3227417751990629 [Eh]
	 Singles Energy            =      -0.0000000000000000 [Eh]
	 Same-Spin Energy          =      -0.5057342213785397 [Eh]
	 Opposite-Spin Energy      =      -1.5067692672718374 [Eh]
	 Correlation Energy        =      -2.0125034886503772 [Eh]
	 Total Energy              =    -495.3352452638494583 [Eh]

	 ================> DF-SCS-MP2 Energies <==================
	-----------------------------------------------------------
	 SCS Same-Spin Scale       =       0.3333333333333333 [-]
	 SCS Opposite-Spin Scale   =       1.2000000000000000 [-]
	 SCS Same-Spin Energy      =      -0.1685780737928466 [Eh]
	 SCS Opposite-Spin Energy  =      -1.8081231207262047 [Eh]
	 SCS Correlation Energy    =      -1.9767011945190514 [Eh]
	 SCS Total Energy          =    -495.2994429697180863 [Eh]
	-----------------------------------------------------------

  Dipole Moment: [D]
     X:     2.6316      Y:    -0.4825      Z:    -0.4716     Total:     2.7167

*** Psi4 exiting successfully. Buy a developer a beer!
