                               Psi4 1.3.2 release

  ==> Input File <==

--------------------------------------------------------------------------
#psi4
#
memory 32 gb

molecule  {
0 1
  O       -0.1027990     2.1661630    -0.1573240
  O       -2.1699209    -1.3683933    -0.3811810
  O       -2.3909180     0.7817600     0.4224630
  C       -0.2229310    -0.2124960     0.0158460
  C        0.5432600     0.9664360    -0.0570110
  C        0.4335280    -1.4494910     0.0925130
  C        1.9402870     0.8816050    -0.0559020
  C        1.8233140    -1.5265410     0.1016630
  C        2.5770400    -0.3539830     0.0301550
  C       -1.7066960    -0.1573290     0.0554370
  H       -0.1661180    -2.3524960     0.1439440
  H        2.5301710     1.7954230    -0.1182500
  H        2.3148760    -2.4929130     0.1687580
  H        3.6635200    -0.3964420     0.0343940
  H        0.5733460     2.8632860    -0.2381370
  H       -3.2241600    -1.2056690    -0.2641310
units angstrom
no_reorient  #important for SAPT in psi4, default
symmetry c1  #important for SAPT in psi4, default
}

set PROPERTIES_ORIGIN ["COM"]
properties('MP2/aug-cc-pvtz', properties = ['dipole'])
--------------------------------------------------------------------------

    Molecular point group: c1
  Charge       = 0
  Multiplicity = 1
  Basis Set: AUG-CC-PVTZ
    Blend: AUG-CC-PVTZ
  Basis Set: (AUG-CC-PVTZ AUX)
    Blend: AUG-CC-PVTZ-JKFIT

    Orbital Energies [Eh]
    ---------------------

    Doubly Occupied:

       1A    -20.621064     2A    -20.601448     3A    -20.547583
       4A    -11.390255     5A    -11.328357     6A    -11.263714
       7A    -11.260307     8A    -11.252639     9A    -11.248020
      10A    -11.240744    11A     -1.446844    12A     -1.413697
      13A     -1.349330    14A     -1.165018    15A     -1.051887
      16A     -1.021002    17A     -0.891739    18A     -0.858638
      19A     -0.791781    20A     -0.745101    21A     -0.703916
      22A     -0.693240    23A     -0.673100    24A     -0.644065
      25A     -0.626167    26A     -0.621293    27A     -0.594844
      28A     -0.584035    29A     -0.578411    30A     -0.536697
      31A     -0.521935    32A     -0.496379    33A     -0.479631
      34A     -0.447594    35A     -0.359615    36A     -0.330223

  @DF-RHF Final Energy:  -493.33757151092112

   => Energetics <=

    Nuclear Repulsion Energy =            499.4095052532395584
    One-Electron Energy =               -1664.7335259799283449
    Two-Electron Energy =                 671.9864492157677205
    Total Energy =                       -493.3375715109210660
  Basis Set: (AUG-CC-PVTZ AUX)
    Blend: AUG-CC-PVTZ-RI
    Molecular point group: c1

    Geometry (in Angstrom), charge = 0, multiplicity = 1:

       Center              X                  Y                   Z               Mass
    ------------   -----------------  -----------------  -----------------  -----------------
         O           -0.072337200421     2.157179221344    -0.157764250931    15.994914619570
         O           -2.139459100421    -1.377377078656    -0.381621250931    15.994914619570
         O           -2.360456200421     0.772776221344     0.422022749069    15.994914619570
         C           -0.192469200421    -0.221479778656     0.015405749069    12.000000000000
         C            0.573721799579     0.957452221344    -0.057451250931    12.000000000000
         C            0.463989799579    -1.458474778656     0.092072749069    12.000000000000
         C            1.970748799579     0.872621221344    -0.056342250931    12.000000000000
         C            1.853775799579    -1.535524778656     0.101222749069    12.000000000000
         C            2.607501799579    -0.362966778656     0.029714749069    12.000000000000
         C           -1.676234200421    -0.166312778656     0.054996749069    12.000000000000
         H           -0.135656200421    -2.361479778656     0.143503749069     1.007825032230
         H            2.560632799579     1.786439221344    -0.118690250931     1.007825032230
         H            2.345337799579    -2.501896778656     0.168317749069     1.007825032230
         H            3.693981799579    -0.405425778656     0.033953749069     1.007825032230
         H            0.603807799579     2.854302221344    -0.238577250931     1.007825032230
         H           -3.193698200421    -1.214652778656    -0.264571250931     1.007825032230

  Basis Set: AUG-CC-PVTZ
    Blend: AUG-CC-PVTZ
  Basis Set: (AUG-CC-PVTZ AUX)
    Blend: AUG-CC-PVTZ-JKFIT
	 Reference Energy          =    -493.3375715109211228 [Eh]
	 Singles Energy            =      -0.0000000000000000 [Eh]
	 Same-Spin Energy          =      -0.5074921668906217 [Eh]
	 Opposite-Spin Energy      =      -1.5089149986516350 [Eh]
	 Correlation Energy        =      -2.0164071655422569 [Eh]
	 Total Energy              =    -495.3539786764633845 [Eh]

	 ================> DF-SCS-MP2 Energies <==================
	-----------------------------------------------------------
	 SCS Same-Spin Scale       =       0.3333333333333333 [-]
	 SCS Opposite-Spin Scale   =       1.2000000000000000 [-]
	 SCS Same-Spin Energy      =      -0.1691640556302072 [Eh]
	 SCS Opposite-Spin Energy  =      -1.8106979983819620 [Eh]
	 SCS Correlation Energy    =      -1.9798620540121692 [Eh]
	 SCS Total Energy          =    -495.3174335649333102 [Eh]
	-----------------------------------------------------------

  Dipole Moment: [D]
     X:     2.4179      Y:    -0.4811      Z:    -0.4635     Total:     2.5084

*** Psi4 exiting successfully. Buy a developer a beer!
