                               Psi4 1.4a3.dev225

  ==> Input File <==

--------------------------------------------------------------------------
#psi4
#
memory 32 gb

molecule  {
0 1
  O       -0.1026610     2.1662260    -0.1575610
  O       -2.2584930    -1.3355120    -0.3678820
  O       -2.3910220     0.7817980     0.4224010
  C       -0.2229580    -0.2124560     0.0160270
  C        0.5432810     0.9664510    -0.0570850
  C        0.4334420    -1.4495130     0.0922690
  C        1.9403100     0.8815900    -0.0555280
  C        1.8232300    -1.5265840     0.1016960
  C        2.5770020    -0.3540720     0.0300640
  C       -1.6865373    -0.1142051     0.0709856
  H       -0.1662180    -2.3524950     0.1438230
  H        2.5302810     1.7953260    -0.1182260
  H        2.3147800    -2.4929990     0.1682820
  H        3.6634790    -0.3965710     0.0346780
  H        0.5735000     2.8633950    -0.2378390
  H       -3.2240480    -1.2056750    -0.2641070
units angstrom
no_reorient  #important for SAPT in psi4, default
symmetry c1  #important for SAPT in psi4, default
}

set PROPERTIES_ORIGIN ["COM"]
properties('MP2/aug-cc-pvtz', properties = ['dipole'])
--------------------------------------------------------------------------

    Molecular point group: c1
  Charge       = 0
  Multiplicity = 1
  Basis Set: AUG-CC-PVTZ
    Blend: AUG-CC-PVTZ
  Basis Set: (AUG-CC-PVTZ AUX)
    Blend: AUG-CC-PVTZ-JKFIT

    Orbital Energies [Eh]
    ---------------------

    Doubly Occupied:

       1A    -20.605363     2A    -20.594738     3A    -20.549417
       4A    -11.387502     5A    -11.332560     6A    -11.267508
       7A    -11.264887     8A    -11.256974     9A    -11.250983
      10A    -11.243792    11A     -1.446086    12A     -1.417279
      13A     -1.348634    14A     -1.169356    15A     -1.058115
      16A     -1.024786    17A     -0.897839    18A     -0.862424
      19A     -0.795012    20A     -0.747067    21A     -0.704502
      22A     -0.695720    23A     -0.675465    24A     -0.643544
      25A     -0.626472    26A     -0.619368    27A     -0.595193
      28A     -0.588241    29A     -0.586926    30A     -0.539199
      31A     -0.524927    32A     -0.499131    33A     -0.481649
      34A     -0.447938    35A     -0.363651    36A     -0.333893

  @DF-RHF Final Energy:  -493.35160643718854

   => Energetics <=

    Nuclear Repulsion Energy =            499.1898906336745654
    One-Electron Energy =               -1664.1907080169014534
    Two-Electron Energy =                 671.6492109460383517
    Total Energy =                       -493.3516064371884795
  Basis Set: (AUG-CC-PVTZ AUX)
    Blend: AUG-CC-PVTZ-RI
    Molecular point group: c1

    Geometry (in Angstrom), charge = 0, multiplicity = 1:

       Center              X                  Y                   Z               Mass
    ------------   -----------------  -----------------  -----------------  -----------------
         O           -0.063676470402     2.149682665896    -0.160875216588    15.994914619570
         O           -2.219508470402    -1.352055334104    -0.371196216588    15.994914619570
         O           -2.352037470402     0.765254665896     0.419086783412    15.994914619570
         C           -0.183973470402    -0.228999334104     0.012712783412    12.000000000000
         C            0.582265529598     0.949907665896    -0.060399216588    12.000000000000
         C            0.472426529598    -1.466056334104     0.088954783412    12.000000000000
         C            1.979294529598     0.865046665896    -0.058842216588    12.000000000000
         C            1.862214529598    -1.543127334104     0.098381783412    12.000000000000
         C            2.615986529598    -0.370615334104     0.026749783412    12.000000000000
         C           -1.647552770402    -0.130748434104     0.067671383412    12.000000000000
         H           -0.127233470402    -2.369038334104     0.140508783412     1.007825032230
         H            2.569265529598     1.778782665896    -0.121540216588     1.007825032230
         H            2.353764529598    -2.509542334104     0.164967783412     1.007825032230
         H            3.702463529598    -0.413114334104     0.031363783412     1.007825032230
         H            0.612484529598     2.846851665896    -0.241153216588     1.007825032230
         H           -3.185063470402    -1.222218334104    -0.267421216588     1.007825032230

  Basis Set: AUG-CC-PVTZ
    Blend: AUG-CC-PVTZ
  Basis Set: (AUG-CC-PVTZ AUX)
    Blend: AUG-CC-PVTZ-JKFIT
	 Reference Energy          =    -493.3516064371885363 [Eh]
	 Singles Energy            =      -0.0000000000000000 [Eh]
	 Same-Spin Energy          =      -0.5052327312543972 [Eh]
	 Opposite-Spin Energy      =      -1.5045278474960706 [Eh]
	 Correlation Energy        =      -2.0097605787504680 [Eh]
	 Total Energy              =    -495.3613670159389812 [Eh]

	 ================> DF-SCS-MP2 Energies <==================
	-----------------------------------------------------------
	 SCS Same-Spin Scale       =       0.3333333333333333 [-]
	 SCS Opposite-Spin Scale   =       1.2000000000000000 [-]
	 SCS Same-Spin Energy      =      -0.1684109104181324 [Eh]
	 SCS Opposite-Spin Energy  =      -1.8054334169952846 [Eh]
	 SCS Correlation Energy    =      -1.9738443274134170 [Eh]
	 SCS Total Energy          =    -495.3254507646019533 [Eh]
	-----------------------------------------------------------

  Dipole Moment: [D]
     X:     2.8927      Y:    -0.1327      Z:    -0.3264     Total:     2.9141

*** Psi4 exiting successfully. Buy a developer a beer!
