                               Psi4 1.4a3.dev225

  ==> Input File <==

--------------------------------------------------------------------------
#psi4
#
memory 32 gb

molecule  {
0 1
  O       -0.1026610     2.1662260    -0.1575610
  O       -2.2584930    -1.3355120    -0.3678820
  O       -2.3910220     0.7817980     0.4224010
  C       -0.2229580    -0.2124560     0.0160270
  C        0.5432810     0.9664510    -0.0570850
  C        0.4334420    -1.4495130     0.0922690
  C        1.9403100     0.8815900    -0.0555280
  C        1.8232300    -1.5265840     0.1016960
  C        2.5770020    -0.3540720     0.0300640
  C       -1.7566498    -0.1554050     0.0568422
  H       -0.1662180    -2.3524950     0.1438230
  H        2.5302810     1.7953260    -0.1182260
  H        2.3147800    -2.4929990     0.1682820
  H        3.6634790    -0.3965710     0.0346780
  H        0.5735000     2.8633950    -0.2378390
  H       -3.2240480    -1.2056750    -0.2641070
units angstrom
no_reorient  #important for SAPT in psi4, default
symmetry c1  #important for SAPT in psi4, default
}

set PROPERTIES_ORIGIN ["COM"]
properties('MP2/aug-cc-pvtz', properties = ['dipole'])
--------------------------------------------------------------------------

    Molecular point group: c1
  Charge       = 0
  Multiplicity = 1
  Basis Set: AUG-CC-PVTZ
    Blend: AUG-CC-PVTZ
  Basis Set: (AUG-CC-PVTZ AUX)
    Blend: AUG-CC-PVTZ-JKFIT

    Orbital Energies [Eh]
    ---------------------

    Doubly Occupied:

       1A    -20.616217     2A    -20.599794     3A    -20.547764
       4A    -11.389092     5A    -11.326094     6A    -11.261103
       7A    -11.258408     8A    -11.255326     9A    -11.246884
      10A    -11.239597    11A     -1.469237    12A     -1.412588
      13A     -1.370059    14A     -1.162472    15A     -1.046456
      16A     -1.018974    17A     -0.890305    18A     -0.857915
      19A     -0.801686    20A     -0.743795    21A     -0.708001
      22A     -0.704860    23A     -0.675137    24A     -0.647351
      25A     -0.633278    26A     -0.621095    27A     -0.595522
      28A     -0.588046    29A     -0.579495    30A     -0.536837
      31A     -0.520981    32A     -0.496393    33A     -0.486580
      34A     -0.446509    35A     -0.357964    36A     -0.328553

  @DF-RHF Final Energy:  -493.35388339458876

   => Energetics <=

    Nuclear Repulsion Energy =            498.7780998216383637
    One-Electron Energy =               -1663.3832308548849142
    Two-Electron Energy =                 671.2512476386579010
    Total Energy =                       -493.3538833945887063
  Basis Set: (AUG-CC-PVTZ AUX)
    Blend: AUG-CC-PVTZ-RI
    Molecular point group: c1

    Geometry (in Angstrom), charge = 0, multiplicity = 1:

       Center              X                  Y                   Z               Mass
    ------------   -----------------  -----------------  -----------------  -----------------
         O           -0.057581131171     2.153264443279    -0.159645638112    15.994914619570
         O           -2.213413131171    -1.348473556721    -0.369966638112    15.994914619570
         O           -2.345942131171     0.768836443279     0.420316361888    15.994914619570
         C           -0.177878131171    -0.225417556721     0.013942361888    12.000000000000
         C            0.588360868829     0.953489443279    -0.059169638112    12.000000000000
         C            0.478521868829    -1.462474556721     0.090184361888    12.000000000000
         C            1.985389868829     0.868628443279    -0.057612638112    12.000000000000
         C            1.868309868829    -1.539545556721     0.099611361888    12.000000000000
         C            2.622081868829    -0.367033556721     0.027979361888    12.000000000000
         C           -1.711569931171    -0.168366556721     0.054757561888    12.000000000000
         H           -0.121138131171    -2.365456556721     0.141738361888     1.007825032230
         H            2.575360868829     1.782364443279    -0.120310638112     1.007825032230
         H            2.359859868829    -2.505960556721     0.166197361888     1.007825032230
         H            3.708558868829    -0.409532556721     0.032593361888     1.007825032230
         H            0.618579868829     2.850433443279    -0.239923638112     1.007825032230
         H           -3.178968131171    -1.218636556721    -0.266191638112     1.007825032230

  Basis Set: AUG-CC-PVTZ
    Blend: AUG-CC-PVTZ
  Basis Set: (AUG-CC-PVTZ AUX)
    Blend: AUG-CC-PVTZ-JKFIT
	 Reference Energy          =    -493.3538833945887632 [Eh]
	 Singles Energy            =      -0.0000000000000000 [Eh]
	 Same-Spin Energy          =      -0.5045681526463556 [Eh]
	 Opposite-Spin Energy      =      -1.5026900008356834 [Eh]
	 Correlation Energy        =      -2.0072581534820388 [Eh]
	 Total Energy              =    -495.3611415480708047 [Eh]

	 ================> DF-SCS-MP2 Energies <==================
	-----------------------------------------------------------
	 SCS Same-Spin Scale       =       0.3333333333333333 [-]
	 SCS Opposite-Spin Scale   =       1.2000000000000000 [-]
	 SCS Same-Spin Energy      =      -0.1681893842154518 [Eh]
	 SCS Opposite-Spin Energy  =      -1.8032280010028199 [Eh]
	 SCS Correlation Energy    =      -1.9714173852182717 [Eh]
	 SCS Total Energy          =    -495.3253007798070371 [Eh]
	-----------------------------------------------------------

  Dipole Moment: [D]
     X:     2.2013      Y:    -0.4956      Z:    -0.4574     Total:     2.3023

*** Psi4 exiting successfully. Buy a developer a beer!
