                               Psi4 1.3.2 release

  ==> Input File <==

--------------------------------------------------------------------------
#psi4
#
memory 32 gb

molecule  {
0 1
  O       -0.1027990     2.1661630    -0.1573240
  O       -2.2585870    -1.3354710    -0.3679860
  O       -2.3909180     0.7817600     0.4224630
  C       -0.2229310    -0.2124960     0.0158460
  C        0.5432600     0.9664360    -0.0570110
  C        0.4550460    -1.4379246     0.0909783
  C        1.9402870     0.8816050    -0.0559020
  C        1.8233140    -1.5265410     0.1016630
  C        2.5770400    -0.3539830     0.0301550
  C       -1.7066960    -0.1573290     0.0554370
  H       -0.1661180    -2.3524960     0.1439440
  H        2.5301710     1.7954230    -0.1182500
  H        2.3148760    -2.4929130     0.1687580
  H        3.6635200    -0.3964420     0.0343940
  H        0.5733460     2.8632860    -0.2381370
  H       -3.2241600    -1.2056690    -0.2641310
units angstrom
no_reorient  #important for SAPT in psi4, default
symmetry c1  #important for SAPT in psi4, default
}

set PROPERTIES_ORIGIN ["COM"]
properties('MP2/aug-cc-pvtz', properties = ['dipole'])
--------------------------------------------------------------------------

    Molecular point group: c1
  Charge       = 0
  Multiplicity = 1
  Basis Set: AUG-CC-PVTZ
    Blend: AUG-CC-PVTZ
  Basis Set: (AUG-CC-PVTZ AUX)
    Blend: AUG-CC-PVTZ-JKFIT

    Orbital Energies [Eh]
    ---------------------

    Doubly Occupied:

       1A    -20.609706     2A    -20.602745     3A    -20.542843
       4A    -11.389717     5A    -11.331064     6A    -11.266123
       7A    -11.261746     8A    -11.255811     9A    -11.249850
      10A    -11.240245    11A     -1.453492    12A     -1.415268
      13A     -1.348453    14A     -1.169569    15A     -1.054367
      16A     -1.025368    17A     -0.898626    18A     -0.859978
      19A     -0.802459    20A     -0.744134    21A     -0.709381
      22A     -0.698175    23A     -0.677456    24A     -0.644215
      25A     -0.624542    26A     -0.620729    27A     -0.596317
      28A     -0.589546    29A     -0.580995    30A     -0.538312
      31A     -0.519195    32A     -0.500098    33A     -0.476557
      34A     -0.447252    35A     -0.361513    36A     -0.333805

  @DF-RHF Final Energy:  -493.35323962623369

   => Energetics <=

    Nuclear Repulsion Energy =            499.2036077924241226
    One-Electron Energy =               -1664.2343898898641328
    Two-Electron Energy =                 671.6775424712062659
    Total Energy =                       -493.3532396262336306
  Basis Set: (AUG-CC-PVTZ AUX)
    Blend: AUG-CC-PVTZ-RI
    Molecular point group: c1

    Geometry (in Angstrom), charge = 0, multiplicity = 1:

       Center              X                  Y                   Z               Mass
    ------------   -----------------  -----------------  -----------------  -----------------
         O           -0.063933400793     2.152358689494    -0.159159847063    15.994914619570
         O           -2.219721400793    -1.349275310506    -0.369821847063    15.994914619570
         O           -2.352052400793     0.767955689494     0.420627152937    15.994914619570
         C           -0.184065400793    -0.226300310506     0.014010152937    12.000000000000
         C            0.582125599207     0.952631689494    -0.058846847063    12.000000000000
         C            0.493911599207    -1.451728910506     0.089142452937    12.000000000000
         C            1.979152599207     0.867800689494    -0.057737847063    12.000000000000
         C            1.862179599207    -1.540345310506     0.099827152937    12.000000000000
         C            2.615905599207    -0.367787310506     0.028319152937    12.000000000000
         C           -1.667830400793    -0.171133310506     0.053601152937    12.000000000000
         H           -0.127252400793    -2.366300310506     0.142108152937     1.007825032230
         H            2.569036599207     1.781618689494    -0.120085847063     1.007825032230
         H            2.353741599207    -2.506717310506     0.166922152937     1.007825032230
         H            3.702385599207    -0.410246310506     0.032558152937     1.007825032230
         H            0.612211599207     2.849481689494    -0.239972847063     1.007825032230
         H           -3.185294400793    -1.219473310506    -0.265966847063     1.007825032230

  Basis Set: AUG-CC-PVTZ
    Blend: AUG-CC-PVTZ
  Basis Set: (AUG-CC-PVTZ AUX)
    Blend: AUG-CC-PVTZ-JKFIT
	 Reference Energy          =    -493.3532396262336874 [Eh]
	 Singles Energy            =      -0.0000000000000000 [Eh]
	 Same-Spin Energy          =      -0.5053584255218757 [Eh]
	 Opposite-Spin Energy      =      -1.5043624115969616 [Eh]
	 Correlation Energy        =      -2.0097208371188371 [Eh]
	 Total Energy              =    -495.3629604633525219 [Eh]

	 ================> DF-SCS-MP2 Energies <==================
	-----------------------------------------------------------
	 SCS Same-Spin Scale       =       0.3333333333333333 [-]
	 SCS Opposite-Spin Scale   =       1.2000000000000000 [-]
	 SCS Same-Spin Energy      =      -0.1684528085072919 [Eh]
	 SCS Opposite-Spin Energy  =      -1.8052348939163538 [Eh]
	 SCS Correlation Energy    =      -1.9736877024236457 [Eh]
	 SCS Total Energy          =    -495.3269273286573480 [Eh]
	-----------------------------------------------------------

  Dipole Moment: [D]
     X:     2.6599      Y:    -0.4626      Z:    -0.4616     Total:     2.7390

*** Psi4 exiting successfully. Buy a developer a beer!
