                               Psi4 1.3.2 release

  ==> Input File <==

--------------------------------------------------------------------------
#psi4
#
memory 32 gb

molecule  {
0 1
  O       -0.1027990     2.1661630    -0.1573240
  O       -2.2585870    -1.3354710    -0.3679860
  O       -2.3909180     0.7817600     0.4224630
  C       -0.2229310    -0.2124960     0.0158460
  C        0.5432600     0.9664360    -0.0570110
  C        0.4335280    -1.4494910     0.0925130
  C        1.9402870     0.8816050    -0.0559020
  C        1.8233140    -1.5265410     0.1016630
  C        2.5770400    -0.3539830     0.0301550
  C       -1.8190011    -0.0031912     0.1156790
  H       -0.1661180    -2.3524960     0.1439440
  H        2.5301710     1.7954230    -0.1182500
  H        2.3148760    -2.4929130     0.1687580
  H        3.6635200    -0.3964420     0.0343940
  H        0.5733460     2.8632860    -0.2381370
  H       -3.2241600    -1.2056690    -0.2641310
units angstrom
no_reorient  #important for SAPT in psi4, default
symmetry c1  #important for SAPT in psi4, default
}

set PROPERTIES_ORIGIN ["COM"]
properties('MP2/aug-cc-pvtz', properties = ['dipole'])
--------------------------------------------------------------------------

    Molecular point group: c1
  Charge       = 0
  Multiplicity = 1
  Basis Set: AUG-CC-PVTZ
    Blend: AUG-CC-PVTZ
  Basis Set: (AUG-CC-PVTZ AUX)
    Blend: AUG-CC-PVTZ-JKFIT

    Orbital Energies [Eh]
    ---------------------

    Doubly Occupied:

       1A    -20.601871     2A    -20.584007     3A    -20.576184
       4A    -11.377010     5A    -11.318725     6A    -11.255411
       7A    -11.253701     8A    -11.252312     9A    -11.242893
      10A    -11.235711    11A     -1.573758    12A     -1.414723
      13A     -1.352338    14A     -1.155942    15A     -1.034371
      16A     -1.014659    17A     -0.869756    18A     -0.847247
      19A     -0.783038    20A     -0.746767    21A     -0.727955
      22A     -0.722690    23A     -0.685655    24A     -0.667182
      25A     -0.651830    26A     -0.614600    27A     -0.598752
      28A     -0.590167    29A     -0.580687    30A     -0.539862
      31A     -0.518868    32A     -0.505289    33A     -0.490379
      34A     -0.430956    35A     -0.352188    36A     -0.325432

  @DF-RHF Final Energy:  -493.27335839448091

   => Energetics <=

    Nuclear Repulsion Energy =            499.5931700013800878
    One-Electron Energy =               -1664.7472281309687787
    Two-Electron Energy =                 671.8806997351078962
    Total Energy =                       -493.2733583944808515
  Basis Set: (AUG-CC-PVTZ AUX)
    Blend: AUG-CC-PVTZ-RI
    Molecular point group: c1

    Geometry (in Angstrom), charge = 0, multiplicity = 1:

       Center              X                  Y                   Z               Mass
    ------------   -----------------  -----------------  -----------------  -----------------
         O           -0.052299281462     2.139964023096    -0.164530500558    15.994914619570
         O           -2.208087281462    -1.361669976904    -0.375192500558    15.994914619570
         O           -2.340418281462     0.755561023096     0.415256499442    15.994914619570
         C           -0.172431281462    -0.238694976904     0.008639499442    12.000000000000
         C            0.593759718538     0.940237023096    -0.064217500558    12.000000000000
         C            0.484027718538    -1.475689976904     0.085306499442    12.000000000000
         C            1.990786718538     0.855406023096    -0.063108500558    12.000000000000
         C            1.873813718538    -1.552739976904     0.094456499442    12.000000000000
         C            2.627539718538    -0.380181976904     0.022948499442    12.000000000000
         C           -1.768501381462    -0.029390176904     0.108472499442    12.000000000000
         H           -0.115618281462    -2.378694976904     0.136737499442     1.007825032230
         H            2.580670718538     1.769224023096    -0.125456500558     1.007825032230
         H            2.365375718538    -2.519111976904     0.161551499442     1.007825032230
         H            3.714019718538    -0.422640976904     0.027187499442     1.007825032230
         H            0.623845718538     2.837087023096    -0.245343500558     1.007825032230
         H           -3.173660281462    -1.231867976904    -0.271337500558     1.007825032230

  Basis Set: AUG-CC-PVTZ
    Blend: AUG-CC-PVTZ
  Basis Set: (AUG-CC-PVTZ AUX)
    Blend: AUG-CC-PVTZ-JKFIT
	 Reference Energy          =    -493.2733583944809084 [Eh]
	 Singles Energy            =      -0.0000000000000000 [Eh]
	 Same-Spin Energy          =      -0.5023253064570595 [Eh]
	 Opposite-Spin Energy      =      -1.4987121932205063 [Eh]
	 Correlation Energy        =      -2.0010374996775657 [Eh]
	 Total Energy              =    -495.2743958941584879 [Eh]

	 ================> DF-SCS-MP2 Energies <==================
	-----------------------------------------------------------
	 SCS Same-Spin Scale       =       0.3333333333333333 [-]
	 SCS Opposite-Spin Scale   =       1.2000000000000000 [-]
	 SCS Same-Spin Energy      =      -0.1674417688190198 [Eh]
	 SCS Opposite-Spin Energy  =      -1.7984546318646075 [Eh]
	 SCS Correlation Energy    =      -1.9658964006836275 [Eh]
	 SCS Total Energy          =    -495.2392547951645270 [Eh]
	-----------------------------------------------------------

  Dipole Moment: [D]
     X:     1.7232      Y:     0.7572      Z:     0.0816     Total:     1.8840

*** Psi4 exiting successfully. Buy a developer a beer!
