                               Psi4 1.3.2 release

  ==> Input File <==

--------------------------------------------------------------------------
#psi4
#
memory 32 gb

molecule  {
0 1
  O       -0.2251015     2.0923545    -0.1504351
  O       -2.2585870    -1.3354710    -0.3679860
  O       -2.3909180     0.7817600     0.4224630
  C       -0.2229310    -0.2124960     0.0158460
  C        0.5432600     0.9664360    -0.0570110
  C        0.4335280    -1.4494910     0.0925130
  C        1.9402870     0.8816050    -0.0559020
  C        1.8233140    -1.5265410     0.1016630
  C        2.5770400    -0.3539830     0.0301550
  C       -1.7066960    -0.1573290     0.0554370
  H       -0.1661180    -2.3524960     0.1439440
  H        2.5301710     1.7954230    -0.1182500
  H        2.3148760    -2.4929130     0.1687580
  H        3.6635200    -0.3964420     0.0343940
  H        0.5733460     2.8632860    -0.2381370
  H       -3.2241600    -1.2056690    -0.2641310
units angstrom
no_reorient  #important for SAPT in psi4, default
symmetry c1  #important for SAPT in psi4, default
}

set PROPERTIES_ORIGIN ["COM"]
properties('MP2/aug-cc-pvtz', properties = ['dipole'])
--------------------------------------------------------------------------

    Molecular point group: c1
  Charge       = 0
  Multiplicity = 1
  Basis Set: AUG-CC-PVTZ
    Blend: AUG-CC-PVTZ
  Basis Set: (AUG-CC-PVTZ AUX)
    Blend: AUG-CC-PVTZ-JKFIT

    Orbital Energies [Eh]
    ---------------------

    Doubly Occupied:

       1A    -20.616014     2A    -20.608664     3A    -20.540951
       4A    -11.387811     5A    -11.328978     6A    -11.266648
       7A    -11.261543     8A    -11.252574     9A    -11.252114
      10A    -11.241977    11A     -1.452474    12A     -1.398310
      13A     -1.346654    14A     -1.165119    15A     -1.054068
      16A     -1.019472    17A     -0.896823    18A     -0.854229
      19A     -0.798908    20A     -0.727923    21A     -0.698481
      22A     -0.696150    23A     -0.677925    24A     -0.640283
      25A     -0.623642    26A     -0.618193    27A     -0.594585
      28A     -0.587431    29A     -0.577042    30A     -0.541035
      31A     -0.518481    32A     -0.497171    33A     -0.475120
      34A     -0.444024    35A     -0.361383    36A     -0.331077

  @DF-RHF Final Energy:  -493.32548572220344

   => Energetics <=

    Nuclear Repulsion Energy =            499.8669817211851409
    One-Electron Energy =               -1665.6783808621801199
    Two-Electron Energy =                 672.4859134187915970
    Total Energy =                       -493.3254857222034389
  Basis Set: (AUG-CC-PVTZ AUX)
    Blend: AUG-CC-PVTZ-RI
    Molecular point group: c1

    Geometry (in Angstrom), charge = 0, multiplicity = 1:

       Center              X                  Y                   Z               Mass
    ------------   -----------------  -----------------  -----------------  -----------------
         O           -0.170192961811     2.088108555525    -0.153202644440    15.994914619570
         O           -2.203678461811    -1.339716944475    -0.370753544440    15.994914619570
         O           -2.336009461811     0.777514055525     0.419695455560    15.994914619570
         C           -0.168022461811    -0.216741944475     0.013078455560    12.000000000000
         C            0.598168538189     0.962190055525    -0.059778544440    12.000000000000
         C            0.488436538189    -1.453736944475     0.089745455560    12.000000000000
         C            1.995195538189     0.877359055525    -0.058669544440    12.000000000000
         C            1.878222538189    -1.530786944475     0.098895455560    12.000000000000
         C            2.631948538189    -0.358228944475     0.027387455560    12.000000000000
         C           -1.651787461811    -0.161574944475     0.052669455560    12.000000000000
         H           -0.111209461811    -2.356741944475     0.141176455560     1.007825032230
         H            2.585079538189     1.791177055525    -0.121017544440     1.007825032230
         H            2.369784538189    -2.497158944475     0.165990455560     1.007825032230
         H            3.718428538189    -0.400687944475     0.031626455560     1.007825032230
         H            0.628254538189     2.859040055525    -0.240904544440     1.007825032230
         H           -3.169251461811    -1.209914944475    -0.266898544440     1.007825032230

  Basis Set: AUG-CC-PVTZ
    Blend: AUG-CC-PVTZ
  Basis Set: (AUG-CC-PVTZ AUX)
    Blend: AUG-CC-PVTZ-JKFIT
	 Reference Energy          =    -493.3254857222034389 [Eh]
	 Singles Energy            =      -0.0000000000000000 [Eh]
	 Same-Spin Energy          =      -0.5081864363394188 [Eh]
	 Opposite-Spin Energy      =      -1.5110610042640955 [Eh]
	 Correlation Energy        =      -2.0192474406035146 [Eh]
	 Total Energy              =    -495.3447331628069605 [Eh]

	 ================> DF-SCS-MP2 Energies <==================
	-----------------------------------------------------------
	 SCS Same-Spin Scale       =       0.3333333333333333 [-]
	 SCS Opposite-Spin Scale   =       1.2000000000000000 [-]
	 SCS Same-Spin Energy      =      -0.1693954787798063 [Eh]
	 SCS Opposite-Spin Energy  =      -1.8132732051169145 [Eh]
	 SCS Correlation Energy    =      -1.9826686838967207 [Eh]
	 SCS Total Energy          =    -495.3081544061001864 [Eh]
	-----------------------------------------------------------

  Dipole Moment: [D]
     X:     2.6894      Y:    -0.3525      Z:    -0.4618     Total:     2.7515

*** Psi4 exiting successfully. Buy a developer a beer!
