                               Psi4 1.3.2 release

  ==> Input File <==

--------------------------------------------------------------------------
#psi4
#
memory 32 gb

molecule  {
0 1
  O       -0.1027990     2.1661630    -0.1573240
  O       -2.2585870    -1.3354710    -0.3679860
  O       -2.3909180     0.7817600     0.4224630
  C       -0.2229310    -0.2124960     0.0158460
  C        0.5432600     0.9664360    -0.0570110
  C        0.4335280    -1.4494910     0.0925130
  C        1.9402870     0.8816050    -0.0559020
  C        1.8233140    -1.5265410     0.1016630
  C        2.5770400    -0.3539830     0.0301550
  C       -1.7628486    -0.0802601     0.0855580
  H       -0.1661180    -2.3524960     0.1439440
  H        2.5301710     1.7954230    -0.1182500
  H        2.3148760    -2.4929130     0.1687580
  H        3.6635200    -0.3964420     0.0343940
  H        0.5733460     2.8632860    -0.2381370
  H       -3.2241600    -1.2056690    -0.2641310
units angstrom
no_reorient  #important for SAPT in psi4, default
symmetry c1  #important for SAPT in psi4, default
}

set PROPERTIES_ORIGIN ["COM"]
properties('MP2/aug-cc-pvtz', properties = ['dipole'])
--------------------------------------------------------------------------

    Molecular point group: c1
  Charge       = 0
  Multiplicity = 1
  Basis Set: AUG-CC-PVTZ
    Blend: AUG-CC-PVTZ
  Basis Set: (AUG-CC-PVTZ AUX)
    Blend: AUG-CC-PVTZ-JKFIT

    Orbital Energies [Eh]
    ---------------------

    Doubly Occupied:

       1A    -20.602025     2A    -20.594586     3A    -20.563188
       4A    -11.384008     5A    -11.324625     6A    -11.260381
       7A    -11.257868     8A    -11.255228     9A    -11.246298
      10A    -11.239140    11A     -1.489723    12A     -1.414570
      13A     -1.370255    14A     -1.161475    15A     -1.044078
      16A     -1.018777    17A     -0.882066    18A     -0.855421
      19A     -0.790471    20A     -0.743864    21A     -0.710009
      22A     -0.704191    23A     -0.675574    24A     -0.651144
      25A     -0.636107    26A     -0.619441    27A     -0.596473
      28A     -0.589231    29A     -0.584980    30A     -0.539739
      31A     -0.521573    32A     -0.501748    33A     -0.493974
      34A     -0.446169    35A     -0.357402    36A     -0.328761

  @DF-RHF Final Energy:  -493.34179969704195

   => Energetics <=

    Nuclear Repulsion Energy =            499.0962309420517613
    One-Electron Energy =               -1663.9669403061393496
    Two-Electron Energy =                 671.5289096670455820
    Total Energy =                       -493.3417996970420063
  Basis Set: (AUG-CC-PVTZ AUX)
    Blend: AUG-CC-PVTZ-RI
    Molecular point group: c1

    Geometry (in Angstrom), charge = 0, multiplicity = 1:

       Center              X                  Y                   Z               Mass
    ------------   -----------------  -----------------  -----------------  -----------------
         O           -0.057180986382     2.146664127781    -0.161911884576    15.994914619570
         O           -2.212968986382    -1.354969872219    -0.372573884576    15.994914619570
         O           -2.345299986382     0.762261127781     0.417875115424    15.994914619570
         C           -0.177312986382    -0.231994872219     0.011258115424    12.000000000000
         C            0.588878013618     0.946937127781    -0.061598884576    12.000000000000
         C            0.479146013618    -1.468989872219     0.087925115424    12.000000000000
         C            1.985905013618     0.862106127781    -0.060489884576    12.000000000000
         C            1.868932013618    -1.546039872219     0.097075115424    12.000000000000
         C            2.622658013618    -0.373481872219     0.025567115424    12.000000000000
         C           -1.717230586382    -0.099758972219     0.080970115424    12.000000000000
         H           -0.120499986382    -2.371994872219     0.139356115424     1.007825032230
         H            2.575789013618     1.775924127781    -0.122837884576     1.007825032230
         H            2.360494013618    -2.512411872219     0.164170115424     1.007825032230
         H            3.709138013618    -0.415940872219     0.029806115424     1.007825032230
         H            0.618964013618     2.843787127781    -0.242724884576     1.007825032230
         H           -3.178541986382    -1.225167872219    -0.268718884576     1.007825032230

  Basis Set: AUG-CC-PVTZ
    Blend: AUG-CC-PVTZ
  Basis Set: (AUG-CC-PVTZ AUX)
    Blend: AUG-CC-PVTZ-JKFIT
	 Reference Energy          =    -493.3417996970419495 [Eh]
	 Singles Energy            =      -0.0000000000000000 [Eh]
	 Same-Spin Energy          =      -0.5035978871732649 [Eh]
	 Opposite-Spin Energy      =      -1.5011583653120060 [Eh]
	 Correlation Energy        =      -2.0047562524852709 [Eh]
	 Total Energy              =    -495.3465559495272146 [Eh]

	 ================> DF-SCS-MP2 Energies <==================
	-----------------------------------------------------------
	 SCS Same-Spin Scale       =       0.3333333333333333 [-]
	 SCS Opposite-Spin Scale   =       1.2000000000000000 [-]
	 SCS Same-Spin Energy      =      -0.1678659623910883 [Eh]
	 SCS Opposite-Spin Energy  =      -1.8013900383744070 [Eh]
	 SCS Correlation Energy    =      -1.9692560007654953 [Eh]
	 SCS Total Energy          =    -495.3110556978074328 [Eh]
	-----------------------------------------------------------

  Dipole Moment: [D]
     X:     2.2056      Y:     0.0983      Z:    -0.2067     Total:     2.2174

*** Psi4 exiting successfully. Buy a developer a beer!
