                               Psi4 1.4a3.dev225

  ==> Input File <==

--------------------------------------------------------------------------
#psi4
#
memory 32 gb

molecule  {
0 1
  O       -0.1026610     2.1662260    -0.1575610
  O       -2.2584930    -1.3355120    -0.3678820
  O       -2.3910220     0.7817980     0.4224010
  C       -0.2229580    -0.2124560     0.0160270
  C        0.5432810     0.9664510    -0.0570850
  C        0.4334420    -1.4495130     0.0922690
  C        1.9403100     0.8815900    -0.0555280
  C        1.8232300    -1.5265840     0.1016960
  C        2.5770020    -0.3540720     0.0300640
  C       -1.7268667    -0.2003209     0.0400404
  H       -0.1662180    -2.3524950     0.1438230
  H        2.5302810     1.7953260    -0.1182260
  H        2.3147800    -2.4929990     0.1682820
  H        3.6634790    -0.3965710     0.0346780
  H        0.5735000     2.8633950    -0.2378390
  H       -3.2240480    -1.2056750    -0.2641070
units angstrom
no_reorient  #important for SAPT in psi4, default
symmetry c1  #important for SAPT in psi4, default
}

set PROPERTIES_ORIGIN ["COM"]
properties('MP2/aug-cc-pvtz', properties = ['dipole'])
--------------------------------------------------------------------------

    Molecular point group: c1
  Charge       = 0
  Multiplicity = 1
  Basis Set: AUG-CC-PVTZ
    Blend: AUG-CC-PVTZ
  Basis Set: (AUG-CC-PVTZ AUX)
    Blend: AUG-CC-PVTZ-JKFIT

    Orbital Energies [Eh]
    ---------------------

    Doubly Occupied:

       1A    -20.624495     2A    -20.600097     3A    -20.535866
       4A    -11.391426     5A    -11.329579     6A    -11.263906
       7A    -11.261080     8A    -11.256560     9A    -11.248838
      10A    -11.241430    11A     -1.474029    12A     -1.412880
      13A     -1.337999    14A     -1.165650    15A     -1.052318
      16A     -1.021186    17A     -0.900340    18A     -0.860870
      19A     -0.808945    20A     -0.745361    21A     -0.712989
      22A     -0.704017    23A     -0.675883    24A     -0.645888
      25A     -0.633132    26A     -0.622307    27A     -0.596458
      28A     -0.588522    29A     -0.572051    30A     -0.534293
      31A     -0.522198    32A     -0.497454    33A     -0.468718
      34A     -0.442659    35A     -0.360084    36A     -0.330232

  @DF-RHF Final Energy:  -493.35015250268555

   => Energetics <=

    Nuclear Repulsion Energy =            498.7876008304538118
    One-Electron Energy =               -1663.3960283976286973
    Two-Electron Energy =                 671.2582750644893395
    Total Energy =                       -493.3501525026855461
  Basis Set: (AUG-CC-PVTZ AUX)
    Blend: AUG-CC-PVTZ-RI
    Molecular point group: c1

    Geometry (in Angstrom), charge = 0, multiplicity = 1:

       Center              X                  Y                   Z               Mass
    ------------   -----------------  -----------------  -----------------  -----------------
         O           -0.060170371290     2.157169276903    -0.158184947497    15.994914619570
         O           -2.216002371290    -1.344568723097    -0.368505947497    15.994914619570
         O           -2.348531371290     0.772741276903     0.421777052503    15.994914619570
         C           -0.180467371290    -0.221512723097     0.015403052503    12.000000000000
         C            0.585771628710     0.957394276903    -0.057708947497    12.000000000000
         C            0.475932628710    -1.458569723097     0.091645052503    12.000000000000
         C            1.982800628710     0.872533276903    -0.056151947497    12.000000000000
         C            1.865720628710    -1.535640723097     0.101072052503    12.000000000000
         C            2.619492628710    -0.363128723097     0.029440052503    12.000000000000
         C           -1.684376071290    -0.209377623097     0.039416452503    12.000000000000
         H           -0.123727371290    -2.361551723097     0.143199052503     1.007825032230
         H            2.572771628710     1.786269276903    -0.118849947497     1.007825032230
         H            2.357270628710    -2.502055723097     0.167658052503     1.007825032230
         H            3.705969628710    -0.405627723097     0.034054052503     1.007825032230
         H            0.615990628710     2.854338276903    -0.238462947497     1.007825032230
         H           -3.181557371290    -1.214731723097    -0.264730947497     1.007825032230

  Basis Set: AUG-CC-PVTZ
    Blend: AUG-CC-PVTZ
  Basis Set: (AUG-CC-PVTZ AUX)
    Blend: AUG-CC-PVTZ-JKFIT
	 Reference Energy          =    -493.3501525026855461 [Eh]
	 Singles Energy            =      -0.0000000000000000 [Eh]
	 Same-Spin Energy          =      -0.5056158763743830 [Eh]
	 Opposite-Spin Energy      =      -1.5045926131389316 [Eh]
	 Correlation Energy        =      -2.0102084895133148 [Eh]
	 Total Energy              =    -495.3603609921988777 [Eh]

	 ================> DF-SCS-MP2 Energies <==================
	-----------------------------------------------------------
	 SCS Same-Spin Scale       =       0.3333333333333333 [-]
	 SCS Opposite-Spin Scale   =       1.2000000000000000 [-]
	 SCS Same-Spin Energy      =      -0.1685386254581276 [Eh]
	 SCS Opposite-Spin Energy  =      -1.8055111357667177 [Eh]
	 SCS Correlation Energy    =      -1.9740497612248453 [Eh]
	 SCS Total Energy          =    -495.3242022639103652 [Eh]
	-----------------------------------------------------------

  Dipole Moment: [D]
     X:     2.4303      Y:    -0.8035      Z:    -0.5956     Total:     2.6281

*** Psi4 exiting successfully. Buy a developer a beer!
