                               Psi4 1.3.2 release

  ==> Input File <==

--------------------------------------------------------------------------
#psi4
#
memory 32 gb

molecule  {
0 1
  O       -0.1027990     2.1661630    -0.1573240
  O       -2.2585870    -1.3354710    -0.3679860
  O       -2.3909180     0.7817600     0.4224630
  C       -0.2229310    -0.2124960     0.0158460
  C        0.6625298     0.8800431    -0.0516454
  C        0.4335280    -1.4494910     0.0925130
  C        1.9402870     0.8816050    -0.0559020
  C        1.8233140    -1.5265410     0.1016630
  C        2.5770400    -0.3539830     0.0301550
  C       -1.7066960    -0.1573290     0.0554370
  H       -0.1661180    -2.3524960     0.1439440
  H        2.5301710     1.7954230    -0.1182500
  H        2.3148760    -2.4929130     0.1687580
  H        3.6635200    -0.3964420     0.0343940
  H        0.5733460     2.8632860    -0.2381370
  H       -3.2241600    -1.2056690    -0.2641310
units angstrom
no_reorient  #important for SAPT in psi4, default
symmetry c1  #important for SAPT in psi4, default
}

set PROPERTIES_ORIGIN ["COM"]
properties('MP2/aug-cc-pvtz', properties = ['dipole'])
--------------------------------------------------------------------------

    Molecular point group: c1
  Charge       = 0
  Multiplicity = 1
  Basis Set: AUG-CC-PVTZ
    Blend: AUG-CC-PVTZ
  Basis Set: (AUG-CC-PVTZ AUX)
    Blend: AUG-CC-PVTZ-JKFIT

    Orbital Energies [Eh]
    ---------------------

    Doubly Occupied:

       1A    -20.612931     2A    -20.577694     3A    -20.544622
       4A    -11.394329     5A    -11.316982     6A    -11.270894
       7A    -11.267057     8A    -11.263898     9A    -11.249321
      10A    -11.242428    11A     -1.455682    12A     -1.357072
      13A     -1.347007    14A     -1.185895    15A     -1.067331
      16A     -1.035673    17A     -0.906816    18A     -0.854273
      19A     -0.809274    20A     -0.733555    21A     -0.700808
      22A     -0.695825    23A     -0.672913    24A     -0.648435
      25A     -0.625865    26A     -0.615015    27A     -0.597111
      28A     -0.574272    29A     -0.570723    30A     -0.541600
      31A     -0.515347    32A     -0.496594    33A     -0.477627
      34A     -0.449757    35A     -0.370848    36A     -0.347534

  @DF-RHF Final Energy:  -493.32406158538566

   => Energetics <=

    Nuclear Repulsion Energy =            499.1648129809021270
    One-Electron Energy =               -1664.1917331939325777
    Two-Electron Energy =                 671.7028586276447868
    Total Energy =                       -493.3240615853857207
  Basis Set: (AUG-CC-PVTZ AUX)
    Blend: AUG-CC-PVTZ-RI
    Molecular point group: c1

    Geometry (in Angstrom), charge = 0, multiplicity = 1:

       Center              X                  Y                   Z               Mass
    ------------   -----------------  -----------------  -----------------  -----------------
         O           -0.072431605557     2.160874933593    -0.159759735376    15.994914619570
         O           -2.228219605557    -1.340759066407    -0.370421735376    15.994914619570
         O           -2.360550605557     0.776471933593     0.420027264624    15.994914619570
         C           -0.192563605557    -0.217784066407     0.013410264624    12.000000000000
         C            0.692897194443     0.874755033593    -0.054081135376    12.000000000000
         C            0.463895394443    -1.454779066407     0.090077264624    12.000000000000
         C            1.970654394443     0.876316933593    -0.058337735376    12.000000000000
         C            1.853681394443    -1.531829066407     0.099227264624    12.000000000000
         C            2.607407394443    -0.359271066407     0.027719264624    12.000000000000
         C           -1.676328605557    -0.162617066407     0.053001264624    12.000000000000
         H           -0.135750605557    -2.357784066407     0.141508264624     1.007825032230
         H            2.560538394443     1.790134933593    -0.120685735376     1.007825032230
         H            2.345243394443    -2.498201066407     0.166322264624     1.007825032230
         H            3.693887394443    -0.401730066407     0.031958264624     1.007825032230
         H            0.603713394443     2.857997933593    -0.240572735376     1.007825032230
         H           -3.193792605557    -1.210957066407    -0.266566735376     1.007825032230

  Basis Set: AUG-CC-PVTZ
    Blend: AUG-CC-PVTZ
  Basis Set: (AUG-CC-PVTZ AUX)
    Blend: AUG-CC-PVTZ-JKFIT
	 Reference Energy          =    -493.3240615853856639 [Eh]
	 Singles Energy            =      -0.0000000000000000 [Eh]
	 Same-Spin Energy          =      -0.5059710865412689 [Eh]
	 Opposite-Spin Energy      =      -1.5076873864654199 [Eh]
	 Correlation Energy        =      -2.0136584730066889 [Eh]
	 Total Energy              =    -495.3377200583923354 [Eh]

	 ================> DF-SCS-MP2 Energies <==================
	-----------------------------------------------------------
	 SCS Same-Spin Scale       =       0.3333333333333333 [-]
	 SCS Opposite-Spin Scale   =       1.2000000000000000 [-]
	 SCS Same-Spin Energy      =      -0.1686570288470896 [Eh]
	 SCS Opposite-Spin Energy  =      -1.8092248637585038 [Eh]
	 SCS Correlation Energy    =      -1.9778818926055934 [Eh]
	 SCS Total Energy          =    -495.3019434779912444 [Eh]
	-----------------------------------------------------------

  Dipole Moment: [D]
     X:     2.9282      Y:    -1.2197      Z:    -0.3930     Total:     3.1964

*** Psi4 exiting successfully. Buy a developer a beer!
