                               Psi4 1.3.2 release

  ==> Input File <==

--------------------------------------------------------------------------
#psi4
#
memory 32 gb

molecule  {
0 1
  O       -0.0172455     2.2081103    -0.1613102
  O       -2.2585870    -1.3354710    -0.3679860
  O       -2.3909180     0.7817600     0.4224630
  C       -0.2229310    -0.2124960     0.0158460
  C        0.5432600     0.9664360    -0.0570110
  C        0.4335280    -1.4494910     0.0925130
  C        1.9402870     0.8816050    -0.0559020
  C        1.8233140    -1.5265410     0.1016630
  C        2.5770400    -0.3539830     0.0301550
  C       -1.7066960    -0.1573290     0.0554370
  H       -0.1661180    -2.3524960     0.1439440
  H        2.5301710     1.7954230    -0.1182500
  H        2.3148760    -2.4929130     0.1687580
  H        3.6635200    -0.3964420     0.0343940
  H        0.5733460     2.8632860    -0.2381370
  H       -3.2241600    -1.2056690    -0.2641310
units angstrom
no_reorient  #important for SAPT in psi4, default
symmetry c1  #important for SAPT in psi4, default
}

set PROPERTIES_ORIGIN ["COM"]
properties('MP2/aug-cc-pvtz', properties = ['dipole'])
--------------------------------------------------------------------------

    Molecular point group: c1
  Charge       = 0
  Multiplicity = 1
  Basis Set: AUG-CC-PVTZ
    Blend: AUG-CC-PVTZ
  Basis Set: (AUG-CC-PVTZ AUX)
    Blend: AUG-CC-PVTZ-JKFIT

    Orbital Energies [Eh]
    ---------------------

    Doubly Occupied:

       1A    -20.610764     2A    -20.591382     3A    -20.544100
       4A    -11.390528     5A    -11.333555     6A    -11.264939
       7A    -11.263916     8A    -11.259665     9A    -11.248500
      10A    -11.243186    11A     -1.454684    12A     -1.431589
      13A     -1.349726    14A     -1.169521    15A     -1.055900
      16A     -1.026816    17A     -0.900219    18A     -0.868749
      19A     -0.805819    20A     -0.762097    21A     -0.712739
      22A     -0.698642    23A     -0.674849    24A     -0.647542
      25A     -0.627274    26A     -0.625544    27A     -0.597752
      28A     -0.588577    29A     -0.579769    30A     -0.534003
      31A     -0.525182    32A     -0.499548    33A     -0.477559
      34A     -0.448141    35A     -0.362287    36A     -0.332800

  @DF-RHF Final Energy:  -493.35020036765036

   => Energetics <=

    Nuclear Repulsion Energy =            498.6274412006368379
    One-Electron Energy =               -1662.9395625266217849
    Two-Electron Energy =                 670.9619209583345310
    Total Energy =                       -493.3502003676503591
  Basis Set: (AUG-CC-PVTZ AUX)
    Blend: AUG-CC-PVTZ-RI
    Molecular point group: c1

    Geometry (in Angstrom), charge = 0, multiplicity = 1:

       Center              X                  Y                   Z               Mass
    ------------   -----------------  -----------------  -----------------  -----------------
         O            0.013576983200     2.190450739540    -0.162817553459    15.994914619570
         O           -2.227764516800    -1.353130560460    -0.369493353459    15.994914619570
         O           -2.360095516800     0.764100439540     0.420955646541    15.994914619570
         C           -0.192108516800    -0.230155560460     0.014338646541    12.000000000000
         C            0.574082483200     0.948776439540    -0.058518353459    12.000000000000
         C            0.464350483200    -1.467150560460     0.091005646541    12.000000000000
         C            1.971109483200     0.863945439540    -0.057409353459    12.000000000000
         C            1.854136483200    -1.544200560460     0.100155646541    12.000000000000
         C            2.607862483200    -0.371642560460     0.028647646541    12.000000000000
         C           -1.675873516800    -0.174988560460     0.053929646541    12.000000000000
         H           -0.135295516800    -2.370155560460     0.142436646541     1.007825032230
         H            2.560993483200     1.777763439540    -0.119757353459     1.007825032230
         H            2.345698483200    -2.510572560460     0.167250646541     1.007825032230
         H            3.694342483200    -0.414101560460     0.032886646541     1.007825032230
         H            0.604168483200     2.845626439540    -0.239644353459     1.007825032230
         H           -3.193337516800    -1.223328560460    -0.265638353459     1.007825032230

  Basis Set: AUG-CC-PVTZ
    Blend: AUG-CC-PVTZ
  Basis Set: (AUG-CC-PVTZ AUX)
    Blend: AUG-CC-PVTZ-JKFIT
	 Reference Energy          =    -493.3502003676503591 [Eh]
	 Singles Energy            =      -0.0000000000000000 [Eh]
	 Same-Spin Energy          =      -0.5038330657850631 [Eh]
	 Opposite-Spin Energy      =      -1.5010661623712254 [Eh]
	 Correlation Energy        =      -2.0048992281562885 [Eh]
	 Total Energy              =    -495.3550995958066210 [Eh]

	 ================> DF-SCS-MP2 Energies <==================
	-----------------------------------------------------------
	 SCS Same-Spin Scale       =       0.3333333333333333 [-]
	 SCS Opposite-Spin Scale   =       1.2000000000000000 [-]
	 SCS Same-Spin Energy      =      -0.1679443552616877 [Eh]
	 SCS Opposite-Spin Energy  =      -1.8012793948454704 [Eh]
	 SCS Correlation Energy    =      -1.9692237501071581 [Eh]
	 SCS Total Energy          =    -495.3194241177575350 [Eh]
	-----------------------------------------------------------

  Dipole Moment: [D]
     X:     2.6088      Y:    -0.5849      Z:    -0.4592     Total:     2.7127

*** Psi4 exiting successfully. Buy a developer a beer!
