                               Psi4 1.3.2 release

  ==> Input File <==

--------------------------------------------------------------------------
#psi4
#
memory 32 gb

molecule  {
0 1
  O       -0.1027990     2.1661630    -0.1573240
  O       -2.2585870    -1.3354710    -0.3679860
  O       -2.3909180     0.7817600     0.4224630
  C       -0.2229310    -0.2124960     0.0158460
  C        0.6237419     0.9100454    -0.0568405
  C        0.4335280    -1.4494910     0.0925130
  C        1.9402870     0.8816050    -0.0559020
  C        1.8233140    -1.5265410     0.1016630
  C        2.5770400    -0.3539830     0.0301550
  C       -1.7066960    -0.1573290     0.0554370
  H       -0.1661180    -2.3524960     0.1439440
  H        2.5301710     1.7954230    -0.1182500
  H        2.3148760    -2.4929130     0.1687580
  H        3.6635200    -0.3964420     0.0343940
  H        0.5733460     2.8632860    -0.2381370
  H       -3.2241600    -1.2056690    -0.2641310
units angstrom
no_reorient  #important for SAPT in psi4, default
symmetry c1  #important for SAPT in psi4, default
}

set PROPERTIES_ORIGIN ["COM"]
properties('MP2/aug-cc-pvtz', properties = ['dipole'])
--------------------------------------------------------------------------

    Molecular point group: c1
  Charge       = 0
  Multiplicity = 1
  Basis Set: AUG-CC-PVTZ
    Blend: AUG-CC-PVTZ
  Basis Set: (AUG-CC-PVTZ AUX)
    Blend: AUG-CC-PVTZ-JKFIT

    Orbital Energies [Eh]
    ---------------------

    Doubly Occupied:

       1A    -20.611981     2A    -20.586032     3A    -20.544119
       4A    -11.392760     5A    -11.321173     6A    -11.269047
       7A    -11.265610     8A    -11.261456     9A    -11.247239
      10A    -11.245030    11A     -1.455017    12A     -1.373526
      13A     -1.348875    14A     -1.179173    15A     -1.061943
      16A     -1.032441    17A     -0.904025    18A     -0.855833
      19A     -0.806510    20A     -0.734616    21A     -0.701999
      22A     -0.699260    23A     -0.673380    24A     -0.645341
      25A     -0.625714    26A     -0.618512    27A     -0.595030
      28A     -0.579120    29A     -0.574088    30A     -0.539571
      31A     -0.522234    32A     -0.498573    33A     -0.477372
      34A     -0.449080    35A     -0.366538    36A     -0.343502

  @DF-RHF Final Energy:  -493.34003717195776

   => Energetics <=

    Nuclear Repulsion Energy =            499.0431669707825790
    One-Electron Energy =               -1663.9549734551933398
    Two-Electron Energy =                 671.5717693124530570
    Total Energy =                       -493.3400371719577606
  Basis Set: (AUG-CC-PVTZ AUX)
    Blend: AUG-CC-PVTZ-RI
    Molecular point group: c1

    Geometry (in Angstrom), charge = 0, multiplicity = 1:

       Center              X                  Y                   Z               Mass
    ------------   -----------------  -----------------  -----------------  -----------------
         O           -0.069059519144     2.158266636981    -0.159308091277    15.994914619570
         O           -2.224847519144    -1.343367363019    -0.369970091277    15.994914619570
         O           -2.357178519144     0.773863636981     0.420478908723    15.994914619570
         C           -0.189191519144    -0.220392363019     0.013861908723    12.000000000000
         C            0.657481380856     0.902149036981    -0.058824591277    12.000000000000
         C            0.467267480856    -1.457387363019     0.090528908723    12.000000000000
         C            1.974026480856     0.873708636981    -0.057886091277    12.000000000000
         C            1.857053480856    -1.534437363019     0.099678908723    12.000000000000
         C            2.610779480856    -0.361879363019     0.028170908723    12.000000000000
         C           -1.672956519144    -0.165225363019     0.053452908723    12.000000000000
         H           -0.132378519144    -2.360392363019     0.141959908723     1.007825032230
         H            2.563910480856     1.787526636981    -0.120234091277     1.007825032230
         H            2.348615480856    -2.500809363019     0.166773908723     1.007825032230
         H            3.697259480856    -0.404338363019     0.032409908723     1.007825032230
         H            0.607085480856     2.855389636981    -0.240121091277     1.007825032230
         H           -3.190420519144    -1.213565363019    -0.266115091277     1.007825032230

  Basis Set: AUG-CC-PVTZ
    Blend: AUG-CC-PVTZ
  Basis Set: (AUG-CC-PVTZ AUX)
    Blend: AUG-CC-PVTZ-JKFIT
	 Reference Energy          =    -493.3400371719577606 [Eh]
	 Singles Energy            =      -0.0000000000000000 [Eh]
	 Same-Spin Energy          =      -0.5056792048656010 [Eh]
	 Opposite-Spin Energy      =      -1.5063472962387130 [Eh]
	 Correlation Energy        =      -2.0120265011043141 [Eh]
	 Total Energy              =    -495.3520636730620481 [Eh]

	 ================> DF-SCS-MP2 Energies <==================
	-----------------------------------------------------------
	 SCS Same-Spin Scale       =       0.3333333333333333 [-]
	 SCS Opposite-Spin Scale   =       1.2000000000000000 [-]
	 SCS Same-Spin Energy      =      -0.1685597349552003 [Eh]
	 SCS Opposite-Spin Energy  =      -1.8076167554864555 [Eh]
	 SCS Correlation Energy    =      -1.9761764904416559 [Eh]
	 SCS Total Energy          =    -495.3162136623994343 [Eh]
	-----------------------------------------------------------

  Dipole Moment: [D]
     X:     2.8348      Y:    -0.9794      Z:    -0.4166     Total:     3.0280

*** Psi4 exiting successfully. Buy a developer a beer!
