                               Psi4 1.3.2 release

  ==> Input File <==

--------------------------------------------------------------------------
#psi4
#
memory 32 gb

molecule  {
0 1
  O       -0.1027990     2.1661630    -0.1573240
  O       -2.2585870    -1.3354710    -0.3679860
  O       -2.3909180     0.7817600     0.4224630
  C       -0.2229310    -0.2124960     0.0158460
  C        0.6237886     0.9102203    -0.0535191
  C        0.4335280    -1.4494910     0.0925130
  C        1.9402870     0.8816050    -0.0559020
  C        1.8233140    -1.5265410     0.1016630
  C        2.5770400    -0.3539830     0.0301550
  C       -1.7066960    -0.1573290     0.0554370
  H       -0.1661180    -2.3524960     0.1439440
  H        2.5301710     1.7954230    -0.1182500
  H        2.3148760    -2.4929130     0.1687580
  H        3.6635200    -0.3964420     0.0343940
  H        0.5733460     2.8632860    -0.2381370
  H       -3.2241600    -1.2056690    -0.2641310
units angstrom
no_reorient  #important for SAPT in psi4, default
symmetry c1  #important for SAPT in psi4, default
}

set PROPERTIES_ORIGIN ["COM"]
properties('MP2/aug-cc-pvtz', properties = ['dipole'])
--------------------------------------------------------------------------

    Molecular point group: c1
  Charge       = 0
  Multiplicity = 1
  Basis Set: AUG-CC-PVTZ
    Blend: AUG-CC-PVTZ
  Basis Set: (AUG-CC-PVTZ AUX)
    Blend: AUG-CC-PVTZ-JKFIT

    Orbital Energies [Eh]
    ---------------------

    Doubly Occupied:

       1A    -20.611975     2A    -20.586011     3A    -20.544103
       4A    -11.392753     5A    -11.321174     6A    -11.269062
       7A    -11.265625     8A    -11.261459     9A    -11.247248
      10A    -11.245032    11A     -1.455009    12A     -1.373479
      13A     -1.348864    14A     -1.179187    15A     -1.061952
      16A     -1.032451    17A     -0.904029    18A     -0.855833
      19A     -0.806515    20A     -0.734614    21A     -0.701979
      22A     -0.699252    23A     -0.673380    24A     -0.645325
      25A     -0.625691    26A     -0.618542    27A     -0.595036
      28A     -0.579105    29A     -0.574073    30A     -0.539565
      31A     -0.522222    32A     -0.498578    33A     -0.477371
      34A     -0.449078    35A     -0.366551    36A     -0.343513

  @DF-RHF Final Energy:  -493.34002064962505

   => Energetics <=

    Nuclear Repulsion Energy =            499.0432552392105094
    One-Electron Energy =               -1663.9552816495458956
    Two-Electron Energy =                 671.5720057607103399
    Total Energy =                       -493.3400206496249893
  Basis Set: (AUG-CC-PVTZ AUX)
    Blend: AUG-CC-PVTZ-RI
    Molecular point group: c1

    Geometry (in Angstrom), charge = 0, multiplicity = 1:

       Center              X                  Y                   Z               Mass
    ------------   -----------------  -----------------  -----------------  -----------------
         O           -0.069063579082     2.158251431777    -0.159596842352    15.994914619570
         O           -2.224851579082    -1.343382568223    -0.370258842352    15.994914619570
         O           -2.357182579082     0.773848431777     0.420190157648    15.994914619570
         C           -0.189195579082    -0.220407568223     0.013573157648    12.000000000000
         C            0.657524020918     0.902308731777    -0.055791942352    12.000000000000
         C            0.467263420918    -1.457402568223     0.090240157648    12.000000000000
         C            1.974022420918     0.873693431777    -0.058174842352    12.000000000000
         C            1.857049420918    -1.534452568223     0.099390157648    12.000000000000
         C            2.610775420918    -0.361894568223     0.027882157648    12.000000000000
         C           -1.672960579082    -0.165240568223     0.053164157648    12.000000000000
         H           -0.132382579082    -2.360407568223     0.141671157648     1.007825032230
         H            2.563906420918     1.787511431777    -0.120522842352     1.007825032230
         H            2.348611420918    -2.500824568223     0.166485157648     1.007825032230
         H            3.697255420918    -0.404353568223     0.032121157648     1.007825032230
         H            0.607081420918     2.855374431777    -0.240409842352     1.007825032230
         H           -3.190424579082    -1.213580568223    -0.266403842352     1.007825032230

  Basis Set: AUG-CC-PVTZ
    Blend: AUG-CC-PVTZ
  Basis Set: (AUG-CC-PVTZ AUX)
    Blend: AUG-CC-PVTZ-JKFIT
	 Reference Energy          =    -493.3400206496250462 [Eh]
	 Singles Energy            =      -0.0000000000000000 [Eh]
	 Same-Spin Energy          =      -0.5056789233261028 [Eh]
	 Opposite-Spin Energy      =      -1.5063422045447366 [Eh]
	 Correlation Energy        =      -2.0120211278708391 [Eh]
	 Total Energy              =    -495.3520417774959128 [Eh]

	 ================> DF-SCS-MP2 Energies <==================
	-----------------------------------------------------------
	 SCS Same-Spin Scale       =       0.3333333333333333 [-]
	 SCS Opposite-Spin Scale   =       1.2000000000000000 [-]
	 SCS Same-Spin Energy      =      -0.1685596411087009 [Eh]
	 SCS Opposite-Spin Energy  =      -1.8076106454536838 [Eh]
	 SCS Correlation Energy    =      -1.9761702865623847 [Eh]
	 SCS Total Energy          =    -495.3161909361874109 [Eh]
	-----------------------------------------------------------

  Dipole Moment: [D]
     X:     2.8358      Y:    -0.9800      Z:    -0.4155     Total:     3.0290

*** Psi4 exiting successfully. Buy a developer a beer!
