                               Psi4 1.3.2 release

  ==> Input File <==

--------------------------------------------------------------------------
#psi4
#
memory 32 gb

molecule  {
0 1
  O       -0.0603900     2.1878807    -0.1593795
  O       -2.2585870    -1.3354710    -0.3679860
  O       -2.3909180     0.7817600     0.4224630
  C       -0.2229310    -0.2124960     0.0158460
  C        0.5432600     0.9664360    -0.0570110
  C        0.4335280    -1.4494910     0.0925130
  C        1.9402870     0.8816050    -0.0559020
  C        1.8233140    -1.5265410     0.1016630
  C        2.5770400    -0.3539830     0.0301550
  C       -1.7066960    -0.1573290     0.0554370
  H       -0.1661180    -2.3524960     0.1439440
  H        2.5301710     1.7954230    -0.1182500
  H        2.3148760    -2.4929130     0.1687580
  H        3.6635200    -0.3964420     0.0343940
  H        0.5733460     2.8632860    -0.2381370
  H       -3.2241600    -1.2056690    -0.2641310
units angstrom
no_reorient  #important for SAPT in psi4, default
symmetry c1  #important for SAPT in psi4, default
}

set PROPERTIES_ORIGIN ["COM"]
properties('MP2/aug-cc-pvtz', properties = ['dipole'])
--------------------------------------------------------------------------

    Molecular point group: c1
  Charge       = 0
  Multiplicity = 1
  Basis Set: AUG-CC-PVTZ
    Blend: AUG-CC-PVTZ
  Basis Set: (AUG-CC-PVTZ AUX)
    Blend: AUG-CC-PVTZ-JKFIT

    Orbital Energies [Eh]
    ---------------------

    Doubly Occupied:

       1A    -20.610264     2A    -20.597265     3A    -20.543394
       4A    -11.389897     5A    -11.332147     6A    -11.265312
       7A    -11.263408     8A    -11.258075     9A    -11.249169
      10A    -11.242855    11A     -1.454091    12A     -1.422881
      13A     -1.349072    14A     -1.168423    15A     -1.055463
      16A     -1.024682    17A     -0.898731    18A     -0.865080
      19A     -0.803058    20A     -0.754201    21A     -0.711131
      22A     -0.698214    23A     -0.675452    24A     -0.645804
      25A     -0.626234    26A     -0.624770    27A     -0.596954
      28A     -0.588800    29A     -0.580239    30A     -0.535541
      31A     -0.524582    32A     -0.499003    33A     -0.477018
      34A     -0.447392    35A     -0.362040    36A     -0.332399

  @DF-RHF Final Energy:  -493.35494496228222

   => Energetics <=

    Nuclear Repulsion Energy =            498.7736385901876588
    One-Electron Energy =               -1663.3110859783171236
    Two-Electron Energy =                 671.1825024258472467
    Total Energy =                       -493.3549449622822749
  Basis Set: (AUG-CC-PVTZ AUX)
    Blend: AUG-CC-PVTZ-RI
    Molecular point group: c1

    Geometry (in Angstrom), charge = 0, multiplicity = 1:

       Center              X                  Y                   Z               Mass
    ------------   -----------------  -----------------  -----------------  -----------------
         O           -0.024567994056     2.172565316557    -0.161110580204    15.994914619570
         O           -2.222764994056    -1.350786383443    -0.369717080204    15.994914619570
         O           -2.355095994056     0.766444616557     0.420731919796    15.994914619570
         C           -0.187108994056    -0.227811383443     0.014114919796    12.000000000000
         C            0.579082005944     0.951120616557    -0.058742080204    12.000000000000
         C            0.469350005944    -1.464806383443     0.090781919796    12.000000000000
         C            1.976109005944     0.866289616557    -0.057633080204    12.000000000000
         C            1.859136005944    -1.541856383443     0.099931919796    12.000000000000
         C            2.612862005944    -0.369298383443     0.028423919796    12.000000000000
         C           -1.670873994056    -0.172644383443     0.053705919796    12.000000000000
         H           -0.130295994056    -2.367811383443     0.142212919796     1.007825032230
         H            2.565993005944     1.780107616557    -0.119981080204     1.007825032230
         H            2.350698005944    -2.508228383443     0.167026919796     1.007825032230
         H            3.699342005944    -0.411757383443     0.032662919796     1.007825032230
         H            0.609168005944     2.847970616557    -0.239868080204     1.007825032230
         H           -3.188337994056    -1.220984383443    -0.265862080204     1.007825032230

  Basis Set: AUG-CC-PVTZ
    Blend: AUG-CC-PVTZ
  Basis Set: (AUG-CC-PVTZ AUX)
    Blend: AUG-CC-PVTZ-JKFIT
	 Reference Energy          =    -493.3549449622822181 [Eh]
	 Singles Energy            =      -0.0000000000000000 [Eh]
	 Same-Spin Energy          =      -0.5045474237829496 [Eh]
	 Opposite-Spin Energy      =      -1.5026375313286147 [Eh]
	 Correlation Energy        =      -2.0071849551115641 [Eh]
	 Total Energy              =    -495.3621299173937587 [Eh]

	 ================> DF-SCS-MP2 Energies <==================
	-----------------------------------------------------------
	 SCS Same-Spin Scale       =       0.3333333333333333 [-]
	 SCS Opposite-Spin Scale   =       1.2000000000000000 [-]
	 SCS Same-Spin Energy      =      -0.1681824745943165 [Eh]
	 SCS Opposite-Spin Energy  =      -1.8031650375943375 [Eh]
	 SCS Correlation Energy    =      -1.9713475121886541 [Eh]
	 SCS Total Energy          =    -495.3262924744708471 [Eh]
	-----------------------------------------------------------

  Dipole Moment: [D]
     X:     2.6338      Y:    -0.5251      Z:    -0.4611     Total:     2.7249

*** Psi4 exiting successfully. Buy a developer a beer!
