                               Psi4 1.3.2 release

  ==> Input File <==

--------------------------------------------------------------------------
#psi4
#
memory 32 gb

molecule  {
0 1
  O       -0.1027990     2.1661630    -0.1573240
  O       -2.2585870    -1.3354710    -0.3679860
  O       -2.3909180     0.7817600     0.4224630
  C       -0.2229310    -0.2124960     0.0158460
  C        0.5432600     0.9664360    -0.0570110
  C        0.3455230    -1.4919551     0.0984136
  C        1.9402870     0.8816050    -0.0559020
  C        1.8233140    -1.5265410     0.1016630
  C        2.5770400    -0.3539830     0.0301550
  C       -1.7066960    -0.1573290     0.0554370
  H       -0.1661180    -2.3524960     0.1439440
  H        2.5301710     1.7954230    -0.1182500
  H        2.3148760    -2.4929130     0.1687580
  H        3.6635200    -0.3964420     0.0343940
  H        0.5733460     2.8632860    -0.2381370
  H       -3.2241600    -1.2056690    -0.2641310
units angstrom
no_reorient  #important for SAPT in psi4, default
symmetry c1  #important for SAPT in psi4, default
}

set PROPERTIES_ORIGIN ["COM"]
properties('MP2/aug-cc-pvtz', properties = ['dipole'])
--------------------------------------------------------------------------

    Molecular point group: c1
  Charge       = 0
  Multiplicity = 1
  Basis Set: AUG-CC-PVTZ
    Blend: AUG-CC-PVTZ
  Basis Set: (AUG-CC-PVTZ AUX)
    Blend: AUG-CC-PVTZ-JKFIT

    Orbital Energies [Eh]
    ---------------------

    Doubly Occupied:

       1A    -20.610121     2A    -20.602504     3A    -20.542211
       4A    -11.387724     5A    -11.330982     6A    -11.267804
       7A    -11.263984     8A    -11.260496     9A    -11.251415
      10A    -11.250123    11A     -1.453969    12A     -1.415059
      13A     -1.348381    14A     -1.160530    15A     -1.058385
      16A     -1.014573    17A     -0.894939    18A     -0.869448
      19A     -0.796881    20A     -0.754582    21A     -0.707427
      22A     -0.696926    23A     -0.670499    24A     -0.646076
      25A     -0.640891    26A     -0.624409    27A     -0.596132
      28A     -0.588649    29A     -0.574338    30A     -0.538695
      31A     -0.526834    32A     -0.493260    33A     -0.475865
      34A     -0.443297    35A     -0.364061    36A     -0.324966

  @DF-RHF Final Energy:  -493.33956520315803

   => Energetics <=

    Nuclear Repulsion Energy =            498.1613718164741726
    One-Electron Energy =               -1662.1090052252845908
    Two-Electron Energy =                 670.6080682056523301
    Total Energy =                       -493.3395652031580312
  Basis Set: (AUG-CC-PVTZ AUX)
    Blend: AUG-CC-PVTZ-RI
    Molecular point group: c1

    Geometry (in Angstrom), charge = 0, multiplicity = 1:

       Center              X                  Y                   Z               Mass
    ------------   -----------------  -----------------  -----------------  -----------------
         O           -0.054411848449     2.157055915043    -0.159806246433    15.994914619570
         O           -2.210199848449    -1.344578084957    -0.370468246433    15.994914619570
         O           -2.342530848449     0.772652915043     0.419980753567    15.994914619570
         C           -0.174543848449    -0.221603084957     0.013363753567    12.000000000000
         C            0.591647151551     0.957328915043    -0.059493246433    12.000000000000
         C            0.393910151551    -1.501062184957     0.095931353567    12.000000000000
         C            1.988674151551     0.872497915043    -0.058384246433    12.000000000000
         C            1.871701151551    -1.535648084957     0.099180753567    12.000000000000
         C            2.625427151551    -0.363090084957     0.027672753567    12.000000000000
         C           -1.658308848449    -0.166436084957     0.052954753567    12.000000000000
         H           -0.117730848449    -2.361603084957     0.141461753567     1.007825032230
         H            2.578558151551     1.786315915043    -0.120732246433     1.007825032230
         H            2.363263151551    -2.502020084957     0.166275753567     1.007825032230
         H            3.711907151551    -0.405549084957     0.031911753567     1.007825032230
         H            0.621733151551     2.854178915043    -0.240619246433     1.007825032230
         H           -3.175772848449    -1.214776084957    -0.266613246433     1.007825032230

  Basis Set: AUG-CC-PVTZ
    Blend: AUG-CC-PVTZ
  Basis Set: (AUG-CC-PVTZ AUX)
    Blend: AUG-CC-PVTZ-JKFIT
	 Reference Energy          =    -493.3395652031580312 [Eh]
	 Singles Energy            =      -0.0000000000000000 [Eh]
	 Same-Spin Energy          =      -0.5055208654655686 [Eh]
	 Opposite-Spin Energy      =      -1.5056212059316865 [Eh]
	 Correlation Energy        =      -2.0111420713972552 [Eh]
	 Total Energy              =    -495.3507072745553046 [Eh]

	 ================> DF-SCS-MP2 Energies <==================
	-----------------------------------------------------------
	 SCS Same-Spin Scale       =       0.3333333333333333 [-]
	 SCS Opposite-Spin Scale   =       1.2000000000000000 [-]
	 SCS Same-Spin Energy      =      -0.1685069551551895 [Eh]
	 SCS Opposite-Spin Energy  =      -1.8067454471180238 [Eh]
	 SCS Correlation Energy    =      -1.9752524022732132 [Eh]
	 SCS Total Energy          =    -495.3148176054312444 [Eh]
	-----------------------------------------------------------

  Dipole Moment: [D]
     X:     2.6385      Y:    -0.4862      Z:    -0.4677     Total:     2.7233

*** Psi4 exiting successfully. Buy a developer a beer!
