                               Psi4 1.3.2 release

  ==> Input File <==

--------------------------------------------------------------------------
#psi4
#
memory 32 gb

molecule  {
0 1
  O       -0.1027990     2.1661630    -0.1573240
  O       -2.2585870    -1.3354710    -0.3679860
  O       -2.3909180     0.7817600     0.4224630
  C       -0.2229310    -0.2124960     0.0158460
  C        0.5840159     0.9390296    -0.0553084
  C        0.4335280    -1.4494910     0.0925130
  C        1.9402870     0.8816050    -0.0559020
  C        1.8233140    -1.5265410     0.1016630
  C        2.5770400    -0.3539830     0.0301550
  C       -1.7066960    -0.1573290     0.0554370
  H       -0.1661180    -2.3524960     0.1439440
  H        2.5301710     1.7954230    -0.1182500
  H        2.3148760    -2.4929130     0.1687580
  H        3.6635200    -0.3964420     0.0343940
  H        0.5733460     2.8632860    -0.2381370
  H       -3.2241600    -1.2056690    -0.2641310
units angstrom
no_reorient  #important for SAPT in psi4, default
symmetry c1  #important for SAPT in psi4, default
}

set PROPERTIES_ORIGIN ["COM"]
properties('MP2/aug-cc-pvtz', properties = ['dipole'])
--------------------------------------------------------------------------

    Molecular point group: c1
  Charge       = 0
  Multiplicity = 1
  Basis Set: AUG-CC-PVTZ
    Blend: AUG-CC-PVTZ
  Basis Set: (AUG-CC-PVTZ AUX)
    Blend: AUG-CC-PVTZ-JKFIT

    Orbital Energies [Eh]
    ---------------------

    Doubly Occupied:

       1A    -20.610940     2A    -20.594275     3A    -20.543478
       4A    -11.391087     5A    -11.325906     6A    -11.267344
       7A    -11.264254     8A    -11.259029     9A    -11.247565
      10A    -11.245007    11A     -1.454295    12A     -1.393380
      13A     -1.348825    14A     -1.173052    15A     -1.057891
      16A     -1.028139    17A     -0.901007    18A     -0.858299
      19A     -0.803749    20A     -0.738508    21A     -0.706445
      22A     -0.698605    23A     -0.674327    24A     -0.643703
      25A     -0.625585    26A     -0.621405    27A     -0.592660
      28A     -0.586352    29A     -0.577494    30A     -0.537823
      31A     -0.525059    32A     -0.499075    33A     -0.476990
      34A     -0.448032    35A     -0.363638    36A     -0.338221

  @DF-RHF Final Energy:  -493.34992356690503

   => Energetics <=

    Nuclear Repulsion Energy =            498.9782605517714273
    One-Electron Energy =               -1663.8134798706723814
    Two-Electron Energy =                 671.4852957519958636
    Total Energy =                       -493.3499235669050904
  Basis Set: (AUG-CC-PVTZ AUX)
    Blend: AUG-CC-PVTZ-RI
    Molecular point group: c1

    Geometry (in Angstrom), charge = 0, multiplicity = 1:

       Center              X                  Y                   Z               Mass
    ------------   -----------------  -----------------  -----------------  -----------------
         O           -0.065605877550     2.155746850475    -0.159441286774    15.994914619570
         O           -2.221393877550    -1.345887149525    -0.370103286774    15.994914619570
         O           -2.353724877550     0.771343850475     0.420345713226    15.994914619570
         C           -0.185737877550    -0.222912149525     0.013728713226    12.000000000000
         C            0.621209022450     0.928613450475    -0.057425686774    12.000000000000
         C            0.470721122450    -1.459907149525     0.090395713226    12.000000000000
         C            1.977480122450     0.871188850475    -0.058019286774    12.000000000000
         C            1.860507122450    -1.536957149525     0.099545713226    12.000000000000
         C            2.614233122450    -0.364399149525     0.028037713226    12.000000000000
         C           -1.669502877550    -0.167745149525     0.053319713226    12.000000000000
         H           -0.128924877550    -2.362912149525     0.141826713226     1.007825032230
         H            2.567364122450     1.785006850475    -0.120367286774     1.007825032230
         H            2.352069122450    -2.503329149525     0.166640713226     1.007825032230
         H            3.700713122450    -0.406858149525     0.032276713226     1.007825032230
         H            0.610539122450     2.852869850475    -0.240254286774     1.007825032230
         H           -3.186966877550    -1.216085149525    -0.266248286774     1.007825032230

  Basis Set: AUG-CC-PVTZ
    Blend: AUG-CC-PVTZ
  Basis Set: (AUG-CC-PVTZ AUX)
    Blend: AUG-CC-PVTZ-JKFIT
	 Reference Energy          =    -493.3499235669050336 [Eh]
	 Singles Energy            =      -0.0000000000000000 [Eh]
	 Same-Spin Energy          =      -0.5054820526197980 [Eh]
	 Opposite-Spin Energy      =      -1.5052657052339895 [Eh]
	 Correlation Energy        =      -2.0107477578537876 [Eh]
	 Total Energy              =    -495.3606713247588118 [Eh]

	 ================> DF-SCS-MP2 Energies <==================
	-----------------------------------------------------------
	 SCS Same-Spin Scale       =       0.3333333333333333 [-]
	 SCS Opposite-Spin Scale   =       1.2000000000000000 [-]
	 SCS Same-Spin Energy      =      -0.1684940175399327 [Eh]
	 SCS Opposite-Spin Energy  =      -1.8063188462807873 [Eh]
	 SCS Correlation Energy    =      -1.9748128638207199 [Eh]
	 SCS Total Energy          =    -495.3247364307257499 [Eh]
	-----------------------------------------------------------

  Dipole Moment: [D]
     X:     2.7448      Y:    -0.7311      Z:    -0.4386     Total:     2.8741

*** Psi4 exiting successfully. Buy a developer a beer!
