                               Psi4 1.3.2 release

  ==> Input File <==

--------------------------------------------------------------------------
#psi4
#
memory 32 gb

molecule  {
0 1
  O       -0.1027990     2.1661630    -0.1573240
  O       -2.2585870    -1.3354710    -0.3679860
  O       -2.3909180     0.7817600     0.4224630
  C       -0.2229310    -0.2124960     0.0158460
  C        0.5432600     0.9664360    -0.0570110
  C        0.4335280    -1.4494910     0.0925130
  C        1.9402870     0.8816050    -0.0559020
  C        1.8233140    -1.5265410     0.1016630
  C        2.5770400    -0.3539830     0.0301550
  C       -1.5943909    -0.3114668    -0.0048050
  H       -0.1661180    -2.3524960     0.1439440
  H        2.5301710     1.7954230    -0.1182500
  H        2.3148760    -2.4929130     0.1687580
  H        3.6635200    -0.3964420     0.0343940
  H        0.5733460     2.8632860    -0.2381370
  H       -3.2241600    -1.2056690    -0.2641310
units angstrom
no_reorient  #important for SAPT in psi4, default
symmetry c1  #important for SAPT in psi4, default
}

set PROPERTIES_ORIGIN ["COM"]
properties('MP2/aug-cc-pvtz', properties = ['dipole'])
--------------------------------------------------------------------------

    Molecular point group: c1
  Charge       = 0
  Multiplicity = 1
  Basis Set: AUG-CC-PVTZ
    Blend: AUG-CC-PVTZ
  Basis Set: (AUG-CC-PVTZ AUX)
    Blend: AUG-CC-PVTZ-JKFIT

    Orbital Energies [Eh]
    ---------------------

    Doubly Occupied:

       1A    -20.632919     2A    -20.605302     3A    -20.498780
       4A    -11.391438     5A    -11.344912     6A    -11.277315
       7A    -11.273469     8A    -11.257419     9A    -11.257118
      10A    -11.249410    11A     -1.485579    12A     -1.417454
      13A     -1.232752    14A     -1.179120    15A     -1.078864
      16A     -1.031352    17A     -0.927951    18A     -0.872820
      19A     -0.827644    20A     -0.754413    21A     -0.740483
      22A     -0.698965    23A     -0.680395    24A     -0.654509
      25A     -0.639861    26A     -0.625627    27A     -0.601006
      28A     -0.592891    29A     -0.549487    30A     -0.532308
      31A     -0.509449    32A     -0.498970    33A     -0.421954
      34A     -0.407720    35A     -0.363141    36A     -0.337431

  @DF-RHF Final Energy:  -493.28738268414895

   => Energetics <=

    Nuclear Repulsion Energy =            499.4304092008576390
    One-Electron Energy =               -1664.5351256848678076
    Two-Electron Energy =                 671.8173337998612169
    Total Energy =                       -493.2873826841489517
  Basis Set: (AUG-CC-PVTZ AUX)
    Blend: AUG-CC-PVTZ-RI
    Molecular point group: c1

    Geometry (in Angstrom), charge = 0, multiplicity = 1:

       Center              X                  Y                   Z               Mass
    ------------   -----------------  -----------------  -----------------  -----------------
         O           -0.071826118530     2.166764441837    -0.154056036632    15.994914619570
         O           -2.227614118530    -1.334869558163    -0.364718036632    15.994914619570
         O           -2.359945118530     0.782361441837     0.425730963368    15.994914619570
         C           -0.191958118530    -0.211894558163     0.019113963368    12.000000000000
         C            0.574232881470     0.967037441837    -0.053743036632    12.000000000000
         C            0.464500881470    -1.448889558163     0.095780963368    12.000000000000
         C            1.971259881470     0.882206441837    -0.052634036632    12.000000000000
         C            1.854286881470    -1.525939558163     0.104930963368    12.000000000000
         C            2.608012881470    -0.353381558163     0.033422963368    12.000000000000
         C           -1.563418018530    -0.310865358163    -0.001537036632    12.000000000000
         H           -0.135145118530    -2.351894558163     0.147211963368     1.007825032230
         H            2.561143881470     1.796024441837    -0.114982036632     1.007825032230
         H            2.345848881470    -2.492311558163     0.172025963368     1.007825032230
         H            3.694492881470    -0.395840558163     0.037661963368     1.007825032230
         H            0.604318881470     2.863887441837    -0.234869036632     1.007825032230
         H           -3.193187118530    -1.205067558163    -0.260863036632     1.007825032230

  Basis Set: AUG-CC-PVTZ
    Blend: AUG-CC-PVTZ
  Basis Set: (AUG-CC-PVTZ AUX)
    Blend: AUG-CC-PVTZ-JKFIT
	 Reference Energy          =    -493.2873826841489517 [Eh]
	 Singles Energy            =      -0.0000000000000000 [Eh]
	 Same-Spin Energy          =      -0.5099323206830886 [Eh]
	 Opposite-Spin Energy      =      -1.5127213480638637 [Eh]
	 Correlation Energy        =      -2.0226536687469521 [Eh]
	 Total Energy              =    -495.3100363528959065 [Eh]

	 ================> DF-SCS-MP2 Energies <==================
	-----------------------------------------------------------
	 SCS Same-Spin Scale       =       0.3333333333333333 [-]
	 SCS Opposite-Spin Scale   =       1.2000000000000000 [-]
	 SCS Same-Spin Energy      =      -0.1699774402276962 [Eh]
	 SCS Opposite-Spin Energy  =      -1.8152656176766364 [Eh]
	 SCS Correlation Energy    =      -1.9852430579043325 [Eh]
	 SCS Total Energy          =    -495.2726257420532647 [Eh]
	-----------------------------------------------------------

  Dipole Moment: [D]
     X:     3.4194      Y:    -1.3619      Z:    -0.8804     Total:     3.7845

*** Psi4 exiting successfully. Buy a developer a beer!
