                               Psi4 1.3.2 release

  ==> Input File <==

--------------------------------------------------------------------------
#psi4
#
memory 32 gb

molecule  {
0 1
  O       -0.1027990     2.1661630    -0.1573240
  O       -2.2585870    -1.3354710    -0.3679860
  O       -2.3909180     0.7817600     0.4224630
  C       -0.2229310    -0.2124960     0.0158460
  C        0.5839925     0.9389421    -0.0569701
  C        0.4335280    -1.4494910     0.0925130
  C        1.9402870     0.8816050    -0.0559020
  C        1.8233140    -1.5265410     0.1016630
  C        2.5770400    -0.3539830     0.0301550
  C       -1.7066960    -0.1573290     0.0554370
  H       -0.1661180    -2.3524960     0.1439440
  H        2.5301710     1.7954230    -0.1182500
  H        2.3148760    -2.4929130     0.1687580
  H        3.6635200    -0.3964420     0.0343940
  H        0.5733460     2.8632860    -0.2381370
  H       -3.2241600    -1.2056690    -0.2641310
units angstrom
no_reorient  #important for SAPT in psi4, default
symmetry c1  #important for SAPT in psi4, default
}

set PROPERTIES_ORIGIN ["COM"]
properties('MP2/aug-cc-pvtz', properties = ['dipole'])
--------------------------------------------------------------------------

    Molecular point group: c1
  Charge       = 0
  Multiplicity = 1
  Basis Set: AUG-CC-PVTZ
    Blend: AUG-CC-PVTZ
  Basis Set: (AUG-CC-PVTZ AUX)
    Blend: AUG-CC-PVTZ-JKFIT

    Orbital Energies [Eh]
    ---------------------

    Doubly Occupied:

       1A    -20.610942     2A    -20.594286     3A    -20.543485
       4A    -11.391090     5A    -11.325906     6A    -11.267337
       7A    -11.264247     8A    -11.259027     9A    -11.247563
      10A    -11.245002    11A     -1.454299    12A     -1.393407
      13A     -1.348829    14A     -1.173046    15A     -1.057887
      16A     -1.028133    17A     -0.901006    18A     -0.858301
      19A     -0.803747    20A     -0.738512    21A     -0.706453
      22A     -0.698607    23A     -0.674328    24A     -0.643717
      25A     -0.625598    26A     -0.621386    27A     -0.592654
      28A     -0.586366    29A     -0.577500    30A     -0.537825
      31A     -0.525062    32A     -0.499072    33A     -0.476990
      34A     -0.448032    35A     -0.363632    36A     -0.338215

  @DF-RHF Final Energy:  -493.34992915417661

   => Energetics <=

    Nuclear Repulsion Energy =            498.9782933974060484
    One-Electron Energy =               -1663.8134629188418785
    Two-Electron Energy =                 671.4852403672591663
    Total Energy =                       -493.3499291541766070
  Basis Set: (AUG-CC-PVTZ AUX)
    Blend: AUG-CC-PVTZ-RI
    Molecular point group: c1

    Geometry (in Angstrom), charge = 0, multiplicity = 1:

       Center              X                  Y                   Z               Mass
    ------------   -----------------  -----------------  -----------------  -----------------
         O           -0.065603843234     2.155754457424    -0.159296824300    15.994914619570
         O           -2.221391843234    -1.345879542576    -0.369958824300    15.994914619570
         O           -2.353722843234     0.771351457424     0.420490175700    15.994914619570
         C           -0.185735843234    -0.222904542576     0.013873175700    12.000000000000
         C            0.621187656766     0.928533557424    -0.058942924300    12.000000000000
         C            0.470723156766    -1.459899542576     0.090540175700    12.000000000000
         C            1.977482156766     0.871196457424    -0.057874824300    12.000000000000
         C            1.860509156766    -1.536949542576     0.099690175700    12.000000000000
         C            2.614235156766    -0.364391542576     0.028182175700    12.000000000000
         C           -1.669500843234    -0.167737542576     0.053464175700    12.000000000000
         H           -0.128922843234    -2.362904542576     0.141971175700     1.007825032230
         H            2.567366156766     1.785014457424    -0.120222824300     1.007825032230
         H            2.352071156766    -2.503321542576     0.166785175700     1.007825032230
         H            3.700715156766    -0.406850542576     0.032421175700     1.007825032230
         H            0.610541156766     2.852877457424    -0.240109824300     1.007825032230
         H           -3.186964843234    -1.216077542576    -0.266103824300     1.007825032230

  Basis Set: AUG-CC-PVTZ
    Blend: AUG-CC-PVTZ
  Basis Set: (AUG-CC-PVTZ AUX)
    Blend: AUG-CC-PVTZ-JKFIT
	 Reference Energy          =    -493.3499291541766070 [Eh]
	 Singles Energy            =      -0.0000000000000000 [Eh]
	 Same-Spin Energy          =      -0.5054821516115311 [Eh]
	 Opposite-Spin Energy      =      -1.5052683090200776 [Eh]
	 Correlation Energy        =      -2.0107504606316087 [Eh]
	 Total Energy              =    -495.3606796148081912 [Eh]

	 ================> DF-SCS-MP2 Energies <==================
	-----------------------------------------------------------
	 SCS Same-Spin Scale       =       0.3333333333333333 [-]
	 SCS Opposite-Spin Scale   =       1.2000000000000000 [-]
	 SCS Same-Spin Energy      =      -0.1684940505371770 [Eh]
	 SCS Opposite-Spin Energy  =      -1.8063219708240930 [Eh]
	 SCS Correlation Energy    =      -1.9748160213612700 [Eh]
	 SCS Total Energy          =    -495.3247451755378847 [Eh]
	-----------------------------------------------------------

  Dipole Moment: [D]
     X:     2.7443      Y:    -0.7307      Z:    -0.4391     Total:     2.8736

*** Psi4 exiting successfully. Buy a developer a beer!
