                               Psi4 1.3.2 release

  ==> Input File <==

--------------------------------------------------------------------------
#psi4
#
memory 32 gb

molecule  {
0 1
  O       -0.1027990     2.1661630    -0.1573240
  O       -2.2585870    -1.3354710    -0.3679860
  O       -2.3553168     0.8036447     0.4303724
  C       -0.2229310    -0.2124960     0.0158460
  C        0.5432600     0.9664360    -0.0570110
  C        0.4335280    -1.4494910     0.0925130
  C        1.9402870     0.8816050    -0.0559020
  C        1.8233140    -1.5265410     0.1016630
  C        2.5770400    -0.3539830     0.0301550
  C       -1.7066960    -0.1573290     0.0554370
  H       -0.1661180    -2.3524960     0.1439440
  H        2.5301710     1.7954230    -0.1182500
  H        2.3148760    -2.4929130     0.1687580
  H        3.6635200    -0.3964420     0.0343940
  H        0.5733460     2.8632860    -0.2381370
  H       -3.2241600    -1.2056690    -0.2641310
units angstrom
no_reorient  #important for SAPT in psi4, default
symmetry c1  #important for SAPT in psi4, default
}

set PROPERTIES_ORIGIN ["COM"]
properties('MP2/aug-cc-pvtz', properties = ['dipole'])
--------------------------------------------------------------------------

    Molecular point group: c1
  Charge       = 0
  Multiplicity = 1
  Basis Set: AUG-CC-PVTZ
    Blend: AUG-CC-PVTZ
  Basis Set: (AUG-CC-PVTZ AUX)
    Blend: AUG-CC-PVTZ-JKFIT

    Orbital Energies [Eh]
    ---------------------

    Doubly Occupied:

       1A    -20.613280     2A    -20.601359     3A    -20.543467
       4A    -11.389640     5A    -11.329756     6A    -11.264569
       7A    -11.261651     8A    -11.254834     9A    -11.248973
      10A    -11.241655    11A     -1.453903    12A     -1.414034
      13A     -1.351614    14A     -1.166294    15A     -1.053801
      16A     -1.021894    17A     -0.897225    18A     -0.860870
      19A     -0.801332    20A     -0.745086    21A     -0.709337
      22A     -0.698586    23A     -0.675746    24A     -0.644000
      25A     -0.625694    26A     -0.623118    27A     -0.595435
      28A     -0.588810    29A     -0.579023    30A     -0.536815
      31A     -0.522638    32A     -0.497813    33A     -0.477996
      34A     -0.446338    35A     -0.360600    36A     -0.330911

  @DF-RHF Final Energy:  -493.35302456915952

   => Energetics <=

    Nuclear Repulsion Energy =            499.3250396817250021
    One-Electron Energy =               -1664.4999286697518528
    Two-Electron Energy =                 671.8218644188673352
    Total Energy =                       -493.3530245691595155
  Basis Set: (AUG-CC-PVTZ AUX)
    Blend: AUG-CC-PVTZ-RI
    Molecular point group: c1

    Geometry (in Angstrom), charge = 0, multiplicity = 1:

       Center              X                  Y                   Z               Mass
    ------------   -----------------  -----------------  -----------------  -----------------
         O           -0.066188115962     2.150828264837    -0.160209798516    15.994914619570
         O           -2.221976115962    -1.350805735163    -0.370871798516    15.994914619570
         O           -2.318705915962     0.788309964837     0.427486601484    15.994914619570
         C           -0.186320115962    -0.227830735163     0.012960201484    12.000000000000
         C            0.579870884038     0.951101264837    -0.059896798516    12.000000000000
         C            0.470138884038    -1.464825735163     0.089627201484    12.000000000000
         C            1.976897884038     0.866270264837    -0.058787798516    12.000000000000
         C            1.859924884038    -1.541875735163     0.098777201484    12.000000000000
         C            2.613650884038    -0.369317735163     0.027269201484    12.000000000000
         C           -1.670085115962    -0.172663735163     0.052551201484    12.000000000000
         H           -0.129507115962    -2.367830735163     0.141058201484     1.007825032230
         H            2.566781884038     1.780088264837    -0.121135798516     1.007825032230
         H            2.351486884038    -2.508247735163     0.165872201484     1.007825032230
         H            3.700130884038    -0.411776735163     0.031508201484     1.007825032230
         H            0.609956884038     2.847951264837    -0.241022798516     1.007825032230
         H           -3.187549115962    -1.221003735163    -0.267016798516     1.007825032230

  Basis Set: AUG-CC-PVTZ
    Blend: AUG-CC-PVTZ
  Basis Set: (AUG-CC-PVTZ AUX)
    Blend: AUG-CC-PVTZ-JKFIT
	 Reference Energy          =    -493.3530245691595155 [Eh]
	 Singles Energy            =      -0.0000000000000000 [Eh]
	 Same-Spin Energy          =      -0.5055352158673475 [Eh]
	 Opposite-Spin Energy      =      -1.5047534153529361 [Eh]
	 Correlation Energy        =      -2.0102886312202837 [Eh]
	 Total Energy              =    -495.3633132003798210 [Eh]

	 ================> DF-SCS-MP2 Energies <==================
	-----------------------------------------------------------
	 SCS Same-Spin Scale       =       0.3333333333333333 [-]
	 SCS Opposite-Spin Scale   =       1.2000000000000000 [-]
	 SCS Same-Spin Energy      =      -0.1685117386224492 [Eh]
	 SCS Opposite-Spin Energy  =      -1.8057040984235231 [Eh]
	 SCS Correlation Energy    =      -1.9742158370459721 [Eh]
	 SCS Total Energy          =    -495.3272404062054761 [Eh]
	-----------------------------------------------------------

  Dipole Moment: [D]
     X:     2.5074      Y:    -0.5100      Z:    -0.4765     Total:     2.6028

*** Psi4 exiting successfully. Buy a developer a beer!
