                               Psi4 1.3.2 release

  ==> Input File <==

--------------------------------------------------------------------------
#psi4
#
memory 32 gb

molecule  {
0 1
  O       -0.1027990     2.1661630    -0.1573240
  O       -2.2585870    -1.3354710    -0.3679860
  O       -2.3909180     0.7817600     0.4224630
  C       -0.2229310    -0.2124960     0.0158460
  C        0.5637578     0.9529103    -0.0561707
  C        0.4335280    -1.4494910     0.0925130
  C        1.9402870     0.8816050    -0.0559020
  C        1.8233140    -1.5265410     0.1016630
  C        2.5770400    -0.3539830     0.0301550
  C       -1.7066960    -0.1573290     0.0554370
  H       -0.1661180    -2.3524960     0.1439440
  H        2.5301710     1.7954230    -0.1182500
  H        2.3148760    -2.4929130     0.1687580
  H        3.6635200    -0.3964420     0.0343940
  H        0.5733460     2.8632860    -0.2381370
  H       -3.2241600    -1.2056690    -0.2641310
units angstrom
no_reorient  #important for SAPT in psi4, default
symmetry c1  #important for SAPT in psi4, default
}

set PROPERTIES_ORIGIN ["COM"]
properties('MP2/aug-cc-pvtz', properties = ['dipole'])
--------------------------------------------------------------------------

    Molecular point group: c1
  Charge       = 0
  Multiplicity = 1
  Basis Set: AUG-CC-PVTZ
    Blend: AUG-CC-PVTZ
  Basis Set: (AUG-CC-PVTZ AUX)
    Blend: AUG-CC-PVTZ-JKFIT

    Orbital Energies [Eh]
    ---------------------

    Doubly Occupied:

       1A    -20.610384     2A    -20.598449     3A    -20.543117
       4A    -11.390212     5A    -11.328421     6A    -11.266504
       7A    -11.263583     8A    -11.257802     9A    -11.248754
      10A    -11.243813    11A     -1.453931    12A     -1.404077
      13A     -1.348659    14A     -1.170187    15A     -1.056340
      16A     -1.025629    17A     -0.899423    18A     -0.859899
      19A     -0.802437    20A     -0.741799    21A     -0.707998
      22A     -0.698196    23A     -0.675082    24A     -0.643674
      25A     -0.625461    26A     -0.622572    27A     -0.592403
      28A     -0.589603    29A     -0.578995    30A     -0.537326
      31A     -0.524813    32A     -0.498892    33A     -0.476760
      34A     -0.447372    35A     -0.362621    36A     -0.335203

  @DF-RHF Final Energy:  -493.35261311804868

   => Energetics <=

    Nuclear Repulsion Energy =            498.9674535063206804
    One-Electron Energy =               -1663.7793515026655768
    Two-Electron Energy =                 671.4592848782962164
    Total Energy =                       -493.3526131180486800
  Basis Set: (AUG-CC-PVTZ AUX)
    Blend: AUG-CC-PVTZ-RI
    Molecular point group: c1

    Geometry (in Angstrom), charge = 0, multiplicity = 1:

       Center              X                  Y                   Z               Mass
    ------------   -----------------  -----------------  -----------------  -----------------
         O           -0.063844708119     2.154540110232    -0.159366321382    15.994914619570
         O           -2.219632708119    -1.347093889768    -0.370028321382    15.994914619570
         O           -2.351963708119     0.770137110232     0.420420678618    15.994914619570
         C           -0.183976708119    -0.224118889768     0.013803678618    12.000000000000
         C            0.602712091881     0.941287410232    -0.058213021382    12.000000000000
         C            0.472482291881    -1.461113889768     0.090470678618    12.000000000000
         C            1.979241291881     0.869982110232    -0.057944321382    12.000000000000
         C            1.862268291881    -1.538163889768     0.099620678618    12.000000000000
         C            2.615994291881    -0.365605889768     0.028112678618    12.000000000000
         C           -1.667741708119    -0.168951889768     0.053394678618    12.000000000000
         H           -0.127163708119    -2.364118889768     0.141901678618     1.007825032230
         H            2.569125291881     1.783800110232    -0.120292321382     1.007825032230
         H            2.353830291881    -2.504535889768     0.166715678618     1.007825032230
         H            3.702474291881    -0.408064889768     0.032351678618     1.007825032230
         H            0.612300291881     2.851663110232    -0.240179321382     1.007825032230
         H           -3.185205708119    -1.217291889768    -0.266173321382     1.007825032230

  Basis Set: AUG-CC-PVTZ
    Blend: AUG-CC-PVTZ
  Basis Set: (AUG-CC-PVTZ AUX)
    Blend: AUG-CC-PVTZ-JKFIT
	 Reference Energy          =    -493.3526131180486800 [Eh]
	 Singles Energy            =      -0.0000000000000000 [Eh]
	 Same-Spin Energy          =      -0.5054095804196627 [Eh]
	 Opposite-Spin Energy      =      -1.5048203087530887 [Eh]
	 Correlation Energy        =      -2.0102298891727512 [Eh]
	 Total Energy              =    -495.3628430072214428 [Eh]

	 ================> DF-SCS-MP2 Energies <==================
	-----------------------------------------------------------
	 SCS Same-Spin Scale       =       0.3333333333333333 [-]
	 SCS Opposite-Spin Scale   =       1.2000000000000000 [-]
	 SCS Same-Spin Energy      =      -0.1684698601398875 [Eh]
	 SCS Opposite-Spin Energy  =      -1.8057843705037064 [Eh]
	 SCS Correlation Energy    =      -1.9742542306435940 [Eh]
	 SCS Total Energy          =    -495.3268673486922467 [Eh]
	-----------------------------------------------------------

  Dipole Moment: [D]
     X:     2.6995      Y:    -0.6027      Z:    -0.4504     Total:     2.8024

*** Psi4 exiting successfully. Buy a developer a beer!
