                               Psi4 1.4a3.dev225

  ==> Input File <==

--------------------------------------------------------------------------
#psi4
#
memory 32 gb

molecule  {
0 1
  O       -0.1026610     2.1662260    -0.1575610
  O       -2.2584930    -1.3355120    -0.3678820
  O       -2.3910220     0.7817980     0.4224010
  C       -0.2229580    -0.2124560     0.0160270
  C        0.5432810     0.9664510    -0.0570850
  C        0.4334420    -1.4495130     0.0922690
  C        1.9403100     0.8815900    -0.0555280
  C        1.8232300    -1.5265840     0.1016960
  C        2.5770020    -0.3540720     0.0300640
  C       -1.6867229    -0.1580062     0.0549813
  H       -0.1662180    -2.3524950     0.1438230
  H        2.5302810     1.7953260    -0.1182260
  H        2.3147800    -2.4929990     0.1682820
  H        3.6634790    -0.3965710     0.0346780
  H        0.5735000     2.8633950    -0.2378390
  H       -3.2240480    -1.2056750    -0.2641070
units angstrom
no_reorient  #important for SAPT in psi4, default
symmetry c1  #important for SAPT in psi4, default
}

set PROPERTIES_ORIGIN ["COM"]
properties('MP2/aug-cc-pvtz', properties = ['dipole'])
--------------------------------------------------------------------------

    Molecular point group: c1
  Charge       = 0
  Multiplicity = 1
  Basis Set: AUG-CC-PVTZ
    Blend: AUG-CC-PVTZ
  Basis Set: (AUG-CC-PVTZ AUX)
    Blend: AUG-CC-PVTZ-JKFIT

    Orbital Energies [Eh]
    ---------------------

    Doubly Occupied:

       1A    -20.607201     2A    -20.603883     3A    -20.540710
       4A    -11.389435     5A    -11.333052     6A    -11.267572
       7A    -11.264782     8A    -11.256737     9A    -11.251080
      10A    -11.243770    11A     -1.447354    12A     -1.416247
      13A     -1.339783    14A     -1.169532    15A     -1.058772
      16A     -1.024556    17A     -0.901027    18A     -0.863336
      19A     -0.801000    20A     -0.746904    21A     -0.710015
      22A     -0.695167    23A     -0.675860    24A     -0.643473
      25A     -0.625373    26A     -0.621792    27A     -0.596243
      28A     -0.589048    29A     -0.580055    30A     -0.537287
      31A     -0.524683    32A     -0.499580    33A     -0.472309
      34A     -0.445641    35A     -0.363304    36A     -0.333416

  @DF-RHF Final Energy:  -493.35175460279720

   => Energetics <=

    Nuclear Repulsion Energy =            499.0537003280214776
    One-Electron Energy =               -1663.9309487566354164
    Two-Electron Energy =                 671.5254938258167385
    Total Energy =                       -493.3517546027972003
  Basis Set: (AUG-CC-PVTZ AUX)
    Blend: AUG-CC-PVTZ-RI
    Molecular point group: c1

    Geometry (in Angstrom), charge = 0, multiplicity = 1:

       Center              X                  Y                   Z               Mass
    ------------   -----------------  -----------------  -----------------  -----------------
         O           -0.063660334978     2.153490582647    -0.159483857876    15.994914619570
         O           -2.219492334978    -1.348247417353    -0.369804857876    15.994914619570
         O           -2.352021334978     0.769062582647     0.420478142124    15.994914619570
         C           -0.183957334978    -0.225191417353     0.014104142124    12.000000000000
         C            0.582281665022     0.953715582647    -0.059007857876    12.000000000000
         C            0.472442665022    -1.462248417353     0.090346142124    12.000000000000
         C            1.979310665022     0.868854582647    -0.057450857876    12.000000000000
         C            1.862230665022    -1.539319417353     0.099773142124    12.000000000000
         C            2.616002665022    -0.366807417353     0.028141142124    12.000000000000
         C           -1.647722234978    -0.170741617353     0.053058442124    12.000000000000
         H           -0.127217334978    -2.365230417353     0.141900142124     1.007825032230
         H            2.569281665022     1.782590582647    -0.120148857876     1.007825032230
         H            2.353780665022    -2.505734417353     0.166359142124     1.007825032230
         H            3.702479665022    -0.409306417353     0.032755142124     1.007825032230
         H            0.612500665022     2.850659582647    -0.239761857876     1.007825032230
         H           -3.185047334978    -1.218410417353    -0.266029857876     1.007825032230

  Basis Set: AUG-CC-PVTZ
    Blend: AUG-CC-PVTZ
  Basis Set: (AUG-CC-PVTZ AUX)
    Blend: AUG-CC-PVTZ-JKFIT
	 Reference Energy          =    -493.3517546027972003 [Eh]
	 Singles Energy            =      -0.0000000000000000 [Eh]
	 Same-Spin Energy          =      -0.5057400115069677 [Eh]
	 Opposite-Spin Energy      =      -1.5052777901987007 [Eh]
	 Correlation Energy        =      -2.0110178017056684 [Eh]
	 Total Energy              =    -495.3627724045028913 [Eh]

	 ================> DF-SCS-MP2 Energies <==================
	-----------------------------------------------------------
	 SCS Same-Spin Scale       =       0.3333333333333333 [-]
	 SCS Opposite-Spin Scale   =       1.2000000000000000 [-]
	 SCS Same-Spin Energy      =      -0.1685800038356559 [Eh]
	 SCS Opposite-Spin Energy  =      -1.8063333482384407 [Eh]
	 SCS Correlation Energy    =      -1.9749133520740967 [Eh]
	 SCS Total Energy          =    -495.3266679548713114 [Eh]
	-----------------------------------------------------------

  Dipole Moment: [D]
     X:     2.8350      Y:    -0.4582      Z:    -0.4625     Total:     2.9088

*** Psi4 exiting successfully. Buy a developer a beer!
