                               Psi4 1.3.2 release

  ==> Input File <==

--------------------------------------------------------------------------
#psi4
#
memory 32 gb

molecule  {
0 1
  O       -0.1027990     2.1661630    -0.1573240
  O       -2.2585870    -1.3354710    -0.3679860
  O       -2.3909180     0.7817600     0.4224630
  C       -0.2229310    -0.2124960     0.0158460
  C        0.5432600     0.9664360    -0.0570110
  C        0.4335280    -1.4494910     0.0925130
  C        1.9402870     0.8816050    -0.0559020
  C        1.8233140    -1.5265410     0.1016630
  C        2.5770400    -0.3539830     0.0301550
  C       -1.7470339    -0.2434398     0.0244889
  H       -0.1661180    -2.3524960     0.1439440
  H        2.5301710     1.7954230    -0.1182500
  H        2.3148760    -2.4929130     0.1687580
  H        3.6635200    -0.3964420     0.0343940
  H        0.5733460     2.8632860    -0.2381370
  H       -3.2241600    -1.2056690    -0.2641310
units angstrom
no_reorient  #important for SAPT in psi4, default
symmetry c1  #important for SAPT in psi4, default
}

set PROPERTIES_ORIGIN ["COM"]
properties('MP2/aug-cc-pvtz', properties = ['dipole'])
--------------------------------------------------------------------------

    Molecular point group: c1
  Charge       = 0
  Multiplicity = 1
  Basis Set: AUG-CC-PVTZ
    Blend: AUG-CC-PVTZ
  Basis Set: (AUG-CC-PVTZ AUX)
    Blend: AUG-CC-PVTZ-JKFIT

    Orbital Energies [Eh]
    ---------------------

    Doubly Occupied:

       1A    -20.639100     2A    -20.597573     3A    -20.528618
       4A    -11.393601     5A    -11.328191     6A    -11.262200
       7A    -11.259378     8A    -11.256799     9A    -11.247860
      10A    -11.240361    11A     -1.503167    12A     -1.410349
      13A     -1.321901    14A     -1.163945    15A     -1.049880
      16A     -1.019472    17A     -0.906460    18A     -0.859583
      19A     -0.817143    20A     -0.746052    21A     -0.718840
      22A     -0.710348    23A     -0.675564    24A     -0.654293
      25A     -0.639021    26A     -0.619978    27A     -0.595609
      28A     -0.587312    29A     -0.562507    30A     -0.530636
      31A     -0.520696    32A     -0.496171    33A     -0.459230
      34A     -0.436487    35A     -0.358396    36A     -0.328491

  @DF-RHF Final Energy:  -493.33966279311710

   => Energetics <=

    Nuclear Repulsion Energy =            498.6566480532972037
    One-Electron Energy =               -1663.1021991653590248
    Two-Electron Energy =                 671.1058883189447215
    Total Energy =                       -493.3396627931170997
  Basis Set: (AUG-CC-PVTZ AUX)
    Blend: AUG-CC-PVTZ-RI
    Molecular point group: c1

    Geometry (in Angstrom), charge = 0, multiplicity = 1:

       Center              X                  Y                   Z               Mass
    ------------   -----------------  -----------------  -----------------  -----------------
         O           -0.058555861923     2.160850408791    -0.156602747388    15.994914619570
         O           -2.214343861923    -1.340783591209    -0.367264747388    15.994914619570
         O           -2.346674861923     0.776447408791     0.423184252612    15.994914619570
         C           -0.178687861923    -0.217808591209     0.016567252612    12.000000000000
         C            0.587503138077     0.961123408791    -0.056289747388    12.000000000000
         C            0.477771138077    -1.454803591209     0.093234252612    12.000000000000
         C            1.984530138077     0.876292408791    -0.055180747388    12.000000000000
         C            1.867557138077    -1.531853591209     0.102384252612    12.000000000000
         C            2.621283138077    -0.359295591209     0.030876252612    12.000000000000
         C           -1.702790761923    -0.248752391209     0.025210152612    12.000000000000
         H           -0.121874861923    -2.357808591209     0.144665252612     1.007825032230
         H            2.574414138077     1.790110408791    -0.117528747388     1.007825032230
         H            2.359119138077    -2.498225591209     0.169479252612     1.007825032230
         H            3.707763138077    -0.401754591209     0.035115252612     1.007825032230
         H            0.617589138077     2.857973408791    -0.237415747388     1.007825032230
         H           -3.179916861923    -1.210981591209    -0.263409747388     1.007825032230

  Basis Set: AUG-CC-PVTZ
    Blend: AUG-CC-PVTZ
  Basis Set: (AUG-CC-PVTZ AUX)
    Blend: AUG-CC-PVTZ-JKFIT
	 Reference Energy          =    -493.3396627931170997 [Eh]
	 Singles Energy            =      -0.0000000000000000 [Eh]
	 Same-Spin Energy          =      -0.5060017073588363 [Eh]
	 Opposite-Spin Energy      =      -1.5049482621713737 [Eh]
	 Correlation Energy        =      -2.0109499695302100 [Eh]
	 Total Energy              =    -495.3506127626473017 [Eh]

	 ================> DF-SCS-MP2 Energies <==================
	-----------------------------------------------------------
	 SCS Same-Spin Scale       =       0.3333333333333333 [-]
	 SCS Opposite-Spin Scale   =       1.2000000000000000 [-]
	 SCS Same-Spin Energy      =      -0.1686672357862788 [Eh]
	 SCS Opposite-Spin Energy  =      -1.8059379146056482 [Eh]
	 SCS Correlation Energy    =      -1.9746051503919271 [Eh]
	 SCS Total Energy          =    -495.3142679435090372 [Eh]
	-----------------------------------------------------------

  Dipole Moment: [D]
     X:     2.2203      Y:    -1.1338      Z:    -0.7300     Total:     2.5977

*** Psi4 exiting successfully. Buy a developer a beer!
