                               Psi4 1.4a3.dev225

  ==> Input File <==

--------------------------------------------------------------------------
#psi4
#
memory 32 gb

molecule  {
0 1
  O       -0.1026610     2.1662260    -0.1575610
  O       -2.2584930    -1.3355120    -0.3678820
  O       -2.3910220     0.7817980     0.4224010
  C       -0.2229580    -0.2124560     0.0160270
  C        0.5432810     0.9664510    -0.0570850
  C        0.4334420    -1.4495130     0.0922690
  C        1.9403100     0.8815900    -0.0555280
  C        1.8232300    -1.5265840     0.1016960
  C        2.5770020    -0.3540720     0.0300640
  C       -1.7067020    -0.1572630     0.0555130
  H       -0.1662180    -2.3524950     0.1438230
  H        2.5302810     1.7953260    -0.1182260
  H        2.3147800    -2.4929990     0.1682820
  H        3.6634790    -0.3965710     0.0346780
  H        0.5873768     2.8777030    -0.2394865
  H       -3.2240480    -1.2056750    -0.2641070
units angstrom
no_reorient  #important for SAPT in psi4, default
symmetry c1  #important for SAPT in psi4, default
}

set PROPERTIES_ORIGIN ["COM"]
properties('MP2/aug-cc-pvtz', properties = ['dipole'])
--------------------------------------------------------------------------

    Molecular point group: c1
  Charge       = 0
  Multiplicity = 1
  Basis Set: AUG-CC-PVTZ
    Blend: AUG-CC-PVTZ
  Basis Set: (AUG-CC-PVTZ AUX)
    Blend: AUG-CC-PVTZ-JKFIT

    Orbital Energies [Eh]
    ---------------------

    Doubly Occupied:

       1A    -20.609715     2A    -20.604263     3A    -20.542654
       4A    -11.389220     5A    -11.330841     6A    -11.265560
       7A    -11.262838     8A    -11.256444     9A    -11.249704
      10A    -11.242417    11A     -1.453466    12A     -1.411228
      13A     -1.348335    14A     -1.167056    15A     -1.054887
      16A     -1.022287    17A     -0.897588    18A     -0.860404
      19A     -0.800871    20A     -0.743250    21A     -0.708319
      22A     -0.697646    23A     -0.675715    24A     -0.643919
      25A     -0.624961    26A     -0.623327    27A     -0.595708
      28A     -0.588509    29A     -0.579395    30A     -0.536749
      31A     -0.523360    32A     -0.498210    33A     -0.476431
      34A     -0.446478    35A     -0.361739    36A     -0.331773

  @DF-RHF Final Energy:  -493.35215155674234

   => Energetics <=

    Nuclear Repulsion Energy =            498.8426161832462640
    One-Electron Energy =               -1663.5390048524204758
    Two-Electron Energy =                 671.3442371124318697
    Total Energy =                       -493.3521515567423421
  Basis Set: (AUG-CC-PVTZ AUX)
    Blend: AUG-CC-PVTZ-RI
    Molecular point group: c1

    Geometry (in Angstrom), charge = 0, multiplicity = 1:

       Center              X                  Y                   Z               Mass
    ------------   -----------------  -----------------  -----------------  -----------------
         O           -0.062024740956     2.153321502924    -0.159518052981    15.994914619570
         O           -2.217856740956    -1.348416497076    -0.369839052981    15.994914619570
         O           -2.350385740956     0.768893502924     0.420443947019    15.994914619570
         C           -0.182321740956    -0.225360497076     0.014069947019    12.000000000000
         C            0.583917259044     0.953546502924    -0.059042052981    12.000000000000
         C            0.474078259044    -1.462417497076     0.090311947019    12.000000000000
         C            1.980946259044     0.868685502924    -0.057485052981    12.000000000000
         C            1.863866259044    -1.539488497076     0.099738947019    12.000000000000
         C            2.617638259044    -0.366976497076     0.028106947019    12.000000000000
         C           -1.666065740956    -0.170167497076     0.053555947019    12.000000000000
         H           -0.125581740956    -2.365399497076     0.141865947019     1.007825032230
         H            2.570917259044     1.782421502924    -0.120183052981     1.007825032230
         H            2.355416259044    -2.505903497076     0.166324947019     1.007825032230
         H            3.704115259044    -0.409475497076     0.032720947019     1.007825032230
         H            0.628013059044     2.864798502924    -0.241443552981     1.007825032230
         H           -3.183411740956    -1.218579497076    -0.266064052981     1.007825032230

  Basis Set: AUG-CC-PVTZ
    Blend: AUG-CC-PVTZ
  Basis Set: (AUG-CC-PVTZ AUX)
    Blend: AUG-CC-PVTZ-JKFIT
	 Reference Energy          =    -493.3521515567423421 [Eh]
	 Singles Energy            =      -0.0000000000000000 [Eh]
	 Same-Spin Energy          =      -0.5056085744398646 [Eh]
	 Opposite-Spin Energy      =      -1.5050818327130195 [Eh]
	 Correlation Energy        =      -2.0106904071528842 [Eh]
	 Total Energy              =    -495.3628419638952209 [Eh]

	 ================> DF-SCS-MP2 Energies <==================
	-----------------------------------------------------------
	 SCS Same-Spin Scale       =       0.3333333333333333 [-]
	 SCS Opposite-Spin Scale   =       1.2000000000000000 [-]
	 SCS Same-Spin Energy      =      -0.1685361914799549 [Eh]
	 SCS Opposite-Spin Energy  =      -1.8060981992556233 [Eh]
	 SCS Correlation Energy    =      -1.9746343907355781 [Eh]
	 SCS Total Energy          =    -495.3267859474779016 [Eh]
	-----------------------------------------------------------

  Dipole Moment: [D]
     X:     2.6620      Y:    -0.4501      Z:    -0.4639     Total:     2.7393

*** Psi4 exiting successfully. Buy a developer a beer!
