                               Psi4 1.3.2 release

  ==> Input File <==

--------------------------------------------------------------------------
#psi4
#
memory 32 gb

molecule  {
0 1
  O       -0.1027990     2.1661630    -0.1573240
  O       -2.2585870    -1.3354710    -0.3679860
  O       -2.3909180     0.7817600     0.4224630
  C       -0.2229310    -0.2124960     0.0158460
  C        0.4139144     0.9060191    -0.0484919
  C        0.4335280    -1.4494910     0.0925130
  C        1.9402870     0.8816050    -0.0559020
  C        1.8233140    -1.5265410     0.1016630
  C        2.5770400    -0.3539830     0.0301550
  C       -1.7066960    -0.1573290     0.0554370
  H       -0.1661180    -2.3524960     0.1439440
  H        2.5301710     1.7954230    -0.1182500
  H        2.3148760    -2.4929130     0.1687580
  H        3.6635200    -0.3964420     0.0343940
  H        0.5733460     2.8632860    -0.2381370
  H       -3.2241600    -1.2056690    -0.2641310
units angstrom
no_reorient  #important for SAPT in psi4, default
symmetry c1  #important for SAPT in psi4, default
}

set PROPERTIES_ORIGIN ["COM"]
properties('MP2/aug-cc-pvtz', properties = ['dipole'])
--------------------------------------------------------------------------

    Molecular point group: c1
  Charge       = 0
  Multiplicity = 1
  Basis Set: AUG-CC-PVTZ
    Blend: AUG-CC-PVTZ
  Basis Set: (AUG-CC-PVTZ AUX)
    Blend: AUG-CC-PVTZ-JKFIT

    Orbital Energies [Eh]
    ---------------------

    Doubly Occupied:

       1A    -20.611288     2A    -20.598692     3A    -20.545031
       4A    -11.390127     5A    -11.330781     6A    -11.261584
       7A    -11.261508     8A    -11.260296     9A    -11.245396
      10A    -11.243346    11A     -1.455647    12A     -1.410201
      13A     -1.350627    14A     -1.172519    15A     -1.067525
      16A     -1.011533    17A     -0.893546    18A     -0.870995
      19A     -0.796595    20A     -0.751611    21A     -0.711421
      22A     -0.696907    23A     -0.672064    24A     -0.657545
      25A     -0.628304    26A     -0.624290    27A     -0.594675
      28A     -0.585013    29A     -0.576165    30A     -0.535862
      31A     -0.513234    32A     -0.498368    33A     -0.477851
      34A     -0.444128    35A     -0.371709    36A     -0.326572

  @DF-RHF Final Energy:  -493.32901133514918

   => Energetics <=

    Nuclear Repulsion Energy =            500.0321714246261422
    One-Electron Energy =               -1665.8364459989725219
    Two-Electron Energy =                 672.4752632391972611
    Total Energy =                       -493.3290113351491755
  Basis Set: (AUG-CC-PVTZ AUX)
    Blend: AUG-CC-PVTZ-RI
    Molecular point group: c1

    Geometry (in Angstrom), charge = 0, multiplicity = 1:

       Center              X                  Y                   Z               Mass
    ------------   -----------------  -----------------  -----------------  -----------------
         O           -0.050817839092     2.158616669633    -0.160033889803    15.994914619570
         O           -2.206605839092    -1.343017330367    -0.370695889803    15.994914619570
         O           -2.338936839092     0.774213669633     0.419753110197    15.994914619570
         C           -0.170949839092    -0.220042330367     0.013136110197    12.000000000000
         C            0.465895560908     0.898472769633    -0.051201789803    12.000000000000
         C            0.485509160908    -1.457037330367     0.089803110197    12.000000000000
         C            1.992268160908     0.874058669633    -0.058611889803    12.000000000000
         C            1.875295160908    -1.534087330367     0.098953110197    12.000000000000
         C            2.629021160908    -0.361529330367     0.027445110197    12.000000000000
         C           -1.654714839092    -0.164875330367     0.052727110197    12.000000000000
         H           -0.114136839092    -2.360042330367     0.141234110197     1.007825032230
         H            2.582152160908     1.787876669633    -0.120959889803     1.007825032230
         H            2.366857160908    -2.500459330367     0.166048110197     1.007825032230
         H            3.715501160908    -0.403988330367     0.031684110197     1.007825032230
         H            0.625327160908     2.855739669633    -0.240846889803     1.007825032230
         H           -3.172178839092    -1.213215330367    -0.266840889803     1.007825032230

  Basis Set: AUG-CC-PVTZ
    Blend: AUG-CC-PVTZ
  Basis Set: (AUG-CC-PVTZ AUX)
    Blend: AUG-CC-PVTZ-JKFIT
	 Reference Energy          =    -493.3290113351491755 [Eh]
	 Singles Energy            =      -0.0000000000000000 [Eh]
	 Same-Spin Energy          =      -0.5044359119692301 [Eh]
	 Opposite-Spin Energy      =      -1.5048849045642529 [Eh]
	 Correlation Energy        =      -2.0093208165334833 [Eh]
	 Total Energy              =    -495.3383321516826641 [Eh]

	 ================> DF-SCS-MP2 Energies <==================
	-----------------------------------------------------------
	 SCS Same-Spin Scale       =       0.3333333333333333 [-]
	 SCS Opposite-Spin Scale   =       1.2000000000000000 [-]
	 SCS Same-Spin Energy      =      -0.1681453039897434 [Eh]
	 SCS Opposite-Spin Energy  =      -1.8058618854771034 [Eh]
	 SCS Correlation Energy    =      -1.9740071894668467 [Eh]
	 SCS Total Energy          =    -495.3030185246160499 [Eh]
	-----------------------------------------------------------

  Dipole Moment: [D]
     X:     2.5784      Y:    -0.4978      Z:    -0.4553     Total:     2.6652

*** Psi4 exiting successfully. Buy a developer a beer!
