                               Psi4 1.3.2 release

  ==> Input File <==

--------------------------------------------------------------------------
#psi4
#
memory 32 gb

molecule  {
0 1
  O       -0.1027990     2.1661630    -0.1573240
  O       -2.2585870    -1.3354710    -0.3679860
  O       -2.3909180     0.7817600     0.4224630
  C       -0.2229310    -0.2124960     0.0158460
  C        0.5637461     0.9528666    -0.0570017
  C        0.4335280    -1.4494910     0.0925130
  C        1.9402870     0.8816050    -0.0559020
  C        1.8233140    -1.5265410     0.1016630
  C        2.5770400    -0.3539830     0.0301550
  C       -1.7066960    -0.1573290     0.0554370
  H       -0.1661180    -2.3524960     0.1439440
  H        2.5301710     1.7954230    -0.1182500
  H        2.3148760    -2.4929130     0.1687580
  H        3.6635200    -0.3964420     0.0343940
  H        0.5733460     2.8632860    -0.2381370
  H       -3.2241600    -1.2056690    -0.2641310
units angstrom
no_reorient  #important for SAPT in psi4, default
symmetry c1  #important for SAPT in psi4, default
}

set PROPERTIES_ORIGIN ["COM"]
properties('MP2/aug-cc-pvtz', properties = ['dipole'])
--------------------------------------------------------------------------

    Molecular point group: c1
  Charge       = 0
  Multiplicity = 1
  Basis Set: AUG-CC-PVTZ
    Blend: AUG-CC-PVTZ
  Basis Set: (AUG-CC-PVTZ AUX)
    Blend: AUG-CC-PVTZ-JKFIT

    Orbital Energies [Eh]
    ---------------------

    Doubly Occupied:

       1A    -20.610386     2A    -20.598455     3A    -20.543121
       4A    -11.390213     5A    -11.328421     6A    -11.266501
       7A    -11.263580     8A    -11.257801     9A    -11.248753
      10A    -11.243810    11A     -1.453933    12A     -1.404092
      13A     -1.348661    14A     -1.170184    15A     -1.056338
      16A     -1.025626    17A     -0.899423    18A     -0.859900
      19A     -0.802436    20A     -0.741802    21A     -0.708001
      22A     -0.698198    23A     -0.675083    24A     -0.643682
      25A     -0.625467    26A     -0.622563    27A     -0.592402
      28A     -0.589609    29A     -0.578998    30A     -0.537326
      31A     -0.524814    32A     -0.498890    33A     -0.476760
      34A     -0.447371    35A     -0.362619    36A     -0.335200

  @DF-RHF Final Energy:  -493.35261518068904

   => Energetics <=

    Nuclear Repulsion Energy =            498.9674892590953732
    One-Electron Energy =               -1663.7793773549958587
    Two-Electron Energy =                 671.4592729152113861
    Total Energy =                       -493.3526151806890994
  Basis Set: (AUG-CC-PVTZ AUX)
    Blend: AUG-CC-PVTZ-RI
    Molecular point group: c1

    Geometry (in Angstrom), charge = 0, multiplicity = 1:

       Center              X                  Y                   Z               Mass
    ------------   -----------------  -----------------  -----------------  -----------------
         O           -0.063843690961     2.154543909360    -0.159294077105    15.994914619570
         O           -2.219631690961    -1.347090090640    -0.369956077105    15.994914619570
         O           -2.351962690961     0.770140909360     0.420492922895    15.994914619570
         C           -0.183975690961    -0.224115090640     0.013875922895    12.000000000000
         C            0.602701409039     0.941247509360    -0.058971777105    12.000000000000
         C            0.472483309039    -1.461110090640     0.090542922895    12.000000000000
         C            1.979242309039     0.869985909360    -0.057872077105    12.000000000000
         C            1.862269309039    -1.538160090640     0.099692922895    12.000000000000
         C            2.615995309039    -0.365602090640     0.028184922895    12.000000000000
         C           -1.667740690961    -0.168948090640     0.053466922895    12.000000000000
         H           -0.127162690961    -2.364115090640     0.141973922895     1.007825032230
         H            2.569126309039     1.783803909360    -0.120220077105     1.007825032230
         H            2.353831309039    -2.504532090640     0.166787922895     1.007825032230
         H            3.702475309039    -0.408061090640     0.032423922895     1.007825032230
         H            0.612301309039     2.851666909360    -0.240107077105     1.007825032230
         H           -3.185204690961    -1.217288090640    -0.266101077105     1.007825032230

  Basis Set: AUG-CC-PVTZ
    Blend: AUG-CC-PVTZ
  Basis Set: (AUG-CC-PVTZ AUX)
    Blend: AUG-CC-PVTZ-JKFIT
	 Reference Energy          =    -493.3526151806890425 [Eh]
	 Singles Energy            =      -0.0000000000000000 [Eh]
	 Same-Spin Energy          =      -0.5054096155312385 [Eh]
	 Opposite-Spin Energy      =      -1.5048215669171392 [Eh]
	 Correlation Energy        =      -2.0102311824483778 [Eh]
	 Total Energy              =    -495.3628463631374075 [Eh]

	 ================> DF-SCS-MP2 Energies <==================
	-----------------------------------------------------------
	 SCS Same-Spin Scale       =       0.3333333333333333 [-]
	 SCS Opposite-Spin Scale   =       1.2000000000000000 [-]
	 SCS Same-Spin Energy      =      -0.1684698718437462 [Eh]
	 SCS Opposite-Spin Energy  =      -1.8057858803005669 [Eh]
	 SCS Correlation Energy    =      -1.9742557521443129 [Eh]
	 SCS Total Energy          =    -495.3268709328333443 [Eh]
	-----------------------------------------------------------

  Dipole Moment: [D]
     X:     2.6992      Y:    -0.6025      Z:    -0.4507     Total:     2.8021

*** Psi4 exiting successfully. Buy a developer a beer!
