                               Psi4 1.3.2 release

  ==> Input File <==

--------------------------------------------------------------------------
#psi4
#
memory 32 gb

molecule  {
0 1
  O       -0.1237115     2.1547543    -0.1562503
  O       -2.2585870    -1.3354710    -0.3679860
  O       -2.3909180     0.7817600     0.4224630
  C       -0.2229310    -0.2124960     0.0158460
  C        0.5432600     0.9664360    -0.0570110
  C        0.4335280    -1.4494910     0.0925130
  C        1.9402870     0.8816050    -0.0559020
  C        1.8233140    -1.5265410     0.1016630
  C        2.5770400    -0.3539830     0.0301550
  C       -1.7066960    -0.1573290     0.0554370
  H       -0.1661180    -2.3524960     0.1439440
  H        2.5301710     1.7954230    -0.1182500
  H        2.3148760    -2.4929130     0.1687580
  H        3.6635200    -0.3964420     0.0343940
  H        0.5733460     2.8632860    -0.2381370
  H       -3.2241600    -1.2056690    -0.2641310
units angstrom
no_reorient  #important for SAPT in psi4, default
symmetry c1  #important for SAPT in psi4, default
}

set PROPERTIES_ORIGIN ["COM"]
properties('MP2/aug-cc-pvtz', properties = ['dipole'])
--------------------------------------------------------------------------

    Molecular point group: c1
  Charge       = 0
  Multiplicity = 1
  Basis Set: AUG-CC-PVTZ
    Blend: AUG-CC-PVTZ
  Basis Set: (AUG-CC-PVTZ AUX)
    Blend: AUG-CC-PVTZ-JKFIT

    Orbital Energies [Eh]
    ---------------------

    Doubly Occupied:

       1A    -20.609585     2A    -20.605197     3A    -20.542401
       4A    -11.389027     5A    -11.330531     6A    -11.265838
       7A    -11.262680     8A    -11.255842     9A    -11.250228
      10A    -11.242441    11A     -1.453355    12A     -1.411756
      13A     -1.348132    14A     -1.166998    15A     -1.054875
      16A     -1.022210    17A     -0.897496    18A     -0.860261
      19A     -0.800579    20A     -0.741958    21A     -0.707616
      22A     -0.697603    23A     -0.676411    24A     -0.643373
      25A     -0.624951    26A     -0.622822    27A     -0.595912
      28A     -0.588966    29A     -0.580087    30A     -0.537801
      31A     -0.522928    32A     -0.498238    33A     -0.476257
      34A     -0.446212    35A     -0.361731    36A     -0.331845

  @DF-RHF Final Energy:  -493.35138298723791

   => Energetics <=

    Nuclear Repulsion Energy =            499.0890841401973717
    One-Electron Energy =               -1664.0326497221492446
    Two-Electron Energy =                 671.5921825947139041
    Total Energy =                       -493.3513829872379119
  Basis Set: (AUG-CC-PVTZ AUX)
    Blend: AUG-CC-PVTZ-RI
    Molecular point group: c1

    Geometry (in Angstrom), charge = 0, multiplicity = 1:

       Center              X                  Y                   Z               Mass
    ------------   -----------------  -----------------  -----------------  -----------------
         O           -0.080551889508     2.143277556250    -0.158343987410    15.994914619570
         O           -2.215427389508    -1.346947743750    -0.370079687410    15.994914619570
         O           -2.347758389508     0.770283256250     0.420369312590    15.994914619570
         C           -0.179771389508    -0.223972743750     0.013752312590    12.000000000000
         C            0.586419610492     0.954959256250    -0.059104687410    12.000000000000
         C            0.476687610492    -1.460967743750     0.090419312590    12.000000000000
         C            1.983446610492     0.870128256250    -0.057995687410    12.000000000000
         C            1.866473610492    -1.538017743750     0.099569312590    12.000000000000
         C            2.620199610492    -0.365459743750     0.028061312590    12.000000000000
         C           -1.663536389508    -0.168805743750     0.053343312590    12.000000000000
         H           -0.122958389508    -2.363972743750     0.141850312590     1.007825032230
         H            2.573330610492     1.783946256250    -0.120343687410     1.007825032230
         H            2.358035610492    -2.504389743750     0.166664312590     1.007825032230
         H            3.706679610492    -0.407918743750     0.032300312590     1.007825032230
         H            0.616505610492     2.851809256250    -0.240230687410     1.007825032230
         H           -3.181000389508    -1.217145743750    -0.266224687410     1.007825032230

  Basis Set: AUG-CC-PVTZ
    Blend: AUG-CC-PVTZ
  Basis Set: (AUG-CC-PVTZ AUX)
    Blend: AUG-CC-PVTZ-JKFIT
	 Reference Energy          =    -493.3513829872379119 [Eh]
	 Singles Energy            =      -0.0000000000000000 [Eh]
	 Same-Spin Energy          =      -0.5057799101277757 [Eh]
	 Opposite-Spin Energy      =      -1.5054104743689729 [Eh]
	 Correlation Energy        =      -2.0111903844967487 [Eh]
	 Total Energy              =    -495.3625733717346407 [Eh]

	 ================> DF-SCS-MP2 Energies <==================
	-----------------------------------------------------------
	 SCS Same-Spin Scale       =       0.3333333333333333 [-]
	 SCS Opposite-Spin Scale   =       1.2000000000000000 [-]
	 SCS Same-Spin Energy      =      -0.1685933033759252 [Eh]
	 SCS Opposite-Spin Energy  =      -1.8064925692427674 [Eh]
	 SCS Correlation Energy    =      -1.9750858726186926 [Eh]
	 SCS Total Energy          =    -495.3264688598566181 [Eh]
	-----------------------------------------------------------

  Dipole Moment: [D]
     X:     2.6628      Y:    -0.4473      Z:    -0.4628     Total:     2.7395

*** Psi4 exiting successfully. Buy a developer a beer!
