                               Psi4 1.3.2 release

  ==> Input File <==

--------------------------------------------------------------------------
#psi4
#
memory 32 gb

molecule  {
0 1
  S        0.1285310     1.6062780     0.0000000
  O        2.7930710    -1.2979160    -0.0000070
  C       -1.4623200    -0.4344690    -0.0000060
  C       -0.1473770    -0.9544550    -0.0000010
  C        0.8287900     0.0275460     0.0000070
  C       -1.4537890     0.9508390    -0.0000050
  C       -2.7097270    -1.2710250     0.0000050
  C        2.2775230    -0.1819160     0.0000050
  H        0.1093343    -2.0101792    -0.2500030
  H       -2.3118400     1.6133930    -0.0000140
  H       -2.7491870    -1.9153830    -0.8833870
  H       -2.7491970    -1.9153410     0.8834260
  H       -3.6031060    -0.6413200    -0.0000150
  H        2.9043230     0.7325940     0.0000170
units angstrom
no_reorient  #important for SAPT in psi4, default
symmetry c1  #important for SAPT in psi4, default
}

set PROPERTIES_ORIGIN ["COM"]
properties('MP2/aug-cc-pvtz', properties = ['dipole'])
--------------------------------------------------------------------------

    Molecular point group: c1
  Charge       = 0
  Multiplicity = 1
  Basis Set: AUG-CC-PVTZ
    Blend: AUG-CC-PVTZ
  Basis Set: (AUG-CC-PVTZ AUX)
    Blend: AUG-CC-PVTZ-JKFIT

    Orbital Energies [Eh]
    ---------------------

    Doubly Occupied:

       1A    -92.004573     2A    -20.555154     3A    -11.344724
       4A    -11.283075     5A    -11.276892     6A    -11.263936
       7A    -11.262789     8A    -11.241926     9A     -9.004623
      10A     -6.685587    11A     -6.685124    12A     -6.684397
      13A     -1.380066    14A     -1.193921    15A     -1.055329
      16A     -1.009144    17A     -0.946332    18A     -0.866341
      19A     -0.772840    20A     -0.735491    21A     -0.678621
      22A     -0.647776    23A     -0.604473    24A     -0.597241
      25A     -0.587235    26A     -0.554245    27A     -0.537704
      28A     -0.532153    29A     -0.502843    30A     -0.489597
      31A     -0.434594    32A     -0.356094    33A     -0.336723

  @DF-RHF Final Energy:  -703.19256433365149

   => Energetics <=

    Nuclear Repulsion Energy =            404.5533232745273722
    One-Electron Energy =               -1767.2686450241212697
    Two-Electron Energy =                 659.5227574159423511
    Total Energy =                       -703.1925643336514895
  Basis Set: (AUG-CC-PVTZ AUX)
    Blend: AUG-CC-PVTZ-RI
    Molecular point group: c1

    Geometry (in Angstrom), charge = 0, multiplicity = 1:

       Center              X                  Y                   Z               Mass
    ------------   -----------------  -----------------  -----------------  -----------------
         S            0.062537235289     1.574014770342     0.001999652123    31.972071174400
         O            2.727077235289    -1.330179229658     0.001992652123    15.994914619570
         C           -1.528313764711    -0.466732229658     0.001993652123    12.000000000000
         C           -0.213370764711    -0.986718229658     0.001998652123    12.000000000000
         C            0.762796235289    -0.004717229658     0.002006652123    12.000000000000
         C           -1.519782764711     0.918575770342     0.001994652123    12.000000000000
         C           -2.775720764711    -1.303288229658     0.002004652123    12.000000000000
         C            2.211529235289    -0.214179229658     0.002004652123    12.000000000000
         H            0.043340535289    -2.042442429658    -0.248003347877     1.007825032230
         H           -2.377833764711     1.581129770342     0.001985652123     1.007825032230
         H           -2.815180764711    -1.947646229658    -0.881387347877     1.007825032230
         H           -2.815190764711    -1.947604229658     0.885425652123     1.007825032230
         H           -3.669099764711    -0.673583229658     0.001984652123     1.007825032230
         H            2.838329235289     0.700330770342     0.002016652123     1.007825032230

  Basis Set: AUG-CC-PVTZ
    Blend: AUG-CC-PVTZ
  Basis Set: (AUG-CC-PVTZ AUX)
    Blend: AUG-CC-PVTZ-JKFIT
	 Reference Energy          =    -703.1925643336514895 [Eh]
	 Singles Energy            =      -0.0000000000000000 [Eh]
	 Same-Spin Energy          =      -0.3849013213628352 [Eh]
	 Opposite-Spin Energy      =      -1.1773998756279511 [Eh]
	 Correlation Energy        =      -1.5623011969907863 [Eh]
	 Total Energy              =    -704.7548655306422916 [Eh]

	 ================> DF-SCS-MP2 Energies <==================
	-----------------------------------------------------------
	 SCS Same-Spin Scale       =       0.3333333333333333 [-]
	 SCS Opposite-Spin Scale   =       1.2000000000000000 [-]
	 SCS Same-Spin Energy      =      -0.1283004404542784 [Eh]
	 SCS Opposite-Spin Energy  =      -1.4128798507535414 [Eh]
	 SCS Correlation Energy    =      -1.5411802912078199 [Eh]
	 SCS Total Energy          =    -704.7337446248593551 [Eh]
	-----------------------------------------------------------

  Dipole Moment: [D]
     X:    -3.1377      Y:     1.5680      Z:    -0.1835     Total:     3.5125

*** Psi4 exiting successfully. Buy a developer a beer!
