                               Psi4 1.3.2 release

  ==> Input File <==

--------------------------------------------------------------------------
#psi4
#
memory 32 gb

molecule  {
0 1
  S        0.1285310     1.6062780     0.0000000
  O        2.7930710    -1.2979160    -0.0000070
  C       -1.4623200    -0.4344690    -0.0000060
  C       -0.1473770    -0.9544550    -0.0000010
  C        0.8287900     0.0275460     0.0000070
  C       -1.4537890     0.9508390    -0.0000050
  C       -2.7097270    -1.2710250     0.0000050
  C        2.2775230    -0.1819160     0.0000050
  H        0.1093340    -2.0101794    -0.2000030
  H       -2.3118400     1.6133930    -0.0000140
  H       -2.7491870    -1.9153830    -0.8833870
  H       -2.7491970    -1.9153410     0.8834260
  H       -3.6031060    -0.6413200    -0.0000150
  H        2.9043230     0.7325940     0.0000170
units angstrom
no_reorient  #important for SAPT in psi4, default
symmetry c1  #important for SAPT in psi4, default
}

set PROPERTIES_ORIGIN ["COM"]
properties('MP2/aug-cc-pvtz', properties = ['dipole'])
--------------------------------------------------------------------------

    Molecular point group: c1
  Charge       = 0
  Multiplicity = 1
  Basis Set: AUG-CC-PVTZ
    Blend: AUG-CC-PVTZ
  Basis Set: (AUG-CC-PVTZ AUX)
    Blend: AUG-CC-PVTZ-JKFIT

    Orbital Energies [Eh]
    ---------------------

    Doubly Occupied:

       1A    -92.004424     2A    -20.555079     3A    -11.344691
       4A    -11.283071     5A    -11.276647     6A    -11.263494
       7A    -11.262345     8A    -11.241947     9A     -9.004477
      10A     -6.685443    11A     -6.684980    12A     -6.684252
      13A     -1.380026    14A     -1.193872    15A     -1.055281
      16A     -1.009399    17A     -0.946407    18A     -0.866351
      19A     -0.772877    20A     -0.736948    21A     -0.678846
      22A     -0.647812    23A     -0.604600    24A     -0.597053
      25A     -0.588072    26A     -0.554102    27A     -0.538025
      28A     -0.532694    29A     -0.502869    30A     -0.489794
      31A     -0.434534    32A     -0.356200    33A     -0.336678

  @DF-RHF Final Energy:  -703.19414566407238

   => Energetics <=

    Nuclear Repulsion Energy =            404.5948512256849767
    One-Electron Energy =               -1767.3514068809902255
    Two-Electron Energy =                 659.5624099912328120
    Total Energy =                       -703.1941456640723800
  Basis Set: (AUG-CC-PVTZ AUX)
    Blend: AUG-CC-PVTZ-RI
    Molecular point group: c1

    Geometry (in Angstrom), charge = 0, multiplicity = 1:

       Center              X                  Y                   Z               Mass
    ------------   -----------------  -----------------  -----------------  -----------------
         S            0.062537237688     1.574014771941     0.001599765784    31.972071174400
         O            2.727077237688    -1.330179228059     0.001592765784    15.994914619570
         C           -1.528313762312    -0.466732228059     0.001593765784    12.000000000000
         C           -0.213370762312    -0.986718228059     0.001598765784    12.000000000000
         C            0.762796237688    -0.004717228059     0.001606765784    12.000000000000
         C           -1.519782762312     0.918575771941     0.001594765784    12.000000000000
         C           -2.775720762312    -1.303288228059     0.001604765784    12.000000000000
         C            2.211529237688    -0.214179228059     0.001604765784    12.000000000000
         H            0.043340237688    -2.042442628059    -0.198403234216     1.007825032230
         H           -2.377833762312     1.581129771941     0.001585765784     1.007825032230
         H           -2.815180762312    -1.947646228059    -0.881787234216     1.007825032230
         H           -2.815190762312    -1.947604228059     0.885025765784     1.007825032230
         H           -3.669099762312    -0.673583228059     0.001584765784     1.007825032230
         H            2.838329237688     0.700330771941     0.001616765784     1.007825032230

  Basis Set: AUG-CC-PVTZ
    Blend: AUG-CC-PVTZ
  Basis Set: (AUG-CC-PVTZ AUX)
    Blend: AUG-CC-PVTZ-JKFIT
	 Reference Energy          =    -703.1941456640723800 [Eh]
	 Singles Energy            =      -0.0000000000000000 [Eh]
	 Same-Spin Energy          =      -0.3848025115922066 [Eh]
	 Opposite-Spin Energy      =      -1.1772058124828515 [Eh]
	 Correlation Energy        =      -1.5620083240750580 [Eh]
	 Total Energy              =    -704.7561539881473891 [Eh]

	 ================> DF-SCS-MP2 Energies <==================
	-----------------------------------------------------------
	 SCS Same-Spin Scale       =       0.3333333333333333 [-]
	 SCS Opposite-Spin Scale   =       1.2000000000000000 [-]
	 SCS Same-Spin Energy      =      -0.1282675038640688 [Eh]
	 SCS Opposite-Spin Energy  =      -1.4126469749794217 [Eh]
	 SCS Correlation Energy    =      -1.5409144788434905 [Eh]
	 SCS Total Energy          =    -704.7350601429159269 [Eh]
	-----------------------------------------------------------

  Dipole Moment: [D]
     X:    -3.1361      Y:     1.5543      Z:    -0.1475     Total:     3.5032

*** Psi4 exiting successfully. Buy a developer a beer!
