                               Psi4 1.3.2 release

  ==> Input File <==

--------------------------------------------------------------------------
#psi4
#
memory 32 gb

molecule  {
0 1
  S        0.1285310     1.6062780     0.0000000
  O        2.7930710    -1.2979160    -0.0000070
  C       -1.4623200    -0.4344690    -0.0000060
  C       -0.1473770    -0.9544550    -0.0000010
  C        0.8287900     0.0275460     0.0000070
  C       -1.4537890     0.9508390    -0.0000050
  C       -2.7097268    -1.2710247     0.1000050
  C        2.2775230    -0.1819160     0.0000050
  H        0.1093330    -2.0101800    -0.0000030
  H       -2.3118400     1.6133930    -0.0000140
  H       -2.7491870    -1.9153830    -0.8833870
  H       -2.7491970    -1.9153410     0.8834260
  H       -3.6031060    -0.6413200    -0.0000150
  H        2.9043230     0.7325940     0.0000170
units angstrom
no_reorient  #important for SAPT in psi4, default
symmetry c1  #important for SAPT in psi4, default
}

set PROPERTIES_ORIGIN ["COM"]
properties('MP2/aug-cc-pvtz', properties = ['dipole'])
--------------------------------------------------------------------------

    Molecular point group: c1
  Charge       = 0
  Multiplicity = 1
  Basis Set: AUG-CC-PVTZ
    Blend: AUG-CC-PVTZ
  Basis Set: (AUG-CC-PVTZ AUX)
    Blend: AUG-CC-PVTZ-JKFIT

    Orbital Energies [Eh]
    ---------------------

    Doubly Occupied:

       1A    -92.004334     2A    -20.555050     3A    -11.344729
       4A    -11.283264     5A    -11.276349     6A    -11.263900
       7A    -11.261279     8A    -11.243468     9A     -9.004387
      10A     -6.685355    11A     -6.684891    12A     -6.684163
      13A     -1.380051    14A     -1.193937    15A     -1.055278
      16A     -1.010066    17A     -0.947566    18A     -0.866977
      19A     -0.773217    20A     -0.739975    21A     -0.680467
      22A     -0.648174    23A     -0.621165    24A     -0.589790
      25A     -0.585670    26A     -0.555832    27A     -0.535005
      28A     -0.531112    29A     -0.502224    30A     -0.488218
      31A     -0.434524    32A     -0.356164    33A     -0.336428

  @DF-RHF Final Energy:  -703.18642062368247

   => Energetics <=

    Nuclear Repulsion Energy =            404.6339685920563625
    One-Electron Energy =               -1767.3947636673538000
    Two-Electron Energy =                 659.5743744516149718
    Total Energy =                       -703.1864206236824657
  Basis Set: (AUG-CC-PVTZ AUX)
    Blend: AUG-CC-PVTZ-RI
    Molecular point group: c1

    Geometry (in Angstrom), charge = 0, multiplicity = 1:

       Center              X                  Y                   Z               Mass
    ------------   -----------------  -----------------  -----------------  -----------------
         S            0.062537226640     1.574014748171    -0.009522535853    31.972071174400
         O            2.727077226640    -1.330179251829    -0.009529535853    15.994914619570
         C           -1.528313773360    -0.466732251829    -0.009528535853    12.000000000000
         C           -0.213370773360    -0.986718251829    -0.009523535853    12.000000000000
         C            0.762796226640    -0.004717251829    -0.009515535853    12.000000000000
         C           -1.519782773360     0.918575748171    -0.009527535853    12.000000000000
         C           -2.775720573360    -1.303287951829     0.090482464147    12.000000000000
         C            2.211529226640    -0.214179251829    -0.009517535853    12.000000000000
         H            0.043339226640    -2.042443251829    -0.009525535853     1.007825032230
         H           -2.377833773360     1.581129748171    -0.009536535853     1.007825032230
         H           -2.815180773360    -1.947646251829    -0.892909535853     1.007825032230
         H           -2.815190773360    -1.947604251829     0.873903464147     1.007825032230
         H           -3.669099773360    -0.673583251829    -0.009537535853     1.007825032230
         H            2.838329226640     0.700330748171    -0.009505535853     1.007825032230

  Basis Set: AUG-CC-PVTZ
    Blend: AUG-CC-PVTZ
  Basis Set: (AUG-CC-PVTZ AUX)
    Blend: AUG-CC-PVTZ-JKFIT
	 Reference Energy          =    -703.1864206236824657 [Eh]
	 Singles Energy            =      -0.0000000000000000 [Eh]
	 Same-Spin Energy          =      -0.3847411238024264 [Eh]
	 Opposite-Spin Energy      =      -1.1773032519391662 [Eh]
	 Correlation Energy        =      -1.5620443757415927 [Eh]
	 Total Energy              =    -704.7484649994240726 [Eh]

	 ================> DF-SCS-MP2 Energies <==================
	-----------------------------------------------------------
	 SCS Same-Spin Scale       =       0.3333333333333333 [-]
	 SCS Opposite-Spin Scale   =       1.2000000000000000 [-]
	 SCS Same-Spin Energy      =      -0.1282470412674755 [Eh]
	 SCS Opposite-Spin Energy  =      -1.4127639023269993 [Eh]
	 SCS Correlation Energy    =      -1.5410109435944748 [Eh]
	 SCS Total Energy          =    -704.7274315672769944 [Eh]
	-----------------------------------------------------------

  Dipole Moment: [D]
     X:    -3.1212      Y:     1.5436      Z:     0.0555     Total:     3.4825

*** Psi4 exiting successfully. Buy a developer a beer!
