                               Psi4 1.3.2 release

  ==> Input File <==

--------------------------------------------------------------------------
#psi4
#
memory 32 gb

molecule  {
0 1
  S        0.1285310     1.6062780     0.0000000
  O        2.7930710    -1.2979160    -0.0000070
  C       -1.4623200    -0.4344690    -0.0000060
  C       -0.1473770    -0.9544550    -0.0000010
  C        0.8287900     0.0275460     0.0000070
  C       -1.4537890     0.9508390    -0.0000050
  C       -2.7097269    -1.2710248     0.0500050
  C        2.2775230    -0.1819160     0.0000050
  H        0.1093330    -2.0101800    -0.0000030
  H       -2.3118400     1.6133930    -0.0000140
  H       -2.7491870    -1.9153830    -0.8833870
  H       -2.7491970    -1.9153410     0.8834260
  H       -3.6031060    -0.6413200    -0.0000150
  H        2.9043230     0.7325940     0.0000170
units angstrom
no_reorient  #important for SAPT in psi4, default
symmetry c1  #important for SAPT in psi4, default
}

set PROPERTIES_ORIGIN ["COM"]
properties('MP2/aug-cc-pvtz', properties = ['dipole'])
--------------------------------------------------------------------------

    Molecular point group: c1
  Charge       = 0
  Multiplicity = 1
  Basis Set: AUG-CC-PVTZ
    Blend: AUG-CC-PVTZ
  Basis Set: (AUG-CC-PVTZ AUX)
    Blend: AUG-CC-PVTZ-JKFIT

    Orbital Energies [Eh]
    ---------------------

    Doubly Occupied:

       1A    -92.004202     2A    -20.554970     3A    -11.344656
       4A    -11.283119     5A    -11.276245     6A    -11.263310
       7A    -11.261162     8A    -11.242356     9A     -9.004259
      10A     -6.685227    11A     -6.684764    12A     -6.684036
      13A     -1.379979    14A     -1.193827    15A     -1.055217
      16A     -1.009935    17A     -0.946801    18A     -0.866529
      19A     -0.773033    20A     -0.739784    21A     -0.679531
      22A     -0.647947    23A     -0.611268    24A     -0.591899
      25A     -0.589463    26A     -0.554460    27A     -0.537383
      28A     -0.533109    29A     -0.502733    30A     -0.489678
      31A     -0.434452    32A     -0.356341    33A     -0.336558

  @DF-RHF Final Energy:  -703.19417373992212

   => Energetics <=

    Nuclear Repulsion Energy =            404.6615003418773995
    One-Electron Energy =               -1767.4748886346692416
    Two-Electron Energy =                 659.6192145528697210
    Total Energy =                       -703.1941737399221211
  Basis Set: (AUG-CC-PVTZ AUX)
    Blend: AUG-CC-PVTZ-RI
    Molecular point group: c1

    Geometry (in Angstrom), charge = 0, multiplicity = 1:

       Center              X                  Y                   Z               Mass
    ------------   -----------------  -----------------  -----------------  -----------------
         S            0.062537236163     1.574014757694    -0.004761157714    31.972071174400
         O            2.727077236163    -1.330179242306    -0.004768157714    15.994914619570
         C           -1.528313763837    -0.466732242306    -0.004767157714    12.000000000000
         C           -0.213370763837    -0.986718242306    -0.004762157714    12.000000000000
         C            0.762796236163    -0.004717242306    -0.004754157714    12.000000000000
         C           -1.519782763837     0.918575757694    -0.004766157714    12.000000000000
         C           -2.775720663837    -1.303288042306     0.045243842286    12.000000000000
         C            2.211529236163    -0.214179242306    -0.004756157714    12.000000000000
         H            0.043339236163    -2.042443242306    -0.004764157714     1.007825032230
         H           -2.377833763837     1.581129757694    -0.004775157714     1.007825032230
         H           -2.815180763837    -1.947646242306    -0.888148157714     1.007825032230
         H           -2.815190763837    -1.947604242306     0.878664842286     1.007825032230
         H           -3.669099763837    -0.673583242306    -0.004776157714     1.007825032230
         H            2.838329236163     0.700330757694    -0.004744157714     1.007825032230

  Basis Set: AUG-CC-PVTZ
    Blend: AUG-CC-PVTZ
  Basis Set: (AUG-CC-PVTZ AUX)
    Blend: AUG-CC-PVTZ-JKFIT
	 Reference Energy          =    -703.1941737399221211 [Eh]
	 Singles Energy            =      -0.0000000000000000 [Eh]
	 Same-Spin Energy          =      -0.3846523566992615 [Eh]
	 Opposite-Spin Energy      =      -1.1769839061132634 [Eh]
	 Correlation Energy        =      -1.5616362628125249 [Eh]
	 Total Energy              =    -704.7558100027346200 [Eh]

	 ================> DF-SCS-MP2 Energies <==================
	-----------------------------------------------------------
	 SCS Same-Spin Scale       =       0.3333333333333333 [-]
	 SCS Opposite-Spin Scale   =       1.2000000000000000 [-]
	 SCS Same-Spin Energy      =      -0.1282174522330871 [Eh]
	 SCS Opposite-Spin Energy  =      -1.4123806873359162 [Eh]
	 SCS Correlation Energy    =      -1.5405981395690034 [Eh]
	 SCS Total Energy          =    -704.7347718794911771 [Eh]
	-----------------------------------------------------------

  Dipole Moment: [D]
     X:    -3.1302      Y:     1.5330      Z:     0.0281     Total:     3.4855

*** Psi4 exiting successfully. Buy a developer a beer!
