                               Psi4 1.3.2 release

  ==> Input File <==

--------------------------------------------------------------------------
#psi4
#
memory 32 gb

molecule  {
0 1
  S        0.1285310     1.6062780     0.0000000
  O        2.7930710    -1.2979160    -0.0000070
  C       -1.4623200    -0.4344690    -0.0000060
  C       -0.1473770    -0.9544550    -0.0000010
  C        0.8287900     0.0275460     0.0000070
  C       -1.4537890     0.9508390    -0.0000050
  C       -2.7097270    -1.2710250     0.0000050
  C        2.2775230    -0.1819160     0.0000050
  H        0.1093330    -2.0101800    -0.0000030
  H       -2.3118400     1.6133930    -0.0000140
  H       -2.7491870    -1.9153830    -0.8833870
  H       -2.7491970    -1.9153410     0.8834260
  H       -3.6031060    -0.6413200    -0.0000150
  H        2.9043232     0.7325964    -0.1999830
units angstrom
no_reorient  #important for SAPT in psi4, default
symmetry c1  #important for SAPT in psi4, default
}

set PROPERTIES_ORIGIN ["COM"]
properties('MP2/aug-cc-pvtz', properties = ['dipole'])
--------------------------------------------------------------------------

    Molecular point group: c1
  Charge       = 0
  Multiplicity = 1
  Basis Set: AUG-CC-PVTZ
    Blend: AUG-CC-PVTZ
  Basis Set: (AUG-CC-PVTZ AUX)
    Blend: AUG-CC-PVTZ-JKFIT

    Orbital Energies [Eh]
    ---------------------

    Doubly Occupied:

       1A    -92.004140     2A    -20.555871     3A    -11.346530
       4A    -11.283046     5A    -11.276628     6A    -11.263148
       7A    -11.261218     8A    -11.242014     9A     -9.004197
      10A     -6.685165    11A     -6.684701    12A     -6.683971
      13A     -1.380550    14A     -1.193845    15A     -1.055166
      16A     -1.009949    17A     -0.946206    18A     -0.865144
      19A     -0.771581    20A     -0.738971    21A     -0.678406
      22A     -0.647261    23A     -0.604944    24A     -0.596632
      25A     -0.589699    26A     -0.554196    27A     -0.538823
      28A     -0.533080    29A     -0.503141    30A     -0.490017
      31A     -0.433617    32A     -0.356463    33A     -0.336629

  @DF-RHF Final Energy:  -703.19433275818051

   => Energetics <=

    Nuclear Repulsion Energy =            404.5987745006373757
    One-Electron Energy =               -1767.3563174650050769
    Two-Electron Energy =                 659.5632102061872502
    Total Energy =                       -703.1943327581805079
  Basis Set: (AUG-CC-PVTZ AUX)
    Blend: AUG-CC-PVTZ-RI
    Molecular point group: c1

    Geometry (in Angstrom), charge = 0, multiplicity = 1:

       Center              X                  Y                   Z               Mass
    ------------   -----------------  -----------------  -----------------  -----------------
         S            0.062537244086     1.574014757545     0.001599765784    31.972071174400
         O            2.727077244086    -1.330179242455     0.001592765784    15.994914619570
         C           -1.528313755914    -0.466732242455     0.001593765784    12.000000000000
         C           -0.213370755914    -0.986718242455     0.001598765784    12.000000000000
         C            0.762796244086    -0.004717242455     0.001606765784    12.000000000000
         C           -1.519782755914     0.918575757545     0.001594765784    12.000000000000
         C           -2.775720755914    -1.303288242455     0.001604765784    12.000000000000
         C            2.211529244086    -0.214179242455     0.001604765784    12.000000000000
         H            0.043339244086    -2.042443242455     0.001596765784     1.007825032230
         H           -2.377833755914     1.581129757545     0.001585765784     1.007825032230
         H           -2.815180755914    -1.947646242455    -0.881787234216     1.007825032230
         H           -2.815190755914    -1.947604242455     0.885025765784     1.007825032230
         H           -3.669099755914    -0.673583242455     0.001584765784     1.007825032230
         H            2.838329444086     0.700333157545    -0.198383234216     1.007825032230

  Basis Set: AUG-CC-PVTZ
    Blend: AUG-CC-PVTZ
  Basis Set: (AUG-CC-PVTZ AUX)
    Blend: AUG-CC-PVTZ-JKFIT
	 Reference Energy          =    -703.1943327581805079 [Eh]
	 Singles Energy            =      -0.0000000000000000 [Eh]
	 Same-Spin Energy          =      -0.3847728293791802 [Eh]
	 Opposite-Spin Energy      =      -1.1772041903803989 [Eh]
	 Correlation Energy        =      -1.5619770197595790 [Eh]
	 Total Energy              =    -704.7563097779400323 [Eh]

	 ================> DF-SCS-MP2 Energies <==================
	-----------------------------------------------------------
	 SCS Same-Spin Scale       =       0.3333333333333333 [-]
	 SCS Opposite-Spin Scale   =       1.2000000000000000 [-]
	 SCS Same-Spin Energy      =      -0.1282576097930601 [Eh]
	 SCS Opposite-Spin Energy  =      -1.4126450284564787 [Eh]
	 SCS Correlation Energy    =      -1.5409026382495388 [Eh]
	 SCS Total Energy          =    -704.7352353964300846 [Eh]
	-----------------------------------------------------------

  Dipole Moment: [D]
     X:    -3.1456      Y:     1.5020      Z:    -0.0756     Total:     3.4866

*** Psi4 exiting successfully. Buy a developer a beer!
