                               Psi4 1.3.2 release

  ==> Input File <==

--------------------------------------------------------------------------
#psi4
#
memory 32 gb

molecule  {
0 1
  S        0.1285310     1.6062780     0.0000000
  O        2.7930710    -1.2979160    -0.0000070
  C       -1.4623200    -0.4344690    -0.0000060
  C       -0.1473770    -0.9544550    -0.0000010
  C        0.8287900     0.0275460     0.0000070
  C       -1.4537890     0.9508390    -0.0000050
  C       -2.7097267    -1.2710245     0.1500050
  C        2.2775230    -0.1819160     0.0000050
  H        0.1093330    -2.0101800    -0.0000030
  H       -2.3118400     1.6133930    -0.0000140
  H       -2.7491870    -1.9153830    -0.8833870
  H       -2.7491970    -1.9153410     0.8834260
  H       -3.6031060    -0.6413200    -0.0000150
  H        2.9043230     0.7325940     0.0000170
units angstrom
no_reorient  #important for SAPT in psi4, default
symmetry c1  #important for SAPT in psi4, default
}

set PROPERTIES_ORIGIN ["COM"]
properties('MP2/aug-cc-pvtz', properties = ['dipole'])
--------------------------------------------------------------------------

    Molecular point group: c1
  Charge       = 0
  Multiplicity = 1
  Basis Set: AUG-CC-PVTZ
    Blend: AUG-CC-PVTZ
  Basis Set: (AUG-CC-PVTZ AUX)
    Blend: AUG-CC-PVTZ-JKFIT

    Orbital Energies [Eh]
    ---------------------

    Doubly Occupied:

       1A    -92.004551     2A    -20.555181     3A    -11.344849
       4A    -11.283503     5A    -11.276521     6A    -11.264895
       7A    -11.261453     8A    -11.245318     9A     -9.004598
      10A     -6.685566    11A     -6.685102    12A     -6.684372
      13A     -1.380171    14A     -1.194118    15A     -1.055387
      16A     -1.010284    17A     -0.948881    18A     -0.867717
      19A     -0.773541    20A     -0.740297    21A     -0.682348
      22A     -0.648645    23A     -0.630832    24A     -0.589499
      25A     -0.581520    26A     -0.557296    27A     -0.533978
      28A     -0.526764    29A     -0.501540    30A     -0.485390
      31A     -0.434643    32A     -0.355878    33A     -0.336190

  @DF-RHF Final Energy:  -703.17338348179021

   => Energetics <=

    Nuclear Repulsion Energy =            404.5883184819991243
    One-Electron Energy =               -1767.2617474468916043
    Two-Electron Energy =                 659.5000454831023262
    Total Energy =                       -703.1733834817902107
  Basis Set: (AUG-CC-PVTZ AUX)
    Blend: AUG-CC-PVTZ-RI
    Molecular point group: c1

    Geometry (in Angstrom), charge = 0, multiplicity = 1:

       Center              X                  Y                   Z               Mass
    ------------   -----------------  -----------------  -----------------  -----------------
         S            0.062537217117     1.574014729126    -0.014283913992    31.972071174400
         O            2.727077217117    -1.330179270874    -0.014290913992    15.994914619570
         C           -1.528313782883    -0.466732270874    -0.014289913992    12.000000000000
         C           -0.213370782883    -0.986718270874    -0.014284913992    12.000000000000
         C            0.762796217117    -0.004717270874    -0.014276913992    12.000000000000
         C           -1.519782782883     0.918575729126    -0.014288913992    12.000000000000
         C           -2.775720482883    -1.303287770874     0.135721086008    12.000000000000
         C            2.211529217117    -0.214179270874    -0.014278913992    12.000000000000
         H            0.043339217117    -2.042443270874    -0.014286913992     1.007825032230
         H           -2.377833782883     1.581129729126    -0.014297913992     1.007825032230
         H           -2.815180782883    -1.947646270874    -0.897670913992     1.007825032230
         H           -2.815190782883    -1.947604270874     0.869142086008     1.007825032230
         H           -3.669099782883    -0.673583270874    -0.014298913992     1.007825032230
         H            2.838329217117     0.700330729126    -0.014266913992     1.007825032230

  Basis Set: AUG-CC-PVTZ
    Blend: AUG-CC-PVTZ
  Basis Set: (AUG-CC-PVTZ AUX)
    Blend: AUG-CC-PVTZ-JKFIT
	 Reference Energy          =    -703.1733834817902107 [Eh]
	 Singles Energy            =      -0.0000000000000000 [Eh]
	 Same-Spin Energy          =      -0.3848904236445267 [Eh]
	 Opposite-Spin Energy      =      -1.1778480119104486 [Eh]
	 Correlation Energy        =      -1.5627384355549754 [Eh]
	 Total Energy              =    -704.7361219173451445 [Eh]

	 ================> DF-SCS-MP2 Energies <==================
	-----------------------------------------------------------
	 SCS Same-Spin Scale       =       0.3333333333333333 [-]
	 SCS Opposite-Spin Scale   =       1.2000000000000000 [-]
	 SCS Same-Spin Energy      =      -0.1282968078815089 [Eh]
	 SCS Opposite-Spin Energy  =      -1.4134176142925383 [Eh]
	 SCS Correlation Energy    =      -1.5417144221740473 [Eh]
	 SCS Total Energy          =    -704.7150979039643062 [Eh]
	-----------------------------------------------------------

  Dipole Moment: [D]
     X:    -3.1064      Y:     1.5607      Z:     0.0813     Total:     3.4773

*** Psi4 exiting successfully. Buy a developer a beer!
