                               Psi4 1.3.2 release

  ==> Input File <==

--------------------------------------------------------------------------
#psi4
#
memory 32 gb

molecule  {
0 1
  S        0.1285310     1.6062780     0.0000000
  O        2.7930710    -1.2979160    -0.0000070
  C       -1.4623200    -0.4344690    -0.0000060
  C       -0.1473770    -0.9544550    -0.0000010
  C        0.8287900     0.0275460     0.0000070
  C       -1.4537890     0.9508390    -0.0000050
  C       -2.7097270    -1.2710250     0.0000050
  C        2.2775226    -0.1819160     0.1500050
  H        0.1093330    -2.0101800    -0.0000030
  H       -2.3118400     1.6133930    -0.0000140
  H       -2.7491870    -1.9153830    -0.8833870
  H       -2.7491970    -1.9153410     0.8834260
  H       -3.6031060    -0.6413200    -0.0000150
  H        2.9043230     0.7325940     0.0000170
units angstrom
no_reorient  #important for SAPT in psi4, default
symmetry c1  #important for SAPT in psi4, default
}

set PROPERTIES_ORIGIN ["COM"]
properties('MP2/aug-cc-pvtz', properties = ['dipole'])
--------------------------------------------------------------------------

    Molecular point group: c1
  Charge       = 0
  Multiplicity = 1
  Basis Set: AUG-CC-PVTZ
    Blend: AUG-CC-PVTZ
  Basis Set: (AUG-CC-PVTZ AUX)
    Blend: AUG-CC-PVTZ-JKFIT

    Orbital Energies [Eh]
    ---------------------

    Doubly Occupied:

       1A    -92.003857     2A    -20.557434     3A    -11.347798
       4A    -11.282843     5A    -11.277197     6A    -11.262983
       7A    -11.260757     8A    -11.241881     9A     -9.003943
      10A     -6.684913    11A     -6.684444    12A     -6.683713
      13A     -1.375843    14A     -1.193480    15A     -1.054580
      16A     -1.009270    17A     -0.945778    18A     -0.865298
      19A     -0.771599    20A     -0.739129    21A     -0.677228
      22A     -0.645671    23A     -0.604255    24A     -0.596353
      25A     -0.589055    26A     -0.552217    27A     -0.538483
      28A     -0.533137    29A     -0.501187    30A     -0.489904
      31A     -0.433817    32A     -0.356232    33A     -0.335787

  @DF-RHF Final Energy:  -703.18673682033182

   => Energetics <=

    Nuclear Repulsion Energy =            404.3741096354044657
    One-Electron Energy =               -1766.9215610137398471
    Two-Electron Energy =                 659.3607145580035649
    Total Energy =                       -703.1867368203318165
  Basis Set: (AUG-CC-PVTZ AUX)
    Blend: AUG-CC-PVTZ-RI
    Molecular point group: c1

    Geometry (in Angstrom), charge = 0, multiplicity = 1:

       Center              X                  Y                   Z               Mass
    ------------   -----------------  -----------------  -----------------  -----------------
         S            0.062537283777     1.574014776740    -0.014283913992    31.972071174400
         O            2.727077283777    -1.330179223260    -0.014290913992    15.994914619570
         C           -1.528313716223    -0.466732223260    -0.014289913992    12.000000000000
         C           -0.213370716223    -0.986718223260    -0.014284913992    12.000000000000
         C            0.762796283777    -0.004717223260    -0.014276913992    12.000000000000
         C           -1.519782716223     0.918575776740    -0.014288913992    12.000000000000
         C           -2.775720716223    -1.303288223260    -0.014278913992    12.000000000000
         C            2.211528883777    -0.214179223260     0.135721086008    12.000000000000
         H            0.043339283777    -2.042443223260    -0.014286913992     1.007825032230
         H           -2.377833716223     1.581129776740    -0.014297913992     1.007825032230
         H           -2.815180716223    -1.947646223260    -0.897670913992     1.007825032230
         H           -2.815190716223    -1.947604223260     0.869142086008     1.007825032230
         H           -3.669099716223    -0.673583223260    -0.014298913992     1.007825032230
         H            2.838329283777     0.700330776740    -0.014266913992     1.007825032230

  Basis Set: AUG-CC-PVTZ
    Blend: AUG-CC-PVTZ
  Basis Set: (AUG-CC-PVTZ AUX)
    Blend: AUG-CC-PVTZ-JKFIT
	 Reference Energy          =    -703.1867368203318165 [Eh]
	 Singles Energy            =      -0.0000000000000000 [Eh]
	 Same-Spin Energy          =      -0.3852545448134411 [Eh]
	 Opposite-Spin Energy      =      -1.1784495042861651 [Eh]
	 Correlation Energy        =      -1.5637040490996061 [Eh]
	 Total Energy              =    -704.7504408694313724 [Eh]

	 ================> DF-SCS-MP2 Energies <==================
	-----------------------------------------------------------
	 SCS Same-Spin Scale       =       0.3333333333333333 [-]
	 SCS Opposite-Spin Scale   =       1.2000000000000000 [-]
	 SCS Same-Spin Energy      =      -0.1284181816044804 [Eh]
	 SCS Opposite-Spin Energy  =      -1.4141394051433982 [Eh]
	 SCS Correlation Energy    =      -1.5425575867478787 [Eh]
	 SCS Total Energy          =    -704.7292944070796921 [Eh]
	-----------------------------------------------------------

  Dipole Moment: [D]
     X:    -3.1175      Y:     1.5021      Z:     0.1087     Total:     3.4622

*** Psi4 exiting successfully. Buy a developer a beer!
