                               Psi4 1.3.2 release

  ==> Input File <==

--------------------------------------------------------------------------
#psi4
#
memory 32 gb

molecule  {
0 1
  S        0.1285310     1.6062780     0.0000000
  O        2.7930710    -1.2979160    -0.0000070
  C       -1.4623200    -0.4344690    -0.0000060
  C       -0.1473770    -0.9544550    -0.0000010
  C        0.8287900     0.0275460     0.0000070
  C       -1.4537890     0.9508390    -0.0000050
  C       -2.7097270    -1.2710250     0.0000050
  C        2.2775230    -0.1819160     0.0000050
  H        0.1093330    -2.0101800    -0.0000030
  H       -2.3118394     1.6133928    -0.1000140
  H       -2.7491870    -1.9153830    -0.8833870
  H       -2.7491970    -1.9153410     0.8834260
  H       -3.6031060    -0.6413200    -0.0000150
  H        2.9043230     0.7325940     0.0000170
units angstrom
no_reorient  #important for SAPT in psi4, default
symmetry c1  #important for SAPT in psi4, default
}

set PROPERTIES_ORIGIN ["COM"]
properties('MP2/aug-cc-pvtz', properties = ['dipole'])
--------------------------------------------------------------------------

    Molecular point group: c1
  Charge       = 0
  Multiplicity = 1
  Basis Set: AUG-CC-PVTZ
    Blend: AUG-CC-PVTZ
  Basis Set: (AUG-CC-PVTZ AUX)
    Blend: AUG-CC-PVTZ-JKFIT

    Orbital Energies [Eh]
    ---------------------

    Doubly Occupied:

       1A    -92.004142     2A    -20.555036     3A    -11.344691
       4A    -11.283366     5A    -11.276324     6A    -11.263226
       7A    -11.261146     8A    -11.242005     9A     -9.004203
      10A     -6.685171    11A     -6.684706    12A     -6.683979
      13A     -1.380033    14A     -1.193806    15A     -1.055227
      16A     -1.009759    17A     -0.946592    18A     -0.866233
      19A     -0.772492    20A     -0.739526    21A     -0.679296
      22A     -0.647787    23A     -0.604856    24A     -0.597015
      25A     -0.588806    26A     -0.553844    27A     -0.538765
      28A     -0.533414    29A     -0.502772    30A     -0.490120
      31A     -0.434496    32A     -0.356417    33A     -0.336604

  @DF-RHF Final Energy:  -703.19621073832002

   => Energetics <=

    Nuclear Repulsion Energy =            404.6520040597221168
    One-Electron Energy =               -1767.4647204491539014
    Two-Electron Energy =                 659.6165056511118792
    Total Energy =                       -703.1962107383200191
  Basis Set: (AUG-CC-PVTZ AUX)
    Blend: AUG-CC-PVTZ-RI
    Molecular point group: c1

    Geometry (in Angstrom), charge = 0, multiplicity = 1:

       Center              X                  Y                   Z               Mass
    ------------   -----------------  -----------------  -----------------  -----------------
         S            0.062537240887     1.574014778339     0.000799993104    31.972071174400
         O            2.727077240887    -1.330179221661     0.000792993104    15.994914619570
         C           -1.528313759113    -0.466732221661     0.000793993104    12.000000000000
         C           -0.213370759113    -0.986718221661     0.000798993104    12.000000000000
         C            0.762796240887    -0.004717221661     0.000806993104    12.000000000000
         C           -1.519782759113     0.918575778339     0.000794993104    12.000000000000
         C           -2.775720759113    -1.303288221661     0.000804993104    12.000000000000
         C            2.211529240887    -0.214179221661     0.000804993104    12.000000000000
         H            0.043339240887    -2.042443221661     0.000796993104     1.007825032230
         H           -2.377833159113     1.581129578339    -0.099214006896     1.007825032230
         H           -2.815180759113    -1.947646221661    -0.882587006896     1.007825032230
         H           -2.815190759113    -1.947604221661     0.884225993104     1.007825032230
         H           -3.669099759113    -0.673583221661     0.000784993104     1.007825032230
         H            2.838329240887     0.700330778339     0.000816993104     1.007825032230

  Basis Set: AUG-CC-PVTZ
    Blend: AUG-CC-PVTZ
  Basis Set: (AUG-CC-PVTZ AUX)
    Blend: AUG-CC-PVTZ-JKFIT
	 Reference Energy          =    -703.1962107383200191 [Eh]
	 Singles Energy            =      -0.0000000000000000 [Eh]
	 Same-Spin Energy          =      -0.3846680572577588 [Eh]
	 Opposite-Spin Energy      =      -1.1769701298752899 [Eh]
	 Correlation Energy        =      -1.5616381871330487 [Eh]
	 Total Energy              =    -704.7578489254531178 [Eh]

	 ================> DF-SCS-MP2 Energies <==================
	-----------------------------------------------------------
	 SCS Same-Spin Scale       =       0.3333333333333333 [-]
	 SCS Opposite-Spin Scale   =       1.2000000000000000 [-]
	 SCS Same-Spin Energy      =      -0.1282226857525862 [Eh]
	 SCS Opposite-Spin Energy  =      -1.4123641558503479 [Eh]
	 SCS Correlation Energy    =      -1.5405868416029342 [Eh]
	 SCS Total Energy          =    -704.7367975799229498 [Eh]
	-----------------------------------------------------------

  Dipole Moment: [D]
     X:    -3.1268      Y:     1.5237      Z:    -0.0757     Total:     3.4791

*** Psi4 exiting successfully. Buy a developer a beer!
