                               Psi4 1.3.2 release

  ==> Input File <==

--------------------------------------------------------------------------
#psi4
#
memory 32 gb

molecule  {
0 1
  S        0.1285310     1.6062780     0.0000000
  O        2.7930710    -1.2979160    -0.0000070
  C       -1.4623200    -0.4344690    -0.0000060
  C       -0.1473770    -0.9544550    -0.0000010
  C        0.8287900     0.0275460     0.0000070
  C       -1.4537890     0.9508390    -0.0000050
  C       -2.7097270    -1.2710250     0.0000050
  C        2.2775224    -0.1819160     0.2500050
  H        0.1093330    -2.0101800    -0.0000030
  H       -2.3118400     1.6133930    -0.0000140
  H       -2.7491870    -1.9153830    -0.8833870
  H       -2.7491970    -1.9153410     0.8834260
  H       -3.6031060    -0.6413200    -0.0000150
  H        2.9043230     0.7325940     0.0000170
units angstrom
no_reorient  #important for SAPT in psi4, default
symmetry c1  #important for SAPT in psi4, default
}

set PROPERTIES_ORIGIN ["COM"]
properties('MP2/aug-cc-pvtz', properties = ['dipole'])
--------------------------------------------------------------------------

    Molecular point group: c1
  Charge       = 0
  Multiplicity = 1
  Basis Set: AUG-CC-PVTZ
    Blend: AUG-CC-PVTZ
  Basis Set: (AUG-CC-PVTZ AUX)
    Blend: AUG-CC-PVTZ-JKFIT

    Orbital Energies [Eh]
    ---------------------

    Doubly Occupied:

       1A    -92.003342     2A    -20.561870     3A    -11.353082
       4A    -11.282453     5A    -11.278842     6A    -11.262758
       7A    -11.260126     8A    -11.241700     9A     -9.003469
      10A     -6.684441    11A     -6.683961    12A     -6.683229
      13A     -1.368848    14A     -1.192943    15A     -1.053551
      16A     -1.008203    17A     -0.944454    18A     -0.863415
      19A     -0.769464    20A     -0.738156    21A     -0.673839
      22A     -0.641612    23A     -0.603254    24A     -0.595921
      25A     -0.587834    26A     -0.549721    27A     -0.537801
      28A     -0.532548    29A     -0.498220    30A     -0.489520
      31A     -0.432870    32A     -0.355937    33A     -0.334395

  @DF-RHF Final Energy:  -703.16881564443133

   => Energetics <=

    Nuclear Repulsion Energy =            403.8597138967726323
    One-Electron Energy =               -1765.9135016343520874
    Two-Electron Energy =                 658.8849720931482352
    Total Energy =                       -703.1688156444313336
  Basis Set: (AUG-CC-PVTZ AUX)
    Blend: AUG-CC-PVTZ-RI
    Molecular point group: c1

    Geometry (in Angstrom), charge = 0, multiplicity = 1:

       Center              X                  Y                   Z               Mass
    ------------   -----------------  -----------------  -----------------  -----------------
         S            0.062537302822     1.574014776740    -0.023806670269    31.972071174400
         O            2.727077302822    -1.330179223260    -0.023813670269    15.994914619570
         C           -1.528313697178    -0.466732223260    -0.023812670269    12.000000000000
         C           -0.213370697178    -0.986718223260    -0.023807670269    12.000000000000
         C            0.762796302822    -0.004717223260    -0.023799670269    12.000000000000
         C           -1.519782697178     0.918575776740    -0.023811670269    12.000000000000
         C           -2.775720697178    -1.303288223260    -0.023801670269    12.000000000000
         C            2.211528702822    -0.214179223260     0.226198329731    12.000000000000
         H            0.043339302822    -2.042443223260    -0.023809670269     1.007825032230
         H           -2.377833697178     1.581129776740    -0.023820670269     1.007825032230
         H           -2.815180697178    -1.947646223260    -0.907193670269     1.007825032230
         H           -2.815190697178    -1.947604223260     0.859619329731     1.007825032230
         H           -3.669099697178    -0.673583223260    -0.023821670269     1.007825032230
         H            2.838329302822     0.700330776740    -0.023789670269     1.007825032230

  Basis Set: AUG-CC-PVTZ
    Blend: AUG-CC-PVTZ
  Basis Set: (AUG-CC-PVTZ AUX)
    Blend: AUG-CC-PVTZ-JKFIT
	 Reference Energy          =    -703.1688156444313336 [Eh]
	 Singles Energy            =      -0.0000000000000000 [Eh]
	 Same-Spin Energy          =      -0.3863732386169587 [Eh]
	 Opposite-Spin Energy      =      -1.1815387172051155 [Eh]
	 Correlation Energy        =      -1.5679119558220742 [Eh]
	 Total Energy              =    -704.7367276002534027 [Eh]

	 ================> DF-SCS-MP2 Energies <==================
	-----------------------------------------------------------
	 SCS Same-Spin Scale       =       0.3333333333333333 [-]
	 SCS Opposite-Spin Scale   =       1.2000000000000000 [-]
	 SCS Same-Spin Energy      =      -0.1287910795389862 [Eh]
	 SCS Opposite-Spin Energy  =      -1.4178464606461385 [Eh]
	 SCS Correlation Energy    =      -1.5466375401851247 [Eh]
	 SCS Total Energy          =    -704.7154531846164218 [Eh]
	-----------------------------------------------------------

  Dipole Moment: [D]
     X:    -3.0906      Y:     1.4544      Z:     0.1683     Total:     3.4198

*** Psi4 exiting successfully. Buy a developer a beer!
