                               Psi4 1.3.2 release

  ==> Input File <==

--------------------------------------------------------------------------
#psi4
#
memory 32 gb

molecule  {
0 1
  S        0.1285310     1.6062780     0.0000000
  O        2.7930710    -1.2979160    -0.0000070
  C       -1.4623200    -0.4344690    -0.0000060
  C       -0.1473770    -0.9544550    -0.0000010
  C        0.8287900     0.0275460     0.0000070
  C       -1.4537890     0.9508390    -0.0000050
  C       -2.7097270    -1.2710250     0.0000050
  C        2.2775230    -0.1819160     0.0000050
  H        0.1093333    -2.0101798    -0.0500030
  H       -2.3118400     1.6133930    -0.0000140
  H       -2.7491870    -1.9153830    -0.8833870
  H       -2.7491970    -1.9153410     0.8834260
  H       -3.6031060    -0.6413200    -0.0000150
  H        2.9043230     0.7325940     0.0000170
units angstrom
no_reorient  #important for SAPT in psi4, default
symmetry c1  #important for SAPT in psi4, default
}

set PROPERTIES_ORIGIN ["COM"]
properties('MP2/aug-cc-pvtz', properties = ['dipole'])
--------------------------------------------------------------------------

    Molecular point group: c1
  Charge       = 0
  Multiplicity = 1
  Basis Set: AUG-CC-PVTZ
    Blend: AUG-CC-PVTZ
  Basis Set: (AUG-CC-PVTZ AUX)
    Blend: AUG-CC-PVTZ-JKFIT

    Orbital Energies [Eh]
    ---------------------

    Doubly Occupied:

       1A    -92.004175     2A    -20.554951     3A    -11.344636
       4A    -11.283070     5A    -11.276237     6A    -11.263132
       7A    -11.261205     8A    -11.241983     9A     -9.004232
      10A     -6.685201    11A     -6.684738    12A     -6.684010
      13A     -1.379959    14A     -1.193795    15A     -1.055202
      16A     -1.009859    17A     -0.946540    18A     -0.866377
      19A     -0.772966    20A     -0.739541    21A     -0.679225
      22A     -0.647874    23A     -0.604816    24A     -0.596649
      25A     -0.589587    26A     -0.553838    27A     -0.538754
      28A     -0.533413    29A     -0.502915    30A     -0.490099
      31A     -0.434435    32A     -0.356388    33A     -0.336604

  @DF-RHF Final Energy:  -703.19659216097091

   => Energetics <=

    Nuclear Repulsion Energy =            404.6658827390534725
    One-Electron Energy =               -1767.4921413931185725
    Two-Electron Energy =                 659.6296664930940779
    Total Energy =                       -703.1965921609709085
  Basis Set: (AUG-CC-PVTZ AUX)
    Blend: AUG-CC-PVTZ-RI
    Molecular point group: c1

    Geometry (in Angstrom), charge = 0, multiplicity = 1:

       Center              X                  Y                   Z               Mass
    ------------   -----------------  -----------------  -----------------  -----------------
         S            0.062537243286     1.574014775140     0.000400106765    31.972071174400
         O            2.727077243286    -1.330179224860     0.000393106765    15.994914619570
         C           -1.528313756714    -0.466732224860     0.000394106765    12.000000000000
         C           -0.213370756714    -0.986718224860     0.000399106765    12.000000000000
         C            0.762796243286    -0.004717224860     0.000407106765    12.000000000000
         C           -1.519782756714     0.918575775140     0.000395106765    12.000000000000
         C           -2.775720756714    -1.303288224860     0.000405106765    12.000000000000
         C            2.211529243286    -0.214179224860     0.000405106765    12.000000000000
         H            0.043339543286    -2.042443024860    -0.049602893235     1.007825032230
         H           -2.377833756714     1.581129775140     0.000386106765     1.007825032230
         H           -2.815180756714    -1.947646224860    -0.882986893235     1.007825032230
         H           -2.815190756714    -1.947604224860     0.883826106765     1.007825032230
         H           -3.669099756714    -0.673583224860     0.000385106765     1.007825032230
         H            2.838329243286     0.700330775140     0.000417106765     1.007825032230

  Basis Set: AUG-CC-PVTZ
    Blend: AUG-CC-PVTZ
  Basis Set: (AUG-CC-PVTZ AUX)
    Blend: AUG-CC-PVTZ-JKFIT
	 Reference Energy          =    -703.1965921609709085 [Eh]
	 Singles Energy            =      -0.0000000000000000 [Eh]
	 Same-Spin Energy          =      -0.3846342860264531 [Eh]
	 Opposite-Spin Energy      =      -1.1768984180372015 [Eh]
	 Correlation Energy        =      -1.5615327040636546 [Eh]
	 Total Energy              =    -704.7581248650345742 [Eh]

	 ================> DF-SCS-MP2 Energies <==================
	-----------------------------------------------------------
	 SCS Same-Spin Scale       =       0.3333333333333333 [-]
	 SCS Opposite-Spin Scale   =       1.2000000000000000 [-]
	 SCS Same-Spin Energy      =      -0.1282114286754844 [Eh]
	 SCS Opposite-Spin Energy  =      -1.4122781016446417 [Eh]
	 SCS Correlation Energy    =      -1.5404895303201260 [Eh]
	 SCS Total Energy          =    -704.7370816912909959 [Eh]
	-----------------------------------------------------------

  Dipole Moment: [D]
     X:    -3.1334      Y:     1.5310      Z:    -0.0372     Total:     3.4876

*** Psi4 exiting successfully. Buy a developer a beer!
