                               Psi4 1.3.2 release

  ==> Input File <==

--------------------------------------------------------------------------
#psi4
#
memory 32 gb

molecule  {
0 1
  S        0.1285310     1.6062780     0.0000000
  O        2.7930710    -1.2979160    -0.0000070
  C       -1.4623200    -0.4344690    -0.0000060
  C       -0.1473770    -0.9544550    -0.0000010
  C        0.8287900     0.0275460     0.0000070
  C       -1.4537890     0.9508390    -0.0000050
  C       -2.7097270    -1.2710250     0.0000050
  C        2.2775228    -0.1819160     0.1000050
  H        0.1093330    -2.0101800    -0.0000030
  H       -2.3118400     1.6133930    -0.0000140
  H       -2.7491870    -1.9153830    -0.8833870
  H       -2.7491970    -1.9153410     0.8834260
  H       -3.6031060    -0.6413200    -0.0000150
  H        2.9043230     0.7325940     0.0000170
units angstrom
no_reorient  #important for SAPT in psi4, default
symmetry c1  #important for SAPT in psi4, default
}

set PROPERTIES_ORIGIN ["COM"]
properties('MP2/aug-cc-pvtz', properties = ['dipole'])
--------------------------------------------------------------------------

    Molecular point group: c1
  Charge       = 0
  Multiplicity = 1
  Basis Set: AUG-CC-PVTZ
    Blend: AUG-CC-PVTZ
  Basis Set: (AUG-CC-PVTZ AUX)
    Blend: AUG-CC-PVTZ-JKFIT

    Orbital Energies [Eh]
    ---------------------

    Doubly Occupied:

       1A    -92.004023     2A    -20.556050     3A    -11.346057
       4A    -11.282968     5A    -11.276654     6A    -11.263056
       7A    -11.260957     8A    -11.241939     9A     -9.004094
      10A     -6.685063    11A     -6.684597    12A     -6.683868
      13A     -1.378111    14A     -1.193651    15A     -1.054919
      16A     -1.009613    17A     -0.946204    18A     -0.865896
      19A     -0.772345    20A     -0.739454    21A     -0.678342
      22A     -0.646904    23A     -0.604574    24A     -0.596497
      25A     -0.589415    26A     -0.553089    27A     -0.538669
      28A     -0.533314    29A     -0.502144    30A     -0.490023
      31A     -0.434148    32A     -0.356326    33A     -0.336236

  @DF-RHF Final Energy:  -703.19230492301710

   => Energetics <=

    Nuclear Repulsion Energy =            404.5382179592373859
    One-Electron Energy =               -1767.2426430701796107
    Two-Electron Energy =                 659.5121201879252339
    Total Energy =                       -703.1923049230171046
  Basis Set: (AUG-CC-PVTZ AUX)
    Blend: AUG-CC-PVTZ-RI
    Molecular point group: c1

    Geometry (in Angstrom), charge = 0, multiplicity = 1:

       Center              X                  Y                   Z               Mass
    ------------   -----------------  -----------------  -----------------  -----------------
         S            0.062537264731     1.574014776740    -0.009522535853    31.972071174400
         O            2.727077264731    -1.330179223260    -0.009529535853    15.994914619570
         C           -1.528313735269    -0.466732223260    -0.009528535853    12.000000000000
         C           -0.213370735269    -0.986718223260    -0.009523535853    12.000000000000
         C            0.762796264731    -0.004717223260    -0.009515535853    12.000000000000
         C           -1.519782735269     0.918575776740    -0.009527535853    12.000000000000
         C           -2.775720735269    -1.303288223260    -0.009517535853    12.000000000000
         C            2.211529064731    -0.214179223260     0.090482464147    12.000000000000
         H            0.043339264731    -2.042443223260    -0.009525535853     1.007825032230
         H           -2.377833735269     1.581129776740    -0.009536535853     1.007825032230
         H           -2.815180735269    -1.947646223260    -0.892909535853     1.007825032230
         H           -2.815190735269    -1.947604223260     0.873903464147     1.007825032230
         H           -3.669099735269    -0.673583223260    -0.009537535853     1.007825032230
         H            2.838329264731     0.700330776740    -0.009505535853     1.007825032230

  Basis Set: AUG-CC-PVTZ
    Blend: AUG-CC-PVTZ
  Basis Set: (AUG-CC-PVTZ AUX)
    Blend: AUG-CC-PVTZ-JKFIT
	 Reference Energy          =    -703.1923049230171046 [Eh]
	 Singles Energy            =      -0.0000000000000000 [Eh]
	 Same-Spin Energy          =      -0.3849041980201130 [Eh]
	 Opposite-Spin Energy      =      -1.1775435683173510 [Eh]
	 Correlation Energy        =      -1.5624477663374639 [Eh]
	 Total Energy              =    -704.7547526893545182 [Eh]

	 ================> DF-SCS-MP2 Energies <==================
	-----------------------------------------------------------
	 SCS Same-Spin Scale       =       0.3333333333333333 [-]
	 SCS Opposite-Spin Scale   =       1.2000000000000000 [-]
	 SCS Same-Spin Energy      =      -0.1283013993400376 [Eh]
	 SCS Opposite-Spin Energy  =      -1.4130522819808211 [Eh]
	 SCS Correlation Energy    =      -1.5413536813208588 [Eh]
	 SCS Total Energy          =    -704.7336586043379612 [Eh]
	-----------------------------------------------------------

  Dipole Moment: [D]
     X:    -3.1262      Y:     1.5173      Z:     0.0742     Total:     3.4757

*** Psi4 exiting successfully. Buy a developer a beer!
