                               Psi4 1.3.2 release

  ==> Input File <==

--------------------------------------------------------------------------
#psi4
#
memory 32 gb

molecule  {
0 1
  S        0.1285310     1.6062780     0.0000000
  O        2.7930710    -1.2979160    -0.0000070
  C       -1.4623200    -0.4344690    -0.0000060
  C       -0.1473770    -0.9544550    -0.0000010
  C        0.8287900     0.0275460     0.0000070
  C       -1.4537890     0.9508390    -0.0000050
  C       -2.7097266    -1.2710243     0.2000050
  C        2.2775230    -0.1819160     0.0000050
  H        0.1093330    -2.0101800    -0.0000030
  H       -2.3118400     1.6133930    -0.0000140
  H       -2.7491870    -1.9153830    -0.8833870
  H       -2.7491970    -1.9153410     0.8834260
  H       -3.6031060    -0.6413200    -0.0000150
  H        2.9043230     0.7325940     0.0000170
units angstrom
no_reorient  #important for SAPT in psi4, default
symmetry c1  #important for SAPT in psi4, default
}

set PROPERTIES_ORIGIN ["COM"]
properties('MP2/aug-cc-pvtz', properties = ['dipole'])
--------------------------------------------------------------------------

    Molecular point group: c1
  Charge       = 0
  Multiplicity = 1
  Basis Set: AUG-CC-PVTZ
    Blend: AUG-CC-PVTZ
  Basis Set: (AUG-CC-PVTZ AUX)
    Blend: AUG-CC-PVTZ-JKFIT

    Orbital Energies [Eh]
    ---------------------

    Doubly Occupied:

       1A    -92.004851     2A    -20.555362     3A    -11.345014
       4A    -11.283831     5A    -11.276758     6A    -11.266286
       7A    -11.261677     8A    -11.247899     9A     -9.004890
      10A     -6.685856    11A     -6.685392    12A     -6.684662
      13A     -1.380335    14A     -1.194366    15A     -1.055556
      16A     -1.010589    17A     -0.950797    18A     -0.868736
      19A     -0.774028    20A     -0.740754    21A     -0.685592
      22A     -0.649595    23A     -0.638678    24A     -0.589186
      25A     -0.578653    26A     -0.558658    27A     -0.533333
      28A     -0.522242    29A     -0.500880    30A     -0.480895
      31A     -0.434804    32A     -0.355503    33A     -0.335816

  @DF-RHF Final Energy:  -703.15491146316458

   => Energetics <=

    Nuclear Repulsion Energy =            404.5248573043272131
    One-Electron Energy =               -1767.0765887738291440
    Two-Electron Energy =                 659.3968200063372933
    Total Energy =                       -703.1549114631645807
  Basis Set: (AUG-CC-PVTZ AUX)
    Blend: AUG-CC-PVTZ-RI
    Molecular point group: c1

    Geometry (in Angstrom), charge = 0, multiplicity = 1:

       Center              X                  Y                   Z               Mass
    ------------   -----------------  -----------------  -----------------  -----------------
         S            0.062537207595     1.574014710080    -0.019045292131    31.972071174400
         O            2.727077207595    -1.330179289920    -0.019052292131    15.994914619570
         C           -1.528313792405    -0.466732289920    -0.019051292131    12.000000000000
         C           -0.213370792405    -0.986718289920    -0.019046292131    12.000000000000
         C            0.762796207595    -0.004717289920    -0.019038292131    12.000000000000
         C           -1.519782792405     0.918575710080    -0.019050292131    12.000000000000
         C           -2.775720392405    -1.303287589920     0.180959707869    12.000000000000
         C            2.211529207595    -0.214179289920    -0.019040292131    12.000000000000
         H            0.043339207595    -2.042443289920    -0.019048292131     1.007825032230
         H           -2.377833792405     1.581129710080    -0.019059292131     1.007825032230
         H           -2.815180792405    -1.947646289920    -0.902432292131     1.007825032230
         H           -2.815190792405    -1.947604289920     0.864380707869     1.007825032230
         H           -3.669099792405    -0.673583289920    -0.019060292131     1.007825032230
         H            2.838329207595     0.700330710080    -0.019028292131     1.007825032230

  Basis Set: AUG-CC-PVTZ
    Blend: AUG-CC-PVTZ
  Basis Set: (AUG-CC-PVTZ AUX)
    Blend: AUG-CC-PVTZ-JKFIT
	 Reference Energy          =    -703.1549114631645807 [Eh]
	 Singles Energy            =      -0.0000000000000000 [Eh]
	 Same-Spin Energy          =      -0.3851019562947573 [Eh]
	 Opposite-Spin Energy      =      -1.1786320086463469 [Eh]
	 Correlation Energy        =      -1.5637339649411042 [Eh]
	 Total Energy              =    -704.7186454281056740 [Eh]

	 ================> DF-SCS-MP2 Energies <==================
	-----------------------------------------------------------
	 SCS Same-Spin Scale       =       0.3333333333333333 [-]
	 SCS Opposite-Spin Scale   =       1.2000000000000000 [-]
	 SCS Same-Spin Energy      =      -0.1283673187649191 [Eh]
	 SCS Opposite-Spin Energy  =      -1.4143584103756162 [Eh]
	 SCS Correlation Energy    =      -1.5427257291405352 [Eh]
	 SCS Total Energy          =    -704.6976371923051374 [Eh]
	-----------------------------------------------------------

  Dipole Moment: [D]
     X:    -3.0859      Y:     1.5833      Z:     0.1046     Total:     3.4699

*** Psi4 exiting successfully. Buy a developer a beer!
