                               Psi4 1.3.2 release

  ==> Input File <==

--------------------------------------------------------------------------
#psi4
#
memory 32 gb

molecule  {
0 1
  S        0.1285310     1.6062780     0.0000000
  O        2.7930710    -1.2979160    -0.0000070
  C       -1.4623200    -0.4344690    -0.0000060
  C       -0.1473770    -0.9544550    -0.0000010
  C        0.8287900     0.0275460     0.0000070
  C       -1.4537890     0.9508390    -0.0000050
  C       -2.7097270    -1.2710250     0.0000050
  C        2.2775230    -0.1819160     0.0000050
  H        0.1093330    -2.0101800    -0.0000030
  H       -2.3118391     1.6133928    -0.1500140
  H       -2.7491870    -1.9153830    -0.8833870
  H       -2.7491970    -1.9153410     0.8834260
  H       -3.6031060    -0.6413200    -0.0000150
  H        2.9043230     0.7325940     0.0000170
units angstrom
no_reorient  #important for SAPT in psi4, default
symmetry c1  #important for SAPT in psi4, default
}

set PROPERTIES_ORIGIN ["COM"]
properties('MP2/aug-cc-pvtz', properties = ['dipole'])
--------------------------------------------------------------------------

    Molecular point group: c1
  Charge       = 0
  Multiplicity = 1
  Basis Set: AUG-CC-PVTZ
    Blend: AUG-CC-PVTZ
  Basis Set: (AUG-CC-PVTZ AUX)
    Blend: AUG-CC-PVTZ-JKFIT

    Orbital Energies [Eh]
    ---------------------

    Doubly Occupied:

       1A    -92.004123     2A    -20.555151     3A    -11.344764
       4A    -11.283734     5A    -11.276465     6A    -11.263364
       7A    -11.261180     8A    -11.242030     9A     -9.004189
      10A     -6.685156    11A     -6.684688    12A     -6.683962
      13A     -1.380130    14A     -1.193827    15A     -1.055266
      16A     -1.009597    17A     -0.946645    18A     -0.866058
      19A     -0.771911    20A     -0.739279    21A     -0.679353
      22A     -0.647677    23A     -0.604887    24A     -0.597406
      25A     -0.587804    26A     -0.553874    27A     -0.538708
      28A     -0.533361    29A     -0.502588    30A     -0.490122
      31A     -0.434581    32A     -0.356437    33A     -0.336609

  @DF-RHF Final Energy:  -703.19551313935301

   => Energetics <=

    Nuclear Repulsion Energy =            404.6288708234441174
    One-Electron Energy =               -1767.4189164743179390
    Two-Electron Energy =                 659.5945325115206970
    Total Energy =                       -703.1955131393530110
  Basis Set: (AUG-CC-PVTZ AUX)
    Blend: AUG-CC-PVTZ-RI
    Molecular point group: c1

    Geometry (in Angstrom), charge = 0, multiplicity = 1:

       Center              X                  Y                   Z               Mass
    ------------   -----------------  -----------------  -----------------  -----------------
         S            0.062537238488     1.574014778339     0.001199879444    31.972071174400
         O            2.727077238488    -1.330179221661     0.001192879444    15.994914619570
         C           -1.528313761512    -0.466732221661     0.001193879444    12.000000000000
         C           -0.213370761512    -0.986718221661     0.001198879444    12.000000000000
         C            0.762796238488    -0.004717221661     0.001206879444    12.000000000000
         C           -1.519782761512     0.918575778339     0.001194879444    12.000000000000
         C           -2.775720761512    -1.303288221661     0.001204879444    12.000000000000
         C            2.211529238488    -0.214179221661     0.001204879444    12.000000000000
         H            0.043339238488    -2.042443221661     0.001196879444     1.007825032230
         H           -2.377832861512     1.581129578339    -0.148814120556     1.007825032230
         H           -2.815180761512    -1.947646221661    -0.882187120556     1.007825032230
         H           -2.815190761512    -1.947604221661     0.884625879444     1.007825032230
         H           -3.669099761512    -0.673583221661     0.001184879444     1.007825032230
         H            2.838329238488     0.700330778339     0.001216879444     1.007825032230

  Basis Set: AUG-CC-PVTZ
    Blend: AUG-CC-PVTZ
  Basis Set: (AUG-CC-PVTZ AUX)
    Blend: AUG-CC-PVTZ-JKFIT
	 Reference Energy          =    -703.1955131393530110 [Eh]
	 Singles Energy            =      -0.0000000000000000 [Eh]
	 Same-Spin Energy          =      -0.3847240710876524 [Eh]
	 Opposite-Spin Energy      =      -1.1770853697342023 [Eh]
	 Correlation Energy        =      -1.5618094408218548 [Eh]
	 Total Energy              =    -704.7573225801749004 [Eh]

	 ================> DF-SCS-MP2 Energies <==================
	-----------------------------------------------------------
	 SCS Same-Spin Scale       =       0.3333333333333333 [-]
	 SCS Opposite-Spin Scale   =       1.2000000000000000 [-]
	 SCS Same-Spin Energy      =      -0.1282413570292175 [Eh]
	 SCS Opposite-Spin Energy  =      -1.4125024436810427 [Eh]
	 SCS Correlation Energy    =      -1.5407438007102603 [Eh]
	 SCS Total Energy          =    -704.7362569400632992 [Eh]
	-----------------------------------------------------------

  Dipole Moment: [D]
     X:    -3.1189      Y:     1.5166      Z:    -0.1131     Total:     3.4699

*** Psi4 exiting successfully. Buy a developer a beer!
