                               Psi4 1.3.2 release

  ==> Input File <==

--------------------------------------------------------------------------
#psi4
#
memory 32 gb

molecule  {
0 1
  S        0.1285310     1.6062780     0.0000000
  O        2.7930710    -1.2979160    -0.0000070
  C       -1.4623200    -0.4344690    -0.0000060
  C       -0.1473770    -0.9544550    -0.0000010
  C        0.8287900     0.0275460     0.0000070
  C       -1.4537890     0.9508390    -0.0000050
  C       -2.7097270    -1.2710250     0.0000050
  C        2.2775229    -0.1819160     0.0500050
  H        0.1093330    -2.0101800    -0.0000030
  H       -2.3118400     1.6133930    -0.0000140
  H       -2.7491870    -1.9153830    -0.8833870
  H       -2.7491970    -1.9153410     0.8834260
  H       -3.6031060    -0.6413200    -0.0000150
  H        2.9043230     0.7325940     0.0000170
units angstrom
no_reorient  #important for SAPT in psi4, default
symmetry c1  #important for SAPT in psi4, default
}

set PROPERTIES_ORIGIN ["COM"]
properties('MP2/aug-cc-pvtz', properties = ['dipole'])
--------------------------------------------------------------------------

    Molecular point group: c1
  Charge       = 0
  Multiplicity = 1
  Basis Set: AUG-CC-PVTZ
    Blend: AUG-CC-PVTZ
  Basis Set: (AUG-CC-PVTZ AUX)
    Blend: AUG-CC-PVTZ-JKFIT

    Orbital Energies [Eh]
    ---------------------

    Doubly Occupied:

       1A    -92.004124     2A    -20.555220     3A    -11.344991
       4A    -11.283045     5A    -11.276322     6A    -11.263100
       7A    -11.261079     8A    -11.241974     9A     -9.004185
      10A     -6.685154    11A     -6.684690    12A     -6.683962
      13A     -1.379491    14A     -1.193755    15A     -1.055127
      16A     -1.009822    17A     -0.946463    18A     -0.866258
      19A     -0.772813    20A     -0.739653    21A     -0.679022
      22A     -0.647635    23A     -0.604766    24A     -0.596586
      25A     -0.589626    26A     -0.553634    27A     -0.538776
      28A     -0.533418    29A     -0.502724    30A     -0.490095
      31A     -0.434357    32A     -0.356383    33A     -0.336508

  @DF-RHF Final Energy:  -703.19563682044088

   => Energetics <=

    Nuclear Repulsion Energy =            404.6374776511961500
    One-Electron Energy =               -1767.4367141796788019
    Two-Electron Energy =                 659.6035997080417701
    Total Energy =                       -703.1956368204408818
  Basis Set: (AUG-CC-PVTZ AUX)
    Blend: AUG-CC-PVTZ-RI
    Molecular point group: c1

    Geometry (in Angstrom), charge = 0, multiplicity = 1:

       Center              X                  Y                   Z               Mass
    ------------   -----------------  -----------------  -----------------  -----------------
         S            0.062537255208     1.574014776740    -0.004761157714    31.972071174400
         O            2.727077255208    -1.330179223260    -0.004768157714    15.994914619570
         C           -1.528313744792    -0.466732223260    -0.004767157714    12.000000000000
         C           -0.213370744792    -0.986718223260    -0.004762157714    12.000000000000
         C            0.762796255208    -0.004717223260    -0.004754157714    12.000000000000
         C           -1.519782744792     0.918575776740    -0.004766157714    12.000000000000
         C           -2.775720744792    -1.303288223260    -0.004756157714    12.000000000000
         C            2.211529155208    -0.214179223260     0.045243842286    12.000000000000
         H            0.043339255208    -2.042443223260    -0.004764157714     1.007825032230
         H           -2.377833744792     1.581129776740    -0.004775157714     1.007825032230
         H           -2.815180744792    -1.947646223260    -0.888148157714     1.007825032230
         H           -2.815190744792    -1.947604223260     0.878664842286     1.007825032230
         H           -3.669099744792    -0.673583223260    -0.004776157714     1.007825032230
         H            2.838329255208     0.700330776740    -0.004744157714     1.007825032230

  Basis Set: AUG-CC-PVTZ
    Blend: AUG-CC-PVTZ
  Basis Set: (AUG-CC-PVTZ AUX)
    Blend: AUG-CC-PVTZ-JKFIT
	 Reference Energy          =    -703.1956368204408818 [Eh]
	 Singles Energy            =      -0.0000000000000000 [Eh]
	 Same-Spin Energy          =      -0.3846934459097896 [Eh]
	 Opposite-Spin Energy      =      -1.1770365530995477 [Eh]
	 Correlation Energy        =      -1.5617299990093372 [Eh]
	 Total Energy              =    -704.7573668194502261 [Eh]

	 ================> DF-SCS-MP2 Energies <==================
	-----------------------------------------------------------
	 SCS Same-Spin Scale       =       0.3333333333333333 [-]
	 SCS Opposite-Spin Scale   =       1.2000000000000000 [-]
	 SCS Same-Spin Energy      =      -0.1282311486365965 [Eh]
	 SCS Opposite-Spin Energy  =      -1.4124438637194572 [Eh]
	 SCS Correlation Energy    =      -1.5406750123560538 [Eh]
	 SCS Total Energy          =    -704.7363118327969005 [Eh]
	-----------------------------------------------------------

  Dipole Moment: [D]
     X:    -3.1314      Y:     1.5264      Z:     0.0376     Total:     3.4838

*** Psi4 exiting successfully. Buy a developer a beer!
