                               Psi4 1.3.2 release

  ==> Input File <==

--------------------------------------------------------------------------
#psi4
#
memory 32 gb

molecule  {
0 1
  S        0.1285310     1.6062780     0.0000000
  O        2.7930710    -1.2979160    -0.0000070
  C       -1.4623200    -0.4344690    -0.0000060
  C       -0.1473770    -0.9544550    -0.0000010
  C        0.8287900     0.0275460     0.0000070
  C       -1.4537890     0.9508390    -0.0000050
  C       -2.7097270    -1.2710250     0.0000050
  C        2.2775230    -0.1819160     0.0000050
  H        0.1093330    -2.0101800    -0.0000030
  H       -2.3118386     1.6133926    -0.2500140
  H       -2.7491870    -1.9153830    -0.8833870
  H       -2.7491970    -1.9153410     0.8834260
  H       -3.6031060    -0.6413200    -0.0000150
  H        2.9043230     0.7325940     0.0000170
units angstrom
no_reorient  #important for SAPT in psi4, default
symmetry c1  #important for SAPT in psi4, default
}

set PROPERTIES_ORIGIN ["COM"]
properties('MP2/aug-cc-pvtz', properties = ['dipole'])
--------------------------------------------------------------------------

    Molecular point group: c1
  Charge       = 0
  Multiplicity = 1
  Basis Set: AUG-CC-PVTZ
    Blend: AUG-CC-PVTZ
  Basis Set: (AUG-CC-PVTZ AUX)
    Blend: AUG-CC-PVTZ-JKFIT

    Orbital Energies [Eh]
    ---------------------

    Doubly Occupied:

       1A    -92.004075     2A    -20.555515     3A    -11.344996
       4A    -11.284888     5A    -11.276912     6A    -11.263803
       7A    -11.261283     8A    -11.242104     9A     -9.004154
      10A     -6.685119    11A     -6.684641    12A     -6.683919
      13A     -1.380436    14A     -1.193896    15A     -1.055389
      16A     -1.009114    17A     -0.946811    18A     -0.865550
      19A     -0.770210    20A     -0.738462    21A     -0.679537
      22A     -0.647345    23A     -0.604985    24A     -0.598250
      25A     -0.585025    26A     -0.553971    27A     -0.538526
      28A     -0.533158    29A     -0.501992    30A     -0.490130
      31A     -0.434845    32A     -0.356503    33A     -0.336633

  @DF-RHF Final Energy:  -703.19308676494893

   => Energetics <=

    Nuclear Repulsion Energy =            404.5565586019218927
    One-Electron Energy =               -1767.2749387715034572
    Two-Electron Energy =                 659.5252934046325208
    Total Energy =                       -703.1930867649489301
  Basis Set: (AUG-CC-PVTZ AUX)
    Blend: AUG-CC-PVTZ-RI
    Molecular point group: c1

    Geometry (in Angstrom), charge = 0, multiplicity = 1:

       Center              X                  Y                   Z               Mass
    ------------   -----------------  -----------------  -----------------  -----------------
         S            0.062537234489     1.574014779939     0.001999652123    31.972071174400
         O            2.727077234489    -1.330179220061     0.001992652123    15.994914619570
         C           -1.528313765511    -0.466732220061     0.001993652123    12.000000000000
         C           -0.213370765511    -0.986718220061     0.001998652123    12.000000000000
         C            0.762796234489    -0.004717220061     0.002006652123    12.000000000000
         C           -1.519782765511     0.918575779939     0.001994652123    12.000000000000
         C           -2.775720765511    -1.303288220061     0.002004652123    12.000000000000
         C            2.211529234489    -0.214179220061     0.002004652123    12.000000000000
         H            0.043339234489    -2.042443220061     0.001996652123     1.007825032230
         H           -2.377832365511     1.581129379939    -0.248014347877     1.007825032230
         H           -2.815180765511    -1.947646220061    -0.881387347877     1.007825032230
         H           -2.815190765511    -1.947604220061     0.885425652123     1.007825032230
         H           -3.669099765511    -0.673583220061     0.001984652123     1.007825032230
         H            2.838329234489     0.700330779939     0.002016652123     1.007825032230

  Basis Set: AUG-CC-PVTZ
    Blend: AUG-CC-PVTZ
  Basis Set: (AUG-CC-PVTZ AUX)
    Blend: AUG-CC-PVTZ-JKFIT
	 Reference Energy          =    -703.1930867649489301 [Eh]
	 Singles Energy            =      -0.0000000000000000 [Eh]
	 Same-Spin Energy          =      -0.3849001613549540 [Eh]
	 Opposite-Spin Energy      =      -1.1774605751169833 [Eh]
	 Correlation Energy        =      -1.5623607364719372 [Eh]
	 Total Energy              =    -704.7554475014209174 [Eh]

	 ================> DF-SCS-MP2 Energies <==================
	-----------------------------------------------------------
	 SCS Same-Spin Scale       =       0.3333333333333333 [-]
	 SCS Opposite-Spin Scale   =       1.2000000000000000 [-]
	 SCS Same-Spin Energy      =      -0.1283000537849847 [Eh]
	 SCS Opposite-Spin Energy  =      -1.4129526901403799 [Eh]
	 SCS Correlation Energy    =      -1.5412527439253645 [Eh]
	 SCS Total Energy          =    -704.7343395088743137 [Eh]
	-----------------------------------------------------------

  Dipole Moment: [D]
     X:    -3.0940      Y:     1.4945      Z:    -0.1868     Total:     3.4411

*** Psi4 exiting successfully. Buy a developer a beer!
