                               Psi4 1.3.2 release

  ==> Input File <==

--------------------------------------------------------------------------
#psi4
#
memory 32 gb

molecule  {
0 1
  S        0.1285310     1.6062780     0.0000000
  O        2.7930710    -1.2979160    -0.0000070
  C       -1.4623200    -0.4344690    -0.0000060
  C       -0.1473770    -0.9544550    -0.0000010
  C        0.8287900     0.0275460     0.0000070
  C       -1.4537890     0.9508390    -0.0000050
  C       -2.7097270    -1.2710250     0.0000050
  C        2.2775230    -0.1819160     0.0000050
  H        0.1093330    -2.0101800    -0.0000030
  H       -2.3118400     1.6133930    -0.0000140
  H       -2.7491870    -1.9153830    -0.8833870
  H       -2.7491970    -1.9153410     0.8834260
  H       -3.6031060    -0.6413200    -0.0000150
  H        2.9043232     0.7325969    -0.2499830
units angstrom
no_reorient  #important for SAPT in psi4, default
symmetry c1  #important for SAPT in psi4, default
}

set PROPERTIES_ORIGIN ["COM"]
properties('MP2/aug-cc-pvtz', properties = ['dipole'])
--------------------------------------------------------------------------

    Molecular point group: c1
  Charge       = 0
  Multiplicity = 1
  Basis Set: AUG-CC-PVTZ
    Blend: AUG-CC-PVTZ
  Basis Set: (AUG-CC-PVTZ AUX)
    Blend: AUG-CC-PVTZ-JKFIT

    Orbital Energies [Eh]
    ---------------------

    Doubly Occupied:

       1A    -92.004133     2A    -20.556389     3A    -11.347578
       4A    -11.283036     5A    -11.276864     6A    -11.263169
       7A    -11.261277     8A    -11.242032     9A     -9.004189
      10A     -6.685156    11A     -6.684692    12A     -6.683960
      13A     -1.380884    14A     -1.193879    15A     -1.055154
      16A     -1.009986    17A     -0.946035    18A     -0.864511
      19A     -0.770869    20A     -0.738553    21A     -0.677961
      22A     -0.646876    23A     -0.605009    24A     -0.596643
      25A     -0.589702    26A     -0.554403    27A     -0.538835
      28A     -0.532880    29A     -0.503268    30A     -0.489965
      31A     -0.433145    32A     -0.356500    33A     -0.336647

  @DF-RHF Final Energy:  -703.19287707358717

   => Energetics <=

    Nuclear Repulsion Energy =            404.5593713734029393
    One-Electron Energy =               -1767.2761389935253646
    Two-Electron Energy =                 659.5238905465353128
    Total Energy =                       -703.1928770735871694
  Basis Set: (AUG-CC-PVTZ AUX)
    Blend: AUG-CC-PVTZ-RI
    Molecular point group: c1

    Geometry (in Angstrom), charge = 0, multiplicity = 1:

       Center              X                  Y                   Z               Mass
    ------------   -----------------  -----------------  -----------------  -----------------
         S            0.062537244086     1.574014753546     0.001999652123    31.972071174400
         O            2.727077244086    -1.330179246454     0.001992652123    15.994914619570
         C           -1.528313755914    -0.466732246454     0.001993652123    12.000000000000
         C           -0.213370755914    -0.986718246454     0.001998652123    12.000000000000
         C            0.762796244086    -0.004717246454     0.002006652123    12.000000000000
         C           -1.519782755914     0.918575753546     0.001994652123    12.000000000000
         C           -2.775720755914    -1.303288246454     0.002004652123    12.000000000000
         C            2.211529244086    -0.214179246454     0.002004652123    12.000000000000
         H            0.043339244086    -2.042443246454     0.001996652123     1.007825032230
         H           -2.377833755914     1.581129753546     0.001985652123     1.007825032230
         H           -2.815180755914    -1.947646246454    -0.881387347877     1.007825032230
         H           -2.815190755914    -1.947604246454     0.885425652123     1.007825032230
         H           -3.669099755914    -0.673583246454     0.001984652123     1.007825032230
         H            2.838329444086     0.700333653546    -0.247983347877     1.007825032230

  Basis Set: AUG-CC-PVTZ
    Blend: AUG-CC-PVTZ
  Basis Set: (AUG-CC-PVTZ AUX)
    Blend: AUG-CC-PVTZ-JKFIT
	 Reference Energy          =    -703.1928770735871694 [Eh]
	 Singles Energy            =      -0.0000000000000000 [Eh]
	 Same-Spin Energy          =      -0.3848560700631365 [Eh]
	 Opposite-Spin Energy      =      -1.1773981010061769 [Eh]
	 Correlation Energy        =      -1.5622541710693134 [Eh]
	 Total Energy              =    -704.7551312446564680 [Eh]

	 ================> DF-SCS-MP2 Energies <==================
	-----------------------------------------------------------
	 SCS Same-Spin Scale       =       0.3333333333333333 [-]
	 SCS Opposite-Spin Scale   =       1.2000000000000000 [-]
	 SCS Same-Spin Energy      =      -0.1282853566877122 [Eh]
	 SCS Opposite-Spin Energy  =      -1.4128777212074122 [Eh]
	 SCS Correlation Energy    =      -1.5411630778951244 [Eh]
	 SCS Total Energy          =    -704.7340401514823043 [Eh]
	-----------------------------------------------------------

  Dipole Moment: [D]
     X:    -3.1529      Y:     1.4866      Z:    -0.0927     Total:     3.4870

*** Psi4 exiting successfully. Buy a developer a beer!
