                               Psi4 1.3.2 release

  ==> Input File <==

--------------------------------------------------------------------------
#psi4
#
memory 32 gb

molecule  {
0 1
  S        0.1285310     1.6062780     0.0000000
  O        2.7930710    -1.2979160    -0.0000070
  C       -1.4623200    -0.4344690    -0.0000060
  C       -0.1473770    -0.9544550    -0.0000010
  C        0.8287900     0.0275460     0.0000070
  C       -1.4537890     0.9508390    -0.0000050
  C       -2.7097270    -1.2710250     0.0000050
  C        2.2775230    -0.1819160     0.0000050
  H        0.1093330    -2.0101800    -0.0000030
  H       -2.3118400     1.6133930    -0.0000140
  H       -2.7491870    -1.9153830    -0.8833870
  H       -2.7491970    -1.9153410     0.8834260
  H       -3.6031060    -0.6413200    -0.0000150
  H        2.9043230     0.7325946    -0.0499830
units angstrom
no_reorient  #important for SAPT in psi4, default
symmetry c1  #important for SAPT in psi4, default
}

set PROPERTIES_ORIGIN ["COM"]
properties('MP2/aug-cc-pvtz', properties = ['dipole'])
--------------------------------------------------------------------------

    Molecular point group: c1
  Charge       = 0
  Multiplicity = 1
  Basis Set: AUG-CC-PVTZ
    Blend: AUG-CC-PVTZ
  Basis Set: (AUG-CC-PVTZ AUX)
    Blend: AUG-CC-PVTZ-JKFIT

    Orbital Energies [Eh]
    ---------------------

    Doubly Occupied:

       1A    -92.004157     2A    -20.555001     3A    -11.344752
       4A    -11.283068     5A    -11.276236     6A    -11.263117
       7A    -11.261125     8A    -11.241987     9A     -9.004215
      10A     -6.685183    11A     -6.684720    12A     -6.683992
      13A     -1.379992    14A     -1.193793    15A     -1.055195
      16A     -1.009895    17A     -0.946526    18A     -0.866297
      19A     -0.772881    20A     -0.739674    21A     -0.679196
      22A     -0.647842    23A     -0.604838    24A     -0.596617
      25A     -0.589696    26A     -0.553843    27A     -0.538811
      28A     -0.533428    29A     -0.502932    30A     -0.490112
      31A     -0.434378    32A     -0.356405    33A     -0.336601

  @DF-RHF Final Energy:  -703.19660238335064

   => Energetics <=

    Nuclear Repulsion Energy =            404.6661339594271567
    One-Electron Energy =               -1767.4924594240308124
    Two-Electron Energy =                 659.6297230812529051
    Total Energy =                       -703.1966023833506370
  Basis Set: (AUG-CC-PVTZ AUX)
    Blend: AUG-CC-PVTZ-RI
    Molecular point group: c1

    Geometry (in Angstrom), charge = 0, multiplicity = 1:

       Center              X                  Y                   Z               Mass
    ------------   -----------------  -----------------  -----------------  -----------------
         S            0.062537245686     1.574014771941     0.000400106765    31.972071174400
         O            2.727077245686    -1.330179228059     0.000393106765    15.994914619570
         C           -1.528313754314    -0.466732228059     0.000394106765    12.000000000000
         C           -0.213370754314    -0.986718228059     0.000399106765    12.000000000000
         C            0.762796245686    -0.004717228059     0.000407106765    12.000000000000
         C           -1.519782754314     0.918575771941     0.000395106765    12.000000000000
         C           -2.775720754314    -1.303288228059     0.000405106765    12.000000000000
         C            2.211529245686    -0.214179228059     0.000405106765    12.000000000000
         H            0.043339245686    -2.042443228059     0.000397106765     1.007825032230
         H           -2.377833754314     1.581129771941     0.000386106765     1.007825032230
         H           -2.815180754314    -1.947646228059    -0.882986893235     1.007825032230
         H           -2.815190754314    -1.947604228059     0.883826106765     1.007825032230
         H           -3.669099754314    -0.673583228059     0.000385106765     1.007825032230
         H            2.838329245686     0.700331371941    -0.049582893235     1.007825032230

  Basis Set: AUG-CC-PVTZ
    Blend: AUG-CC-PVTZ
  Basis Set: (AUG-CC-PVTZ AUX)
    Blend: AUG-CC-PVTZ-JKFIT
	 Reference Energy          =    -703.1966023833506370 [Eh]
	 Singles Energy            =      -0.0000000000000000 [Eh]
	 Same-Spin Energy          =      -0.3846323920957184 [Eh]
	 Opposite-Spin Energy      =      -1.1768983093393488 [Eh]
	 Correlation Energy        =      -1.5615307014350672 [Eh]
	 Total Energy              =    -704.7581330847857544 [Eh]

	 ================> DF-SCS-MP2 Energies <==================
	-----------------------------------------------------------
	 SCS Same-Spin Scale       =       0.3333333333333333 [-]
	 SCS Opposite-Spin Scale   =       1.2000000000000000 [-]
	 SCS Same-Spin Energy      =      -0.1282107973652395 [Eh]
	 SCS Opposite-Spin Energy  =      -1.4122779712072184 [Eh]
	 SCS Correlation Energy    =      -1.5404887685724580 [Eh]
	 SCS Total Energy          =    -704.7370911519230958 [Eh]
	-----------------------------------------------------------

  Dipole Moment: [D]
     X:    -3.1339      Y:     1.5277      Z:    -0.0195     Total:     3.4865

*** Psi4 exiting successfully. Buy a developer a beer!
