                               Psi4 1.3.2 release

  ==> Input File <==

--------------------------------------------------------------------------
#psi4
#
memory 32 gb

molecule  {
0 1
  S        0.1285310     1.6062780     0.0000000
  O        2.7930710    -1.2979160    -0.0000070
  C       -1.4623200    -0.4344690    -0.0000060
  C       -0.1473770    -0.9544550    -0.0000010
  C        0.8287900     0.0275460     0.0000070
  C       -1.4537890     0.9508390    -0.0000050
  C       -2.7097270    -1.2710250     0.0000050
  C        2.2775230    -0.1819160     0.0000050
  H        0.1093330    -2.0101800    -0.0000030
  H       -2.3118400     1.6133930    -0.0000140
  H       -2.7491870    -1.9153830    -0.8833870
  H       -2.7491970    -1.9153410     0.8834260
  H       -3.6031060    -0.6413200    -0.0000150
  H        2.9043231     0.7325958    -0.1499830
units angstrom
no_reorient  #important for SAPT in psi4, default
symmetry c1  #important for SAPT in psi4, default
}

set PROPERTIES_ORIGIN ["COM"]
properties('MP2/aug-cc-pvtz', properties = ['dipole'])
--------------------------------------------------------------------------

    Molecular point group: c1
  Charge       = 0
  Multiplicity = 1
  Basis Set: AUG-CC-PVTZ
    Blend: AUG-CC-PVTZ
  Basis Set: (AUG-CC-PVTZ AUX)
    Blend: AUG-CC-PVTZ-JKFIT

    Orbital Energies [Eh]
    ---------------------

    Doubly Occupied:

       1A    -92.004148     2A    -20.555466     3A    -11.345705
       4A    -11.283055     5A    -11.276445     6A    -11.263133
       7A    -11.261174     8A    -11.242001     9A     -9.004204
      10A     -6.685173    11A     -6.684709    12A     -6.683980
      13A     -1.380290    14A     -1.193820    15A     -1.055178
      16A     -1.009923    17A     -0.946350    18A     -0.865666
      19A     -0.772170    20A     -0.739299    21A     -0.678767
      22A     -0.647542    23A     -0.604894    24A     -0.596624
      25A     -0.589697    26A     -0.554032    27A     -0.538816
      28A     -0.533240    29A     -0.503043    30A     -0.490060
      31A     -0.433976    32A     -0.356436    33A     -0.336616

  @DF-RHF Final Energy:  -703.19541782608326

   => Energetics <=

    Nuclear Repulsion Energy =            404.6299403716190568
    One-Electron Energy =               -1767.4194527407057649
    Two-Electron Energy =                 659.5940945430033935
    Total Energy =                       -703.1954178260832578
  Basis Set: (AUG-CC-PVTZ AUX)
    Blend: AUG-CC-PVTZ-RI
    Molecular point group: c1

    Geometry (in Angstrom), charge = 0, multiplicity = 1:

       Center              X                  Y                   Z               Mass
    ------------   -----------------  -----------------  -----------------  -----------------
         S            0.062537244886     1.574014762344     0.001199879444    31.972071174400
         O            2.727077244886    -1.330179237656     0.001192879444    15.994914619570
         C           -1.528313755114    -0.466732237656     0.001193879444    12.000000000000
         C           -0.213370755114    -0.986718237656     0.001198879444    12.000000000000
         C            0.762796244886    -0.004717237656     0.001206879444    12.000000000000
         C           -1.519782755114     0.918575762344     0.001194879444    12.000000000000
         C           -2.775720755114    -1.303288237656     0.001204879444    12.000000000000
         C            2.211529244886    -0.214179237656     0.001204879444    12.000000000000
         H            0.043339244886    -2.042443237656     0.001196879444     1.007825032230
         H           -2.377833755114     1.581129762344     0.001185879444     1.007825032230
         H           -2.815180755114    -1.947646237656    -0.882187120556     1.007825032230
         H           -2.815190755114    -1.947604237656     0.884625879444     1.007825032230
         H           -3.669099755114    -0.673583237656     0.001184879444     1.007825032230
         H            2.838329344886     0.700332562344    -0.148783120556     1.007825032230

  Basis Set: AUG-CC-PVTZ
    Blend: AUG-CC-PVTZ
  Basis Set: (AUG-CC-PVTZ AUX)
    Blend: AUG-CC-PVTZ-JKFIT
	 Reference Energy          =    -703.1954178260832578 [Eh]
	 Singles Energy            =      -0.0000000000000000 [Eh]
	 Same-Spin Energy          =      -0.3847076222733972 [Eh]
	 Opposite-Spin Energy      =      -1.1770583024703534 [Eh]
	 Correlation Energy        =      -1.5617659247437505 [Eh]
	 Total Energy              =    -704.7571837508270391 [Eh]

	 ================> DF-SCS-MP2 Energies <==================
	-----------------------------------------------------------
	 SCS Same-Spin Scale       =       0.3333333333333333 [-]
	 SCS Opposite-Spin Scale   =       1.2000000000000000 [-]
	 SCS Same-Spin Energy      =      -0.1282358740911324 [Eh]
	 SCS Opposite-Spin Energy  =      -1.4124699629644240 [Eh]
	 SCS Correlation Energy    =      -1.5407058370555564 [Eh]
	 SCS Total Energy          =    -704.7361236631388692 [Eh]
	-----------------------------------------------------------

  Dipole Moment: [D]
     X:    -3.1401      Y:     1.5140      Z:    -0.0575     Total:     3.4865

*** Psi4 exiting successfully. Buy a developer a beer!
