                               Psi4 1.3.2 release

  ==> Input File <==

--------------------------------------------------------------------------
#psi4
#
memory 32 gb

molecule  {
0 1
  S        0.1285310     1.6062780     0.0000000
  O        2.7930710    -1.2979160    -0.0000070
  C       -1.4623200    -0.4344690    -0.0000060
  C       -0.1473770    -0.9544550    -0.0000010
  C        0.8287900     0.0275460     0.0000070
  C       -1.4537890     0.9508390    -0.0000050
  C       -2.7097270    -1.2710250     0.0000050
  C        2.2775230    -0.1819160     0.0000050
  H        0.1093330    -2.0101800    -0.0000030
  H       -2.3118389     1.6133927    -0.2000140
  H       -2.7491870    -1.9153830    -0.8833870
  H       -2.7491970    -1.9153410     0.8834260
  H       -3.6031060    -0.6413200    -0.0000150
  H        2.9043230     0.7325940     0.0000170
units angstrom
no_reorient  #important for SAPT in psi4, default
symmetry c1  #important for SAPT in psi4, default
}

set PROPERTIES_ORIGIN ["COM"]
properties('MP2/aug-cc-pvtz', properties = ['dipole'])
--------------------------------------------------------------------------

    Molecular point group: c1
  Charge       = 0
  Multiplicity = 1
  Basis Set: AUG-CC-PVTZ
    Blend: AUG-CC-PVTZ
  Basis Set: (AUG-CC-PVTZ AUX)
    Blend: AUG-CC-PVTZ-JKFIT

    Orbital Energies [Eh]
    ---------------------

    Doubly Occupied:

       1A    -92.004100     2A    -20.555311     3A    -11.344866
       4A    -11.284243     5A    -11.276662     6A    -11.263556
       7A    -11.261225     8A    -11.242063     9A     -9.004172
      10A     -6.685138    11A     -6.684665    12A     -6.683941
      13A     -1.380265    14A     -1.193856    15A     -1.055319
      16A     -1.009380    17A     -0.946718    18A     -0.865827
      19A     -0.771138    20A     -0.738926    21A     -0.679434
      22A     -0.647528    23A     -0.604930    24A     -0.597832
      25A     -0.586527    26A     -0.553916    27A     -0.538628
      28A     -0.533279    29A     -0.502329    30A     -0.490126
      31A     -0.434697    32A     -0.356466    33A     -0.336619

  @DF-RHF Final Energy:  -703.19448634449930

   => Energetics <=

    Nuclear Repulsion Energy =            404.5969188848352474
    One-Electron Energy =               -1767.3554460479774662
    Two-Electron Energy =                 659.5640408186428658
    Total Energy =                       -703.1944863444992961
  Basis Set: (AUG-CC-PVTZ AUX)
    Blend: AUG-CC-PVTZ-RI
    Molecular point group: c1

    Geometry (in Angstrom), charge = 0, multiplicity = 1:

       Center              X                  Y                   Z               Mass
    ------------   -----------------  -----------------  -----------------  -----------------
         S            0.062537236888     1.574014779139     0.001599765784    31.972071174400
         O            2.727077236888    -1.330179220861     0.001592765784    15.994914619570
         C           -1.528313763112    -0.466732220861     0.001593765784    12.000000000000
         C           -0.213370763112    -0.986718220861     0.001598765784    12.000000000000
         C            0.762796236888    -0.004717220861     0.001606765784    12.000000000000
         C           -1.519782763112     0.918575779139     0.001594765784    12.000000000000
         C           -2.775720763112    -1.303288220861     0.001604765784    12.000000000000
         C            2.211529236888    -0.214179220861     0.001604765784    12.000000000000
         H            0.043339236888    -2.042443220861     0.001596765784     1.007825032230
         H           -2.377832663112     1.581129479139    -0.198414234216     1.007825032230
         H           -2.815180763112    -1.947646220861    -0.881787234216     1.007825032230
         H           -2.815190763112    -1.947604220861     0.885025765784     1.007825032230
         H           -3.669099763112    -0.673583220861     0.001584765784     1.007825032230
         H            2.838329236888     0.700330779139     0.001616765784     1.007825032230

  Basis Set: AUG-CC-PVTZ
    Blend: AUG-CC-PVTZ
  Basis Set: (AUG-CC-PVTZ AUX)
    Blend: AUG-CC-PVTZ-JKFIT
	 Reference Energy          =    -703.1944863444992961 [Eh]
	 Singles Energy            =      -0.0000000000000000 [Eh]
	 Same-Spin Energy          =      -0.3848017086275082 [Eh]
	 Opposite-Spin Energy      =      -1.1772485165646602 [Eh]
	 Correlation Energy        =      -1.5620502251921684 [Eh]
	 Total Energy              =    -704.7565365696914341 [Eh]

	 ================> DF-SCS-MP2 Energies <==================
	-----------------------------------------------------------
	 SCS Same-Spin Scale       =       0.3333333333333333 [-]
	 SCS Opposite-Spin Scale   =       1.2000000000000000 [-]
	 SCS Same-Spin Energy      =      -0.1282672362091694 [Eh]
	 SCS Opposite-Spin Energy  =      -1.4126982198775921 [Eh]
	 SCS Correlation Energy    =      -1.5409654560867616 [Eh]
	 SCS Total Energy          =    -704.7354518005860200 [Eh]
	-----------------------------------------------------------

  Dipole Moment: [D]
     X:    -3.1079      Y:     1.5068      Z:    -0.1502     Total:     3.4572

*** Psi4 exiting successfully. Buy a developer a beer!
