                               Psi4 1.3.2 release

  ==> Input File <==

--------------------------------------------------------------------------
#psi4
#
memory 32 gb

molecule  {
0 1
  S        0.1285310     1.6062780     0.0000000
  O        2.7930710    -1.2979160    -0.0000070
  C       -1.4623200    -0.4344690    -0.0000060
  C       -0.1473770    -0.9544550    -0.0000010
  C        0.8287900     0.0275460     0.0000070
  C       -1.4537890     0.9508390    -0.0000050
  C       -2.7097270    -1.2710250     0.0000050
  C        2.2775230    -0.1819160     0.0000050
  H        0.1093335    -2.0101797    -0.1000030
  H       -2.3118400     1.6133930    -0.0000140
  H       -2.7491870    -1.9153830    -0.8833870
  H       -2.7491970    -1.9153410     0.8834260
  H       -3.6031060    -0.6413200    -0.0000150
  H        2.9043230     0.7325940     0.0000170
units angstrom
no_reorient  #important for SAPT in psi4, default
symmetry c1  #important for SAPT in psi4, default
}

set PROPERTIES_ORIGIN ["COM"]
properties('MP2/aug-cc-pvtz', properties = ['dipole'])
--------------------------------------------------------------------------

    Molecular point group: c1
  Charge       = 0
  Multiplicity = 1
  Basis Set: AUG-CC-PVTZ
    Blend: AUG-CC-PVTZ
  Basis Set: (AUG-CC-PVTZ AUX)
    Blend: AUG-CC-PVTZ-JKFIT

    Orbital Energies [Eh]
    ---------------------

    Doubly Occupied:

       1A    -92.004225     2A    -20.554977     3A    -11.344646
       4A    -11.283070     5A    -11.276319     6A    -11.263184
       7A    -11.261456     8A    -11.241976     9A     -9.004281
      10A     -6.685249    11A     -6.684786    12A     -6.684058
      13A     -1.379972    14A     -1.193810    15A     -1.055218
      16A     -1.009763    17A     -0.946512    18A     -0.866371
      19A     -0.772945    20A     -0.739005    21A     -0.679149
      22A     -0.647861    23A     -0.604773    24A     -0.596742
      25A     -0.589269    26A     -0.553894    27A     -0.538588
      28A     -0.533288    29A     -0.502905    30A     -0.490041
      31A     -0.434454    32A     -0.356350    33A     -0.336619

  @DF-RHF Final Energy:  -703.19612336359899

   => Energetics <=

    Nuclear Repulsion Energy =            404.6514883670236600
    One-Electron Energy =               -1767.4637100804834517
    Two-Electron Energy =                 659.6160983498608630
    Total Energy =                       -703.1961233635989856
  Basis Set: (AUG-CC-PVTZ AUX)
    Blend: AUG-CC-PVTZ-RI
    Molecular point group: c1

    Geometry (in Angstrom), charge = 0, multiplicity = 1:

       Center              X                  Y                   Z               Mass
    ------------   -----------------  -----------------  -----------------  -----------------
         S            0.062537241687     1.574014774340     0.000799993104    31.972071174400
         O            2.727077241687    -1.330179225660     0.000792993104    15.994914619570
         C           -1.528313758313    -0.466732225660     0.000793993104    12.000000000000
         C           -0.213370758313    -0.986718225660     0.000798993104    12.000000000000
         C            0.762796241687    -0.004717225660     0.000806993104    12.000000000000
         C           -1.519782758313     0.918575774340     0.000794993104    12.000000000000
         C           -2.775720758313    -1.303288225660     0.000804993104    12.000000000000
         C            2.211529241687    -0.214179225660     0.000804993104    12.000000000000
         H            0.043339741687    -2.042442925660    -0.099203006896     1.007825032230
         H           -2.377833758313     1.581129774340     0.000785993104     1.007825032230
         H           -2.815180758313    -1.947646225660    -0.882587006896     1.007825032230
         H           -2.815190758313    -1.947604225660     0.884225993104     1.007825032230
         H           -3.669099758313    -0.673583225660     0.000784993104     1.007825032230
         H            2.838329241687     0.700330774340     0.000816993104     1.007825032230

  Basis Set: AUG-CC-PVTZ
    Blend: AUG-CC-PVTZ
  Basis Set: (AUG-CC-PVTZ AUX)
    Blend: AUG-CC-PVTZ-JKFIT
	 Reference Energy          =    -703.1961233635989856 [Eh]
	 Singles Energy            =      -0.0000000000000000 [Eh]
	 Same-Spin Energy          =      -0.3846682774253756 [Eh]
	 Opposite-Spin Energy      =      -1.1769578095057067 [Eh]
	 Correlation Energy        =      -1.5616260869310823 [Eh]
	 Total Energy              =    -704.7577494505300137 [Eh]

	 ================> DF-SCS-MP2 Energies <==================
	-----------------------------------------------------------
	 SCS Same-Spin Scale       =       0.3333333333333333 [-]
	 SCS Opposite-Spin Scale   =       1.2000000000000000 [-]
	 SCS Same-Spin Energy      =      -0.1282227591417918 [Eh]
	 SCS Opposite-Spin Energy  =      -1.4123493714068480 [Eh]
	 SCS Correlation Energy    =      -1.5405721305486400 [Eh]
	 SCS Total Energy          =    -704.7366954941476251 [Eh]
	-----------------------------------------------------------

  Dipole Moment: [D]
     X:    -3.1339      Y:     1.5357      Z:    -0.0743     Total:     3.4907

*** Psi4 exiting successfully. Buy a developer a beer!
