                               Psi4 1.3.2 release

  ==> Input File <==

--------------------------------------------------------------------------
#psi4
#
memory 32 gb

molecule  {
0 1
  S        0.1285310     1.6062780     0.0000000
  O        2.7930710    -1.2979160    -0.0000070
  C       -1.4623200    -0.4344690    -0.0000060
  C       -0.1473770    -0.9544550    -0.0000010
  C        0.8287900     0.0275460     0.0000070
  C       -1.4537890     0.9508390    -0.0000050
  C       -2.7097270    -1.2710250     0.0000050
  C        2.2775225    -0.1819160     0.2000050
  H        0.1093330    -2.0101800    -0.0000030
  H       -2.3118400     1.6133930    -0.0000140
  H       -2.7491870    -1.9153830    -0.8833870
  H       -2.7491970    -1.9153410     0.8834260
  H       -3.6031060    -0.6413200    -0.0000150
  H        2.9043230     0.7325940     0.0000170
units angstrom
no_reorient  #important for SAPT in psi4, default
symmetry c1  #important for SAPT in psi4, default
}

set PROPERTIES_ORIGIN ["COM"]
properties('MP2/aug-cc-pvtz', properties = ['dipole'])
--------------------------------------------------------------------------

    Molecular point group: c1
  Charge       = 0
  Multiplicity = 1
  Basis Set: AUG-CC-PVTZ
    Blend: AUG-CC-PVTZ
  Basis Set: (AUG-CC-PVTZ AUX)
    Blend: AUG-CC-PVTZ-JKFIT

    Orbital Energies [Eh]
    ---------------------

    Doubly Occupied:

       1A    -92.003629     2A    -20.559372     3A    -11.350163
       4A    -11.282670     5A    -11.277935     6A    -11.262883
       7A    -11.260479     8A    -11.241802     9A     -9.003734
      10A     -6.684705    11A     -6.684231    12A     -6.683499
      13A     -1.372734    14A     -1.193243    15A     -1.054120
      16A     -1.008798    17A     -0.945191    18A     -0.864468
      19A     -0.770620    20A     -0.738691    21A     -0.675712
      22A     -0.643915    23A     -0.603814    24A     -0.596159
      25A     -0.588534    26A     -0.551071    27A     -0.538201
      28A     -0.532885    29A     -0.499870    30A     -0.489737
      31A     -0.433382    32A     -0.356102    33A     -0.335170

  @DF-RHF Final Energy:  -703.17891298062352

   => Energetics <=

    Nuclear Repulsion Energy =            404.1470761572767856
    One-Electron Energy =               -1766.4769415769226271
    Two-Electron Energy =                 659.1509524390222623
    Total Energy =                       -703.1789129806235223
  Basis Set: (AUG-CC-PVTZ AUX)
    Blend: AUG-CC-PVTZ-RI
    Molecular point group: c1

    Geometry (in Angstrom), charge = 0, multiplicity = 1:

       Center              X                  Y                   Z               Mass
    ------------   -----------------  -----------------  -----------------  -----------------
         S            0.062537293299     1.574014776740    -0.019045292131    31.972071174400
         O            2.727077293299    -1.330179223260    -0.019052292131    15.994914619570
         C           -1.528313706701    -0.466732223260    -0.019051292131    12.000000000000
         C           -0.213370706701    -0.986718223260    -0.019046292131    12.000000000000
         C            0.762796293299    -0.004717223260    -0.019038292131    12.000000000000
         C           -1.519782706701     0.918575776740    -0.019050292131    12.000000000000
         C           -2.775720706701    -1.303288223260    -0.019040292131    12.000000000000
         C            2.211528793299    -0.214179223260     0.180959707869    12.000000000000
         H            0.043339293299    -2.042443223260    -0.019048292131     1.007825032230
         H           -2.377833706701     1.581129776740    -0.019059292131     1.007825032230
         H           -2.815180706701    -1.947646223260    -0.902432292131     1.007825032230
         H           -2.815190706701    -1.947604223260     0.864380707869     1.007825032230
         H           -3.669099706701    -0.673583223260    -0.019060292131     1.007825032230
         H            2.838329293299     0.700330776740    -0.019028292131     1.007825032230

  Basis Set: AUG-CC-PVTZ
    Blend: AUG-CC-PVTZ
  Basis Set: (AUG-CC-PVTZ AUX)
    Blend: AUG-CC-PVTZ-JKFIT
	 Reference Energy          =    -703.1789129806235223 [Eh]
	 Singles Energy            =      -0.0000000000000000 [Eh]
	 Same-Spin Energy          =      -0.3857445074353482 [Eh]
	 Opposite-Spin Energy      =      -1.1797783940526334 [Eh]
	 Correlation Energy        =      -1.5655229014879817 [Eh]
	 Total Energy              =    -704.7444358821114747 [Eh]

	 ================> DF-SCS-MP2 Energies <==================
	-----------------------------------------------------------
	 SCS Same-Spin Scale       =       0.3333333333333333 [-]
	 SCS Opposite-Spin Scale   =       1.2000000000000000 [-]
	 SCS Same-Spin Energy      =      -0.1285815024784494 [Eh]
	 SCS Opposite-Spin Energy  =      -1.4157340728631600 [Eh]
	 SCS Correlation Energy    =      -1.5443155753416093 [Eh]
	 SCS Total Energy          =    -704.7232285559650791 [Eh]
	-----------------------------------------------------------

  Dipole Moment: [D]
     X:    -3.1056      Y:     1.4811      Z:     0.1403     Total:     3.4435

*** Psi4 exiting successfully. Buy a developer a beer!
