                               Psi4 1.3.2 release

  ==> Input File <==

--------------------------------------------------------------------------
#psi4
#
memory 32 gb

molecule  {
0 1
  S        0.1285310     1.6062780     0.0000000
  O        2.7930710    -1.2979160    -0.0000070
  C       -1.4623200    -0.4344690    -0.0000060
  C       -0.1473770    -0.9544550    -0.0000010
  C        0.8287900     0.0275460     0.0000070
  C       -1.4537890     0.9508390    -0.0000050
  C       -2.7097270    -1.2710250     0.0000050
  C        2.2775230    -0.1819160     0.0000050
  H        0.1093330    -2.0101800    -0.0000030
  H       -2.3118397     1.6133929    -0.0500140
  H       -2.7491870    -1.9153830    -0.8833870
  H       -2.7491970    -1.9153410     0.8834260
  H       -3.6031060    -0.6413200    -0.0000150
  H        2.9043230     0.7325940     0.0000170
units angstrom
no_reorient  #important for SAPT in psi4, default
symmetry c1  #important for SAPT in psi4, default
}

set PROPERTIES_ORIGIN ["COM"]
properties('MP2/aug-cc-pvtz', properties = ['dipole'])
--------------------------------------------------------------------------

    Molecular point group: c1
  Charge       = 0
  Multiplicity = 1
  Basis Set: AUG-CC-PVTZ
    Blend: AUG-CC-PVTZ
  Basis Set: (AUG-CC-PVTZ AUX)
    Blend: AUG-CC-PVTZ-JKFIT

    Orbital Energies [Eh]
    ---------------------

    Doubly Occupied:

       1A    -92.004154     2A    -20.554966     3A    -11.344647
       4A    -11.283145     5A    -11.276238     6A    -11.263143
       7A    -11.261126     8A    -11.241990     9A     -9.004213
      10A     -6.685181    11A     -6.684717    12A     -6.683990
      13A     -1.379974    14A     -1.193794    15A     -1.055204
      16A     -1.009858    17A     -0.946560    18A     -0.866342
      19A     -0.772851    20A     -0.739673    21A     -0.679262
      22A     -0.647855    23A     -0.604837    24A     -0.596725
      25A     -0.589464    26A     -0.553825    27A     -0.538800
      28A     -0.533443    29A     -0.502882    30A     -0.490119
      31A     -0.434445    32A     -0.356405    33A     -0.336601

  @DF-RHF Final Energy:  -703.19661413739641

   => Energetics <=

    Nuclear Repulsion Energy =            404.6660111312033337
    One-Electron Energy =               -1767.4923928898358554
    Two-Electron Energy =                 659.6297676212361694
    Total Energy =                       -703.1966141373964092
  Basis Set: (AUG-CC-PVTZ AUX)
    Blend: AUG-CC-PVTZ-RI
    Molecular point group: c1

    Geometry (in Angstrom), charge = 0, multiplicity = 1:

       Center              X                  Y                   Z               Mass
    ------------   -----------------  -----------------  -----------------  -----------------
         S            0.062537243286     1.574014777540     0.000400106765    31.972071174400
         O            2.727077243286    -1.330179222460     0.000393106765    15.994914619570
         C           -1.528313756714    -0.466732222460     0.000394106765    12.000000000000
         C           -0.213370756714    -0.986718222460     0.000399106765    12.000000000000
         C            0.762796243286    -0.004717222460     0.000407106765    12.000000000000
         C           -1.519782756714     0.918575777540     0.000395106765    12.000000000000
         C           -2.775720756714    -1.303288222460     0.000405106765    12.000000000000
         C            2.211529243286    -0.214179222460     0.000405106765    12.000000000000
         H            0.043339243286    -2.042443222460     0.000397106765     1.007825032230
         H           -2.377833456714     1.581129677540    -0.049613893235     1.007825032230
         H           -2.815180756714    -1.947646222460    -0.882986893235     1.007825032230
         H           -2.815190756714    -1.947604222460     0.883826106765     1.007825032230
         H           -3.669099756714    -0.673583222460     0.000385106765     1.007825032230
         H            2.838329243286     0.700330777540     0.000417106765     1.007825032230

  Basis Set: AUG-CC-PVTZ
    Blend: AUG-CC-PVTZ
  Basis Set: (AUG-CC-PVTZ AUX)
    Blend: AUG-CC-PVTZ-JKFIT
	 Reference Energy          =    -703.1966141373964092 [Eh]
	 Singles Energy            =      -0.0000000000000000 [Eh]
	 Same-Spin Energy          =      -0.3846342321085650 [Eh]
	 Opposite-Spin Energy      =      -1.1769016301107809 [Eh]
	 Correlation Energy        =      -1.5615358622193458 [Eh]
	 Total Energy              =    -704.7581499996157390 [Eh]

	 ================> DF-SCS-MP2 Energies <==================
	-----------------------------------------------------------
	 SCS Same-Spin Scale       =       0.3333333333333333 [-]
	 SCS Opposite-Spin Scale   =       1.2000000000000000 [-]
	 SCS Same-Spin Energy      =      -0.1282114107028550 [Eh]
	 SCS Opposite-Spin Energy  =      -1.4122819561329369 [Eh]
	 SCS Correlation Energy    =      -1.5404933668357919 [Eh]
	 SCS Total Energy          =    -704.7371075042321991 [Eh]
	-----------------------------------------------------------

  Dipole Moment: [D]
     X:    -3.1316      Y:     1.5280      Z:    -0.0379     Total:     3.4847

*** Psi4 exiting successfully. Buy a developer a beer!
