                               Psi4 1.3.2 release

  ==> Input File <==

--------------------------------------------------------------------------
#psi4
#
memory 32 gb

molecule  {
0 1
  S        0.1285310     1.6062780     0.0000000
  O        2.7930710    -1.2979160    -0.0000070
  C       -1.4623200    -0.4344690    -0.0000060
  C       -0.1473770    -0.9544550    -0.0000010
  C        0.8287900     0.0275460     0.0000070
  C       -1.4537890     0.9508390    -0.0000050
  C       -2.7097270    -1.2710250     0.0000050
  C        2.2775230    -0.1819160     0.0000050
  H        0.1093330    -2.0101800    -0.0000030
  H       -2.3118400     1.6133930    -0.0000140
  H       -2.7491870    -1.9153830    -0.8833870
  H       -2.7491970    -1.9153410     0.8834260
  H       -3.6031060    -0.6413200    -0.0000150
  H        2.9043231     0.7325952    -0.0999830
units angstrom
no_reorient  #important for SAPT in psi4, default
symmetry c1  #important for SAPT in psi4, default
}

set PROPERTIES_ORIGIN ["COM"]
properties('MP2/aug-cc-pvtz', properties = ['dipole'])
--------------------------------------------------------------------------

    Molecular point group: c1
  Charge       = 0
  Multiplicity = 1
  Basis Set: AUG-CC-PVTZ
    Blend: AUG-CC-PVTZ
  Basis Set: (AUG-CC-PVTZ AUX)
    Blend: AUG-CC-PVTZ-JKFIT

    Orbital Energies [Eh]
    ---------------------

    Doubly Occupied:

       1A    -92.004153     2A    -20.555176     3A    -11.345111
       4A    -11.283063     5A    -11.276314     6A    -11.263123
       7A    -11.261143     8A    -11.241992     9A     -9.004211
      10A     -6.685179    11A     -6.684716    12A     -6.683987
      13A     -1.380103    14A     -1.193803    15A     -1.055188
      16A     -1.009905    17A     -0.946459    18A     -0.866056
      19A     -0.772610    20A     -0.739533    21A     -0.679033
      22A     -0.647732    23A     -0.604859    24A     -0.596619
      25A     -0.589696    26A     -0.553914    27A     -0.538813
      28A     -0.533357    29A     -0.502974    30A     -0.490092
      31A     -0.434229    32A     -0.356417    33A     -0.336607

  @DF-RHF Final Energy:  -703.19616544869496

   => Energetics <=

    Nuclear Repulsion Energy =            404.6524879553813321
    One-Electron Energy =               -1767.4649734763111155
    Two-Electron Energy =                 659.6163200722348847
    Total Energy =                       -703.1961654486949556
  Basis Set: (AUG-CC-PVTZ AUX)
    Blend: AUG-CC-PVTZ-RI
    Molecular point group: c1

    Geometry (in Angstrom), charge = 0, multiplicity = 1:

       Center              X                  Y                   Z               Mass
    ------------   -----------------  -----------------  -----------------  -----------------
         S            0.062537244886     1.574014767142     0.000799993104    31.972071174400
         O            2.727077244886    -1.330179232858     0.000792993104    15.994914619570
         C           -1.528313755114    -0.466732232858     0.000793993104    12.000000000000
         C           -0.213370755114    -0.986718232858     0.000798993104    12.000000000000
         C            0.762796244886    -0.004717232858     0.000806993104    12.000000000000
         C           -1.519782755114     0.918575767142     0.000794993104    12.000000000000
         C           -2.775720755114    -1.303288232858     0.000804993104    12.000000000000
         C            2.211529244886    -0.214179232858     0.000804993104    12.000000000000
         H            0.043339244886    -2.042443232858     0.000796993104     1.007825032230
         H           -2.377833755114     1.581129767142     0.000785993104     1.007825032230
         H           -2.815180755114    -1.947646232858    -0.882587006896     1.007825032230
         H           -2.815190755114    -1.947604232858     0.884225993104     1.007825032230
         H           -3.669099755114    -0.673583232858     0.000784993104     1.007825032230
         H            2.838329344886     0.700331967142    -0.099183006896     1.007825032230

  Basis Set: AUG-CC-PVTZ
    Blend: AUG-CC-PVTZ
  Basis Set: (AUG-CC-PVTZ AUX)
    Blend: AUG-CC-PVTZ-JKFIT
	 Reference Energy          =    -703.1961654486949556 [Eh]
	 Singles Energy            =      -0.0000000000000000 [Eh]
	 Same-Spin Energy          =      -0.3846607102559639 [Eh]
	 Opposite-Spin Energy      =      -1.1769573470605499 [Eh]
	 Correlation Energy        =      -1.5616180573165139 [Eh]
	 Total Energy              =    -704.7577835060114921 [Eh]

	 ================> DF-SCS-MP2 Energies <==================
	-----------------------------------------------------------
	 SCS Same-Spin Scale       =       0.3333333333333333 [-]
	 SCS Opposite-Spin Scale   =       1.2000000000000000 [-]
	 SCS Same-Spin Energy      =      -0.1282202367519880 [Eh]
	 SCS Opposite-Spin Energy  =      -1.4123488164726599 [Eh]
	 SCS Correlation Energy    =      -1.5405690532246479 [Eh]
	 SCS Total Energy          =    -704.7367345019196136 [Eh]
	-----------------------------------------------------------

  Dipole Moment: [D]
     X:    -3.1362      Y:     1.5226      Z:    -0.0387     Total:     3.4865

*** Psi4 exiting successfully. Buy a developer a beer!
