                               Psi4 1.3.2 release

  ==> Input File <==

--------------------------------------------------------------------------
#psi4
#
memory 32 gb

molecule  {
0 1
  S        0.1285310     1.6062780     0.0000000
  O        2.7930710    -1.2979160    -0.0000070
  C       -1.4623200    -0.4344690    -0.0000060
  C       -0.1473770    -0.9544550    -0.0000010
  C        0.8287900     0.0275460     0.0000070
  C       -1.4537890     0.9508390    -0.0000050
  C       -2.7097265    -1.2710241     0.2500050
  C        2.2775230    -0.1819160     0.0000050
  H        0.1093330    -2.0101800    -0.0000030
  H       -2.3118400     1.6133930    -0.0000140
  H       -2.7491870    -1.9153830    -0.8833870
  H       -2.7491970    -1.9153410     0.8834260
  H       -3.6031060    -0.6413200    -0.0000150
  H        2.9043230     0.7325940     0.0000170
units angstrom
no_reorient  #important for SAPT in psi4, default
symmetry c1  #important for SAPT in psi4, default
}

set PROPERTIES_ORIGIN ["COM"]
properties('MP2/aug-cc-pvtz', properties = ['dipole'])
--------------------------------------------------------------------------

    Molecular point group: c1
  Charge       = 0
  Multiplicity = 1
  Basis Set: AUG-CC-PVTZ
    Blend: AUG-CC-PVTZ
  Basis Set: (AUG-CC-PVTZ AUX)
    Blend: AUG-CC-PVTZ-JKFIT

    Orbital Energies [Eh]
    ---------------------

    Doubly Occupied:

       1A    -92.005229     2A    -20.555590     3A    -11.345222
       4A    -11.284242     5A    -11.277056     6A    -11.268052
       7A    -11.261948     8A    -11.251199     9A     -9.005257
      10A     -6.686223    11A     -6.685758    12A     -6.685026
      13A     -1.380542    14A     -1.194676    15A     -1.055799
      16A     -1.010981    17A     -0.953372    18A     -0.870003
      19A     -0.774704    20A     -0.741348    21A     -0.690422
      22A     -0.651365    23A     -0.643452    24A     -0.588815
      25A     -0.576727    26A     -0.559904    27A     -0.532684
      28A     -0.518470    29A     -0.500372    30A     -0.474863
      31A     -0.435003    32A     -0.355064    33A     -0.335264

  @DF-RHF Final Energy:  -703.13083820897918

   => Energetics <=

    Nuclear Repulsion Energy =            404.4439300732450988
    One-Electron Energy =               -1766.8402729017279853
    Two-Electron Energy =                 659.2655046195036448
    Total Energy =                       -703.1308382089791849
  Basis Set: (AUG-CC-PVTZ AUX)
    Blend: AUG-CC-PVTZ-RI
    Molecular point group: c1

    Geometry (in Angstrom), charge = 0, multiplicity = 1:

       Center              X                  Y                   Z               Mass
    ------------   -----------------  -----------------  -----------------  -----------------
         S            0.062537198072     1.574014691035    -0.023806670269    31.972071174400
         O            2.727077198072    -1.330179308965    -0.023813670269    15.994914619570
         C           -1.528313801928    -0.466732308965    -0.023812670269    12.000000000000
         C           -0.213370801928    -0.986718308965    -0.023807670269    12.000000000000
         C            0.762796198072    -0.004717308965    -0.023799670269    12.000000000000
         C           -1.519782801928     0.918575691035    -0.023811670269    12.000000000000
         C           -2.775720301928    -1.303287408965     0.226198329731    12.000000000000
         C            2.211529198072    -0.214179308965    -0.023801670269    12.000000000000
         H            0.043339198072    -2.042443308965    -0.023809670269     1.007825032230
         H           -2.377833801928     1.581129691035    -0.023820670269     1.007825032230
         H           -2.815180801928    -1.947646308965    -0.907193670269     1.007825032230
         H           -2.815190801928    -1.947604308965     0.859619329731     1.007825032230
         H           -3.669099801928    -0.673583308965    -0.023821670269     1.007825032230
         H            2.838329198072     0.700330691035    -0.023789670269     1.007825032230

  Basis Set: AUG-CC-PVTZ
    Blend: AUG-CC-PVTZ
  Basis Set: (AUG-CC-PVTZ AUX)
    Blend: AUG-CC-PVTZ-JKFIT
	 Reference Energy          =    -703.1308382089791849 [Eh]
	 Singles Energy            =      -0.0000000000000000 [Eh]
	 Same-Spin Energy          =      -0.3853779715929793 [Eh]
	 Opposite-Spin Energy      =      -1.1796691060606235 [Eh]
	 Correlation Energy        =      -1.5650470776536027 [Eh]
	 Total Energy              =    -704.6958852866328016 [Eh]

	 ================> DF-SCS-MP2 Energies <==================
	-----------------------------------------------------------
	 SCS Same-Spin Scale       =       0.3333333333333333 [-]
	 SCS Opposite-Spin Scale   =       1.2000000000000000 [-]
	 SCS Same-Spin Energy      =      -0.1284593238643264 [Eh]
	 SCS Opposite-Spin Energy  =      -1.4156029272727482 [Eh]
	 SCS Correlation Energy    =      -1.5440622511370745 [Eh]
	 SCS Total Energy          =    -704.6749004601163051 [Eh]
	-----------------------------------------------------------

  Dipole Moment: [D]
     X:    -3.0600      Y:     1.6101      Z:     0.1245     Total:     3.4600

*** Psi4 exiting successfully. Buy a developer a beer!
