                               Psi4 1.3.2 release

  ==> Input File <==

--------------------------------------------------------------------------
#psi4
#
memory 32 gb

molecule  {
0 1
  S        0.1285310     1.6062780     0.0000000
  O        2.7930710    -1.2979160    -0.0000070
  C       -1.4623200    -0.4344690    -0.0000060
  C       -0.1473770    -0.9544550    -0.0000010
  C        0.8287900     0.0275460     0.0000070
  C       -1.4537890     0.9508390    -0.0000050
  C       -2.7097270    -1.2710250     0.0000050
  C        2.2775230    -0.1819160     0.0000050
  H        0.1093338    -2.0101795    -0.1500030
  H       -2.3118400     1.6133930    -0.0000140
  H       -2.7491870    -1.9153830    -0.8833870
  H       -2.7491970    -1.9153410     0.8834260
  H       -3.6031060    -0.6413200    -0.0000150
  H        2.9043230     0.7325940     0.0000170
units angstrom
no_reorient  #important for SAPT in psi4, default
symmetry c1  #important for SAPT in psi4, default
}

set PROPERTIES_ORIGIN ["COM"]
properties('MP2/aug-cc-pvtz', properties = ['dipole'])
--------------------------------------------------------------------------

    Molecular point group: c1
  Charge       = 0
  Multiplicity = 1
  Basis Set: AUG-CC-PVTZ
    Blend: AUG-CC-PVTZ
  Basis Set: (AUG-CC-PVTZ AUX)
    Blend: AUG-CC-PVTZ-JKFIT

    Orbital Energies [Eh]
    ---------------------

    Doubly Occupied:

       1A    -92.004308     2A    -20.555019     3A    -11.344665
       4A    -11.283070     5A    -11.276456     6A    -11.263287
       7A    -11.261854     8A    -11.241964     9A     -9.004363
      10A     -6.685330    11A     -6.684867    12A     -6.684139
      13A     -1.379995    14A     -1.193836    15A     -1.055244
      16A     -1.009608    17A     -0.946467    18A     -0.866361
      19A     -0.772913    20A     -0.738132    21A     -0.679022
      22A     -0.647841    23A     -0.604700    24A     -0.596883
      25A     -0.588757    26A     -0.553984    27A     -0.538334
      28A     -0.533059    29A     -0.502890    30A     -0.489940
      31A     -0.434488    32A     -0.356286    33A     -0.336643

  @DF-RHF Final Energy:  -703.19531863828320

   => Energetics <=

    Nuclear Repulsion Energy =            404.6277094250465325
    One-Electron Energy =               -1767.4166425332155086
    Two-Electron Energy =                 659.5936144698857788
    Total Energy =                       -703.1953186382831973
  Basis Set: (AUG-CC-PVTZ AUX)
    Blend: AUG-CC-PVTZ-RI
    Molecular point group: c1

    Geometry (in Angstrom), charge = 0, multiplicity = 1:

       Center              X                  Y                   Z               Mass
    ------------   -----------------  -----------------  -----------------  -----------------
         S            0.062537239287     1.574014772741     0.001199879444    31.972071174400
         O            2.727077239287    -1.330179227259     0.001192879444    15.994914619570
         C           -1.528313760713    -0.466732227259     0.001193879444    12.000000000000
         C           -0.213370760713    -0.986718227259     0.001198879444    12.000000000000
         C            0.762796239287    -0.004717227259     0.001206879444    12.000000000000
         C           -1.519782760713     0.918575772741     0.001194879444    12.000000000000
         C           -2.775720760713    -1.303288227259     0.001204879444    12.000000000000
         C            2.211529239287    -0.214179227259     0.001204879444    12.000000000000
         H            0.043340039287    -2.042442727259    -0.148803120556     1.007825032230
         H           -2.377833760713     1.581129772741     0.001185879444     1.007825032230
         H           -2.815180760713    -1.947646227259    -0.882187120556     1.007825032230
         H           -2.815190760713    -1.947604227259     0.884625879444     1.007825032230
         H           -3.669099760713    -0.673583227259     0.001184879444     1.007825032230
         H            2.838329239287     0.700330772741     0.001216879444     1.007825032230

  Basis Set: AUG-CC-PVTZ
    Blend: AUG-CC-PVTZ
  Basis Set: (AUG-CC-PVTZ AUX)
    Blend: AUG-CC-PVTZ-JKFIT
	 Reference Energy          =    -703.1953186382831973 [Eh]
	 Singles Energy            =      -0.0000000000000000 [Eh]
	 Same-Spin Energy          =      -0.3847245514337496 [Eh]
	 Opposite-Spin Energy      =      -1.1770593420074706 [Eh]
	 Correlation Energy        =      -1.5617838934412203 [Eh]
	 Total Energy              =    -704.7571025317243993 [Eh]

	 ================> DF-SCS-MP2 Energies <==================
	-----------------------------------------------------------
	 SCS Same-Spin Scale       =       0.3333333333333333 [-]
	 SCS Opposite-Spin Scale   =       1.2000000000000000 [-]
	 SCS Same-Spin Energy      =      -0.1282415171445832 [Eh]
	 SCS Opposite-Spin Energy  =      -1.4124712104089647 [Eh]
	 SCS Correlation Energy    =      -1.5407127275535479 [Eh]
	 SCS Total Energy          =    -704.7360313658367659 [Eh]
	-----------------------------------------------------------

  Dipole Moment: [D]
     X:    -3.1348      Y:     1.5435      Z:    -0.1111     Total:     3.4960

*** Psi4 exiting successfully. Buy a developer a beer!
