                               Psi4 1.3.2 release

  ==> Input File <==

--------------------------------------------------------------------------
#psi4
#
memory 32 gb

molecule  {
-1 1
  O       -1.1345620     1.3004230     0.1446500
  O        1.3567840     1.0286670    -0.3584360
  O        1.4410930    -1.1800310     0.1828540
  C       -0.6396870    -0.0151150     0.4106200
  C       -1.4459790    -1.0465850    -0.3602330
  C        0.9565710    -0.0755697     0.0245689
  H       -0.7136530    -0.2389580     1.4893480
  H       -1.3405200    -0.8612460    -1.4337260
  H       -1.0819010    -2.0514490    -0.1379210
  H       -2.5056370    -0.9845300    -0.0954150
  H       -0.3074570     1.7452560    -0.1655130
units angstrom
no_reorient  #important for SAPT in psi4, default
symmetry c1  #important for SAPT in psi4, default
}

set PROPERTIES_ORIGIN ["COM"]
properties('MP2/aug-cc-pvtz', properties = ['dipole'])
--------------------------------------------------------------------------

    Molecular point group: c1
  Charge       = -1
  Multiplicity = 1
  Basis Set: AUG-CC-PVTZ
    Blend: AUG-CC-PVTZ
  Basis Set: (AUG-CC-PVTZ AUX)
    Blend: AUG-CC-PVTZ-JKFIT

    Orbital Energies [Eh]
    ---------------------

    Doubly Occupied:

       1A    -20.375341     2A    -20.322162     3A    -20.315670
       4A    -11.151467     5A    -11.103439     6A    -11.064325
       7A     -1.215283     8A     -1.169221     9A     -1.115529
      10A     -0.848112    11A     -0.676238    12A     -0.552472
      13A     -0.506080    14A     -0.471705    15A     -0.438303
      16A     -0.411020    17A     -0.396469    18A     -0.377424
      19A     -0.369574    20A     -0.358747    21A     -0.271930
      22A     -0.246175    23A     -0.227537    24A     -0.191340

  @DF-RHF Final Energy:  -341.27759072419661

   => Energetics <=

    Nuclear Repulsion Energy =            238.8495616265408330
    One-Electron Energy =                -951.9031841010123571
    Two-Electron Energy =                 371.7760317502748535
    Total Energy =                       -341.2775907241966138
  Basis Set: (AUG-CC-PVTZ AUX)
    Blend: AUG-CC-PVTZ-RI
    Molecular point group: c1

    Geometry (in Angstrom), charge = -1, multiplicity = 1:

       Center              X                  Y                   Z               Mass
    ------------   -----------------  -----------------  -----------------  -----------------
         O           -1.213863439679     1.274337545137     0.143989465479    15.994914619570
         O            1.277482560321     1.002581545137    -0.359096534521    15.994914619570
         O            1.361791560321    -1.206116454863     0.182193465479    15.994914619570
         C           -0.718988439679    -0.041200454863     0.409959465479    12.000000000000
         C           -1.525280439679    -1.072670454863    -0.360893534521    12.000000000000
         C            0.877269560321    -0.101655154863     0.023908365479    12.000000000000
         H           -0.792954439679    -0.265043454863     1.488687465479     1.007825032230
         H           -1.419821439679    -0.887331454863    -1.434386534521     1.007825032230
         H           -1.161202439679    -2.077534454863    -0.138581534521     1.007825032230
         H           -2.584938439679    -1.010615454863    -0.096075534521     1.007825032230
         H           -0.386758439679     1.719170545137    -0.166173534521     1.007825032230

  Basis Set: AUG-CC-PVTZ
    Blend: AUG-CC-PVTZ
  Basis Set: (AUG-CC-PVTZ AUX)
    Blend: AUG-CC-PVTZ-JKFIT
	 Reference Energy          =    -341.2775907241966138 [Eh]
	 Singles Energy            =      -0.0000000000000000 [Eh]
	 Same-Spin Energy          =      -0.3353369254244327 [Eh]
	 Opposite-Spin Energy      =      -1.0162310179688656 [Eh]
	 Correlation Energy        =      -1.3515679433932983 [Eh]
	 Total Energy              =    -342.6291586675899339 [Eh]

	 ================> DF-SCS-MP2 Energies <==================
	-----------------------------------------------------------
	 SCS Same-Spin Scale       =       0.3333333333333333 [-]
	 SCS Opposite-Spin Scale   =       1.2000000000000000 [-]
	 SCS Same-Spin Energy      =      -0.1117789751414776 [Eh]
	 SCS Opposite-Spin Energy  =      -1.2194772215626386 [Eh]
	 SCS Correlation Energy    =      -1.3312561967041161 [Eh]
	 SCS Total Energy          =    -342.6088469209007030 [Eh]
	-----------------------------------------------------------

  Dipole Moment: [D]
     X:    -3.1371      Y:    -0.4669      Z:     0.2520     Total:     3.1817

*** Psi4 exiting successfully. Buy a developer a beer!
