                               Psi4 1.3.2 release

  ==> Input File <==

--------------------------------------------------------------------------
#psi4
#
memory 32 gb

molecule  {
-1 1
  O       -1.1345620     1.3004230     0.1446500
  O        1.3567840     1.0286670    -0.3584360
  O        1.4410930    -1.1800310     0.1828540
  C       -0.6396870    -0.0151150     0.4106200
  C       -1.4459790    -1.0465850    -0.3602330
  C        0.9518563    -0.2479602     0.0694770
  H       -0.7136530    -0.2389580     1.4893480
  H       -1.3405200    -0.8612460    -1.4337260
  H       -1.0819010    -2.0514490    -0.1379210
  H       -2.5056370    -0.9845300    -0.0954150
  H       -0.3074570     1.7452560    -0.1655130
units angstrom
no_reorient  #important for SAPT in psi4, default
symmetry c1  #important for SAPT in psi4, default
}

set PROPERTIES_ORIGIN ["COM"]
properties('MP2/aug-cc-pvtz', properties = ['dipole'])
--------------------------------------------------------------------------

    Molecular point group: c1
  Charge       = -1
  Multiplicity = 1
  Basis Set: AUG-CC-PVTZ
    Blend: AUG-CC-PVTZ
  Basis Set: (AUG-CC-PVTZ AUX)
    Blend: AUG-CC-PVTZ-JKFIT

    Orbital Energies [Eh]
    ---------------------

    Doubly Occupied:

       1A    -20.369691     2A    -20.356612     3A    -20.280061
       4A    -11.145083     5A    -11.103694     6A    -11.066617
       7A     -1.317855     8A     -1.170120     9A     -1.029724
      10A     -0.852811    11A     -0.678505    12A     -0.556714
      13A     -0.527228    14A     -0.479180    15A     -0.444495
      16A     -0.431553    17A     -0.403386    18A     -0.393145
      19A     -0.383933    20A     -0.363830    21A     -0.267042
      22A     -0.214682    23A     -0.204508    24A     -0.173647

  @DF-RHF Final Energy:  -341.20722957956048

   => Energetics <=

    Nuclear Repulsion Energy =            239.2600199869066557
    One-Electron Energy =                -952.5062640736856565
    Two-Electron Energy =                 372.0390145072185533
    Total Energy =                       -341.2072295795604759
  Basis Set: (AUG-CC-PVTZ AUX)
    Blend: AUG-CC-PVTZ-RI
    Molecular point group: c1

    Geometry (in Angstrom), charge = -1, multiplicity = 1:

       Center              X                  Y                   Z               Mass
    ------------   -----------------  -----------------  -----------------  -----------------
         O           -1.213227920233     1.297574975983     0.137936064229    15.994914619570
         O            1.278118079767     1.025818975983    -0.365149935771    15.994914619570
         O            1.362427079767    -1.182879024017     0.176140064229    15.994914619570
         C           -0.718352920233    -0.017963024017     0.403906064229    12.000000000000
         C           -1.524644920233    -1.049433024017    -0.366946935771    12.000000000000
         C            0.873190379767    -0.250808224017     0.062763064229    12.000000000000
         H           -0.792318920233    -0.241806024017     1.482634064229     1.007825032230
         H           -1.419185920233    -0.864094024017    -1.440439935771     1.007825032230
         H           -1.160566920233    -2.054297024017    -0.144634935771     1.007825032230
         H           -2.584302920233    -0.987378024017    -0.102128935771     1.007825032230
         H           -0.386122920233     1.742407975983    -0.172226935771     1.007825032230

  Basis Set: AUG-CC-PVTZ
    Blend: AUG-CC-PVTZ
  Basis Set: (AUG-CC-PVTZ AUX)
    Blend: AUG-CC-PVTZ-JKFIT
	 Reference Energy          =    -341.2072295795604759 [Eh]
	 Singles Energy            =      -0.0000000000000000 [Eh]
	 Same-Spin Energy          =      -0.3352506977228563 [Eh]
	 Opposite-Spin Energy      =      -1.0164747713453086 [Eh]
	 Correlation Energy        =      -1.3517254690681648 [Eh]
	 Total Energy              =    -342.5589550486286612 [Eh]

	 ================> DF-SCS-MP2 Energies <==================
	-----------------------------------------------------------
	 SCS Same-Spin Scale       =       0.3333333333333333 [-]
	 SCS Opposite-Spin Scale   =       1.2000000000000000 [-]
	 SCS Same-Spin Energy      =      -0.1117502325742854 [Eh]
	 SCS Opposite-Spin Energy  =      -1.2197697256143702 [Eh]
	 SCS Correlation Energy    =      -1.3315199581886557 [Eh]
	 SCS Total Energy          =    -342.5387495377491405 [Eh]
	-----------------------------------------------------------

  Dipole Moment: [D]
     X:    -3.0789      Y:    -2.4044      Z:     0.7237     Total:     3.9730

*** Psi4 exiting successfully. Buy a developer a beer!
