                               Psi4 1.3.2 release

  ==> Input File <==

--------------------------------------------------------------------------
#psi4
#
memory 32 gb

molecule  {
-1 1
  O       -1.1345620     1.3004230     0.1446500
  O        1.3567840     1.0286670    -0.3584360
  O        1.4410930    -1.1800310     0.1828540
  C       -0.6282857    -0.0114868     0.4070593
  C       -1.4459790    -1.0465850    -0.3602330
  C        0.8594390    -0.0718910     0.0480600
  H       -0.7136530    -0.2389580     1.4893480
  H       -1.3405200    -0.8612460    -1.4337260
  H       -1.0819010    -2.0514490    -0.1379210
  H       -2.5056370    -0.9845300    -0.0954150
  H       -0.3031109     1.7378871    -0.1643718
units angstrom
no_reorient  #important for SAPT in psi4, default
symmetry c1  #important for SAPT in psi4, default
}

set PROPERTIES_ORIGIN ["COM"]
properties('MP2/aug-cc-pvtz', properties = ['dipole'])
--------------------------------------------------------------------------

    Molecular point group: c1
  Charge       = -1
  Multiplicity = 1
  Basis Set: AUG-CC-PVTZ
    Blend: AUG-CC-PVTZ
  Basis Set: (AUG-CC-PVTZ AUX)
    Blend: AUG-CC-PVTZ-JKFIT

    Orbital Energies [Eh]
    ---------------------

    Doubly Occupied:

       1A    -20.381986     2A    -20.318041     3A    -20.310291
       4A    -11.152260     5A    -11.116663     6A    -11.072158
       7A     -1.205449     8A     -1.163925     9A     -1.083458
      10A     -0.860826    11A     -0.703260    12A     -0.567255
      13A     -0.499649    14A     -0.477420    15A     -0.437463
      16A     -0.404221    17A     -0.399221    18A     -0.372599
      19A     -0.367006    20A     -0.349205    21A     -0.277567
      22A     -0.234295    23A     -0.216845    24A     -0.213647

  @DF-RHF Final Energy:  -341.27953608532795

   => Energetics <=

    Nuclear Repulsion Energy =            239.1695190390469463
    One-Electron Energy =                -952.5286937710684469
    Two-Electron Energy =                 372.0796386466935814
    Total Energy =                       -341.2795360853279476
  Basis Set: (AUG-CC-PVTZ AUX)
    Blend: AUG-CC-PVTZ-RI
    Molecular point group: c1

    Geometry (in Angstrom), charge = -1, multiplicity = 1:

       Center              X                  Y                   Z               Mass
    ------------   -----------------  -----------------  -----------------  -----------------
         O           -1.202356544923     1.273436031431     0.141290021695    15.994914619570
         O            1.288989455077     1.001680031431    -0.361795978305    15.994914619570
         O            1.373298455077    -1.207017968569     0.179494021695    15.994914619570
         C           -0.696080244923    -0.038473768569     0.403699321695    12.000000000000
         C           -1.513773544923    -1.073571968569    -0.363592978305    12.000000000000
         C            0.791644455077    -0.098877968569     0.044700021695    12.000000000000
         H           -0.781447544923    -0.265944968569     1.485988021695     1.007825032230
         H           -1.408314544923    -0.888232968569    -1.437085978305     1.007825032230
         H           -1.149695544923    -2.078435968569    -0.141280978305     1.007825032230
         H           -2.573431544923    -1.011516968569    -0.098774978305     1.007825032230
         H           -0.370905444923     1.710900131431    -0.167731778305     1.007825032230

  Basis Set: AUG-CC-PVTZ
    Blend: AUG-CC-PVTZ
  Basis Set: (AUG-CC-PVTZ AUX)
    Blend: AUG-CC-PVTZ-JKFIT
	 Reference Energy          =    -341.2795360853279476 [Eh]
	 Singles Energy            =      -0.0000000000000000 [Eh]
	 Same-Spin Energy          =      -0.3365413515097492 [Eh]
	 Opposite-Spin Energy      =      -1.0191038050384198 [Eh]
	 Correlation Energy        =      -1.3556451565481691 [Eh]
	 Total Energy              =    -342.6351812418761256 [Eh]

	 ================> DF-SCS-MP2 Energies <==================
	-----------------------------------------------------------
	 SCS Same-Spin Scale       =       0.3333333333333333 [-]
	 SCS Opposite-Spin Scale   =       1.2000000000000000 [-]
	 SCS Same-Spin Energy      =      -0.1121804505032497 [Eh]
	 SCS Opposite-Spin Energy  =      -1.2229245660461037 [Eh]
	 SCS Correlation Energy    =      -1.3351050165493534 [Eh]
	 SCS Total Energy          =    -342.6146411018772824 [Eh]
	-----------------------------------------------------------

  Dipole Moment: [D]
     X:    -3.7845      Y:    -0.4735      Z:     0.3660     Total:     3.8316

*** Psi4 exiting successfully. Buy a developer a beer!
