                               Psi4 1.4a3.dev225

  ==> Input File <==

--------------------------------------------------------------------------
#psi4
#
memory 32 gb

molecule  {
-1 1
  O        1.1681810     1.2683390    -0.1935740
  O       -1.3027740     1.0522020     0.4123420
  O       -1.4902400    -1.1295240    -0.2243730
  C        0.6404390    -0.0405420    -0.4184120
  C        1.4092810    -1.0711850     0.3952000
  C       -0.8730002    -0.0693768    -0.0519911
  H        0.7260590    -0.2876370    -1.4879020
  H        1.3060210    -0.8470660     1.4617500
  H        1.0158520    -2.0724200     0.2054930
  H        2.4733650    -1.0522610     0.1409170
  H        0.3572580     1.7151740     0.1591030
units angstrom
no_reorient  #important for SAPT in psi4, default
symmetry c1  #important for SAPT in psi4, default
}

set PROPERTIES_ORIGIN ["COM"]
properties('MP2/aug-cc-pvtz', properties = ['dipole'])
--------------------------------------------------------------------------

    Molecular point group: c1
  Charge       = -1
  Multiplicity = 1
  Basis Set: AUG-CC-PVTZ
    Blend: AUG-CC-PVTZ
  Basis Set: (AUG-CC-PVTZ AUX)
    Blend: AUG-CC-PVTZ-JKFIT

    Orbital Energies [Eh]
    ---------------------

    Doubly Occupied:

       1A    -20.379673     2A    -20.316034     3A    -20.315101
       4A    -11.153382     5A    -11.114750     6A    -11.071797
       7A     -1.203910     8A     -1.167342     9A     -1.085094
      10A     -0.860221    11A     -0.697944    12A     -0.565284
      13A     -0.498389    14A     -0.477111    15A     -0.436068
      16A     -0.406850    17A     -0.401388    18A     -0.372596
      19A     -0.366325    20A     -0.351568    21A     -0.277006
      22A     -0.233983    23A     -0.216276    24A     -0.214289

  @DF-RHF Final Energy:  -341.27981025424850

   => Energetics <=

    Nuclear Repulsion Energy =            238.9332855356336154
    One-Electron Energy =                -952.0614287636707331
    Two-Electron Energy =                 371.8483329737885583
    Total Energy =                       -341.2798102542485026
  Basis Set: (AUG-CC-PVTZ AUX)
    Blend: AUG-CC-PVTZ-RI
    Molecular point group: c1

    Geometry (in Angstrom), charge = -1, multiplicity = 1:

       Center              X                  Y                   Z               Mass
    ------------   -----------------  -----------------  -----------------  -----------------
         O            1.234948179288     1.242358876628    -0.187856694217    15.994914619570
         O           -1.236006820712     1.026221876628     0.418059305783    15.994914619570
         O           -1.423472820712    -1.155504123372    -0.218655694217    15.994914619570
         C            0.707206179288    -0.066522123372    -0.412694694217    12.000000000000
         C            1.476048179288    -1.097165123372     0.400917305783    12.000000000000
         C           -0.806233020712    -0.095356923372    -0.046273794217    12.000000000000
         H            0.792826179288    -0.313617123372    -1.482184694217     1.007825032230
         H            1.372788179288    -0.873046123372     1.467467305783     1.007825032230
         H            1.082619179288    -2.098400123372     0.211210305783     1.007825032230
         H            2.540132179288    -1.078241123372     0.146634305783     1.007825032230
         H            0.424025179288     1.689193876628     0.164820305783     1.007825032230

  Basis Set: AUG-CC-PVTZ
    Blend: AUG-CC-PVTZ
  Basis Set: (AUG-CC-PVTZ AUX)
    Blend: AUG-CC-PVTZ-JKFIT
	 Reference Energy          =    -341.2798102542485026 [Eh]
	 Singles Energy            =      -0.0000000000000000 [Eh]
	 Same-Spin Energy          =      -0.3364814859845700 [Eh]
	 Opposite-Spin Energy      =      -1.0189211338042909 [Eh]
	 Correlation Energy        =      -1.3554026197888609 [Eh]
	 Total Energy              =    -342.6352128740373360 [Eh]

	 ================> DF-SCS-MP2 Energies <==================
	-----------------------------------------------------------
	 SCS Same-Spin Scale       =       0.3333333333333333 [-]
	 SCS Opposite-Spin Scale   =       1.2000000000000000 [-]
	 SCS Same-Spin Energy      =      -0.1121604953281900 [Eh]
	 SCS Opposite-Spin Energy  =      -1.2227053605651490 [Eh]
	 SCS Correlation Energy    =      -1.3348658558933391 [Eh]
	 SCS Total Energy          =    -342.6146761101418292 [Eh]
	-----------------------------------------------------------

  Dipole Moment: [D]
     X:     3.6657      Y:    -0.7891      Z:    -0.3403     Total:     3.7651

*** Psi4 exiting successfully. Buy a developer a beer!
