                               Psi4 1.3.2 release

  ==> Input File <==

--------------------------------------------------------------------------
#psi4
#
memory 32 gb

molecule  {
-1 1
  O       -1.1345620     1.3004230     0.1446500
  O        1.3567840     1.0286670    -0.3584360
  O        1.4410930    -1.1800310     0.1828540
  C       -0.6169230    -0.0077586     0.4034786
  C       -1.4459790    -1.0465850    -0.3602330
  C        0.8594390    -0.0718910     0.0480600
  H       -0.7136530    -0.2389580     1.4893480
  H       -1.3405200    -0.8612460    -1.4337260
  H       -1.0819010    -2.0514490    -0.1379210
  H       -2.5056370    -0.9845300    -0.0954150
  H       -0.2988281     1.7304848    -0.1632070
units angstrom
no_reorient  #important for SAPT in psi4, default
symmetry c1  #important for SAPT in psi4, default
}

set PROPERTIES_ORIGIN ["COM"]
properties('MP2/aug-cc-pvtz', properties = ['dipole'])
--------------------------------------------------------------------------

    Molecular point group: c1
  Charge       = -1
  Multiplicity = 1
  Basis Set: AUG-CC-PVTZ
    Blend: AUG-CC-PVTZ
  Basis Set: (AUG-CC-PVTZ AUX)
    Blend: AUG-CC-PVTZ-JKFIT

    Orbital Energies [Eh]
    ---------------------

    Doubly Occupied:

       1A    -20.382262     2A    -20.318366     3A    -20.310533
       4A    -11.152183     5A    -11.117119     6A    -11.072447
       7A     -1.206595     8A     -1.164421     9A     -1.083975
      10A     -0.859696    11A     -0.705243    12A     -0.567912
      13A     -0.499165    14A     -0.477318    15A     -0.438251
      16A     -0.403999    17A     -0.398231    18A     -0.373397
      19A     -0.367453    20A     -0.349189    21A     -0.275968
      22A     -0.235117    23A     -0.218519    24A     -0.213989

  @DF-RHF Final Energy:  -341.27892640344248

   => Energetics <=

    Nuclear Repulsion Energy =            239.3100973878838431
    One-Electron Energy =                -952.7953522954256869
    Two-Electron Energy =                 372.2063285040993605
    Total Energy =                       -341.2789264034424832
  Basis Set: (AUG-CC-PVTZ AUX)
    Blend: AUG-CC-PVTZ-RI
    Molecular point group: c1

    Geometry (in Angstrom), charge = -1, multiplicity = 1:

       Center              X                  Y                   Z               Mass
    ------------   -----------------  -----------------  -----------------  -----------------
         O           -1.203936668485     1.273017287816     0.141759496745    15.994914619570
         O            1.287409331515     1.001261287816    -0.361326503255    15.994914619570
         O            1.371718331515    -1.207436712184     0.179963496745    15.994914619570
         C           -0.686297668485    -0.035164312184     0.400588096745    12.000000000000
         C           -1.515353668485    -1.073990712184    -0.363123503255    12.000000000000
         C            0.790064331515    -0.099296712184     0.045169496745    12.000000000000
         H           -0.783027668485    -0.266363712184     1.486457496745     1.007825032230
         H           -1.409894668485    -0.888651712184    -1.436616503255     1.007825032230
         H           -1.151275668485    -2.078854712184    -0.140811503255     1.007825032230
         H           -2.575011668485    -1.011935712184    -0.098305503255     1.007825032230
         H           -0.368202768485     1.703079087816    -0.166097503255     1.007825032230

  Basis Set: AUG-CC-PVTZ
    Blend: AUG-CC-PVTZ
  Basis Set: (AUG-CC-PVTZ AUX)
    Blend: AUG-CC-PVTZ-JKFIT
	 Reference Energy          =    -341.2789264034424832 [Eh]
	 Singles Energy            =      -0.0000000000000000 [Eh]
	 Same-Spin Energy          =      -0.3366185953118274 [Eh]
	 Opposite-Spin Energy      =      -1.0192584822263042 [Eh]
	 Correlation Energy        =      -1.3558770775381317 [Eh]
	 Total Energy              =    -342.6348034809806222 [Eh]

	 ================> DF-SCS-MP2 Energies <==================
	-----------------------------------------------------------
	 SCS Same-Spin Scale       =       0.3333333333333333 [-]
	 SCS Opposite-Spin Scale   =       1.2000000000000000 [-]
	 SCS Same-Spin Energy      =      -0.1122061984372758 [Eh]
	 SCS Opposite-Spin Energy  =      -1.2231101786715650 [Eh]
	 SCS Correlation Energy    =      -1.3353163771088408 [Eh]
	 SCS Total Energy          =    -342.6142427805513080 [Eh]
	-----------------------------------------------------------

  Dipole Moment: [D]
     X:    -3.7710      Y:    -0.4722      Z:     0.3651     Total:     3.8180

*** Psi4 exiting successfully. Buy a developer a beer!
