                               Psi4 1.3.2 release

  ==> Input File <==

--------------------------------------------------------------------------
#psi4
#
memory 32 gb

molecule  {
-1 1
  O       -1.1458797     1.2968974     0.1485631
  O        1.3567840     1.0286670    -0.3584360
  O        1.4410930    -1.1800310     0.1828540
  C       -0.6396870    -0.0151150     0.4106200
  C       -1.4459790    -1.0465850    -0.3602330
  C        0.8597969    -0.0848207     0.0518146
  H       -0.7136530    -0.2389580     1.4893480
  H       -1.3405200    -0.8612460    -1.4337260
  H       -1.0819010    -2.0514490    -0.1379210
  H       -2.5056370    -0.9845300    -0.0954150
  H       -0.3074570     1.7452560    -0.1655130
units angstrom
no_reorient  #important for SAPT in psi4, default
symmetry c1  #important for SAPT in psi4, default
}

set PROPERTIES_ORIGIN ["COM"]
properties('MP2/aug-cc-pvtz', properties = ['dipole'])
--------------------------------------------------------------------------

    Molecular point group: c1
  Charge       = -1
  Multiplicity = 1
  Basis Set: AUG-CC-PVTZ
    Blend: AUG-CC-PVTZ
  Basis Set: (AUG-CC-PVTZ AUX)
    Blend: AUG-CC-PVTZ-JKFIT

    Orbital Energies [Eh]
    ---------------------

    Doubly Occupied:

       1A    -20.382274     2A    -20.315361     3A    -20.313608
       4A    -11.152800     5A    -11.115994     6A    -11.071722
       7A     -1.202260     8A     -1.164591     9A     -1.082329
      10A     -0.861704    11A     -0.701109    12A     -0.564741
      13A     -0.498768    14A     -0.477620    15A     -0.436511
      16A     -0.404552    17A     -0.399283    18A     -0.372836
      19A     -0.366250    20A     -0.349648    21A     -0.278005
      22A     -0.232579    23A     -0.216219    24A     -0.214234

  @DF-RHF Final Energy:  -341.27865986902390

   => Energetics <=

    Nuclear Repulsion Energy =            238.8813143603483695
    One-Electron Energy =                -951.9699518293099345
    Two-Electron Energy =                 371.8099775999376675
    Total Energy =                       -341.2786598690238975
  Basis Set: (AUG-CC-PVTZ AUX)
    Blend: AUG-CC-PVTZ-RI
    Molecular point group: c1

    Geometry (in Angstrom), charge = -1, multiplicity = 1:

       Center              X                  Y                   Z               Mass
    ------------   -----------------  -----------------  -----------------  -----------------
         O           -1.210102994234     1.272692380944     0.143526906404    15.994914619570
         O            1.292560705766     1.004461980944    -0.363472193596    15.994914619570
         O            1.376869705766    -1.204236019056     0.177817806404    15.994914619570
         C           -0.703910294234    -0.039320019056     0.405583806404    12.000000000000
         C           -1.510202294234    -1.070790019056    -0.365269193596    12.000000000000
         C            0.795573605766    -0.109025719056     0.046778406404    12.000000000000
         H           -0.777876294234    -0.263163019056     1.484311806404     1.007825032230
         H           -1.404743294234    -0.885451019056    -1.438762193596     1.007825032230
         H           -1.146124294234    -2.075654019056    -0.142957193596     1.007825032230
         H           -2.569860294234    -1.008735019056    -0.100451193596     1.007825032230
         H           -0.371680294234     1.721050980944    -0.170549193596     1.007825032230

  Basis Set: AUG-CC-PVTZ
    Blend: AUG-CC-PVTZ
  Basis Set: (AUG-CC-PVTZ AUX)
    Blend: AUG-CC-PVTZ-JKFIT
	 Reference Energy          =    -341.2786598690238975 [Eh]
	 Singles Energy            =      -0.0000000000000000 [Eh]
	 Same-Spin Energy          =      -0.3367159563160176 [Eh]
	 Opposite-Spin Energy      =      -1.0194604173748780 [Eh]
	 Correlation Energy        =      -1.3561763736908956 [Eh]
	 Total Energy              =    -342.6348362427148118 [Eh]

	 ================> DF-SCS-MP2 Energies <==================
	-----------------------------------------------------------
	 SCS Same-Spin Scale       =       0.3333333333333333 [-]
	 SCS Opposite-Spin Scale   =       1.2000000000000000 [-]
	 SCS Same-Spin Energy      =      -0.1122386521053392 [Eh]
	 SCS Opposite-Spin Energy  =      -1.2233525008498536 [Eh]
	 SCS Correlation Energy    =      -1.3355911529551927 [Eh]
	 SCS Total Energy          =    -342.6142510219791006 [Eh]
	-----------------------------------------------------------

  Dipole Moment: [D]
     X:    -3.7570      Y:    -0.6101      Z:     0.3938     Total:     3.8265

*** Psi4 exiting successfully. Buy a developer a beer!
