                               Psi4 1.3.2 release

  ==> Input File <==

--------------------------------------------------------------------------
#psi4
#
memory 32 gb

molecule  {
-1 1
  O       -1.1394419     1.3032671     0.1689690
  O        1.3567840     1.0286670    -0.3584360
  O        1.4410930    -1.1800310     0.1828540
  C       -0.6396870    -0.0151150     0.4106200
  C       -1.4459790    -1.0465850    -0.3602330
  C        0.8594390    -0.0718910     0.0480600
  H       -0.7212186    -0.2214786     1.4922842
  H       -1.3405200    -0.8612460    -1.4337260
  H       -1.0819010    -2.0514490    -0.1379210
  H       -2.5056370    -0.9845300    -0.0954150
  H       -0.3074570     1.7452560    -0.1655130
units angstrom
no_reorient  #important for SAPT in psi4, default
symmetry c1  #important for SAPT in psi4, default
}

set PROPERTIES_ORIGIN ["COM"]
properties('MP2/aug-cc-pvtz', properties = ['dipole'])
--------------------------------------------------------------------------

    Molecular point group: c1
  Charge       = -1
  Multiplicity = 1
  Basis Set: AUG-CC-PVTZ
    Blend: AUG-CC-PVTZ
  Basis Set: (AUG-CC-PVTZ AUX)
    Blend: AUG-CC-PVTZ-JKFIT

    Orbital Energies [Eh]
    ---------------------

    Doubly Occupied:

       1A    -20.381950     2A    -20.318453     3A    -20.310464
       4A    -11.152855     5A    -11.115939     6A    -11.072216
       7A     -1.203233     8A     -1.162770     9A     -1.083431
      10A     -0.861476    11A     -0.701067    12A     -0.566230
      13A     -0.498211    14A     -0.477128    15A     -0.436926
      16A     -0.405063    17A     -0.400541    18A     -0.371737
      19A     -0.365418    20A     -0.349718    21A     -0.278116
      22A     -0.234041    23A     -0.215543    24A     -0.213799

  @DF-RHF Final Energy:  -341.27907927724522

   => Energetics <=

    Nuclear Repulsion Energy =            238.8527496749613874
    One-Electron Energy =                -951.9110064417996000
    Two-Electron Energy =                 371.7791774895929962
    Total Energy =                       -341.2790792772452164
  Basis Set: (AUG-CC-PVTZ AUX)
    Blend: AUG-CC-PVTZ-RI
    Molecular point group: c1

    Geometry (in Angstrom), charge = -1, multiplicity = 1:

       Center              X                  Y                   Z               Mass
    ------------   -----------------  -----------------  -----------------  -----------------
         O           -1.204687981283     1.275976892808     0.160739341469    15.994914619570
         O            1.291537918717     1.001376792808    -0.366665658531    15.994914619570
         O            1.375846918717    -1.207321207192     0.174624341469    15.994914619570
         C           -0.704933081283    -0.042405207192     0.402390341469    12.000000000000
         C           -1.511225081283    -1.073875207192    -0.368462658531    12.000000000000
         C            0.794192918717    -0.099181207192     0.039830341469    12.000000000000
         H           -0.786464681283    -0.248768807192     1.484054541469     1.007825032230
         H           -1.405766081283    -0.888536207192    -1.441955658531     1.007825032230
         H           -1.147147081283    -2.078739207192    -0.146150658531     1.007825032230
         H           -2.570883081283    -1.011820207192    -0.103644658531     1.007825032230
         H           -0.372703081283     1.717965792808    -0.173742658531     1.007825032230

  Basis Set: AUG-CC-PVTZ
    Blend: AUG-CC-PVTZ
  Basis Set: (AUG-CC-PVTZ AUX)
    Blend: AUG-CC-PVTZ-JKFIT
	 Reference Energy          =    -341.2790792772452164 [Eh]
	 Singles Energy            =      -0.0000000000000000 [Eh]
	 Same-Spin Energy          =      -0.3366484352627512 [Eh]
	 Opposite-Spin Energy      =      -1.0193736205603321 [Eh]
	 Correlation Energy        =      -1.3560220558230833 [Eh]
	 Total Energy              =    -342.6351013330682918 [Eh]

	 ================> DF-SCS-MP2 Energies <==================
	-----------------------------------------------------------
	 SCS Same-Spin Scale       =       0.3333333333333333 [-]
	 SCS Opposite-Spin Scale   =       1.2000000000000000 [-]
	 SCS Same-Spin Energy      =      -0.1122161450875837 [Eh]
	 SCS Opposite-Spin Energy  =      -1.2232483446723985 [Eh]
	 SCS Correlation Energy    =      -1.3354644897599823 [Eh]
	 SCS Total Energy          =    -342.6145437670052161 [Eh]
	-----------------------------------------------------------

  Dipole Moment: [D]
     X:    -3.7798      Y:    -0.4905      Z:     0.3340     Total:     3.8261

*** Psi4 exiting successfully. Buy a developer a beer!
