                               Psi4 1.3.2 release

  ==> Input File <==

--------------------------------------------------------------------------
#psi4
#
memory 32 gb

molecule  {
-1 1
  O       -1.0996392     1.3187975     0.1752418
  O        1.3567840     1.0286670    -0.3584360
  O        1.4410930    -1.1800310     0.1828540
  C       -0.6396870    -0.0151150     0.4106200
  C       -1.4155421    -1.0846436    -0.3393192
  C        0.8594390    -0.0718910     0.0480600
  H       -0.7136530    -0.2389580     1.4893480
  H       -1.3405200    -0.8612460    -1.4337260
  H       -1.0819010    -2.0514490    -0.1379210
  H       -2.5056370    -0.9845300    -0.0954150
  H       -0.3074570     1.7452560    -0.1655130
units angstrom
no_reorient  #important for SAPT in psi4, default
symmetry c1  #important for SAPT in psi4, default
}

set PROPERTIES_ORIGIN ["COM"]
properties('MP2/aug-cc-pvtz', properties = ['dipole'])
--------------------------------------------------------------------------

    Molecular point group: c1
  Charge       = -1
  Multiplicity = 1
  Basis Set: AUG-CC-PVTZ
    Blend: AUG-CC-PVTZ
  Basis Set: (AUG-CC-PVTZ AUX)
    Blend: AUG-CC-PVTZ-JKFIT

    Orbital Energies [Eh]
    ---------------------

    Doubly Occupied:

       1A    -20.381195     2A    -20.315768     3A    -20.309017
       4A    -11.150850     5A    -11.117066     6A    -11.074592
       7A     -1.207471     8A     -1.164766     9A     -1.081692
      10A     -0.865531    11A     -0.702234    12A     -0.570500
      13A     -0.501215    14A     -0.478040    15A     -0.436398
      16A     -0.415214    17A     -0.398603    18A     -0.374163
      19A     -0.361626    20A     -0.348811    21A     -0.280049
      22A     -0.232037    23A     -0.213784    24A     -0.212105

  @DF-RHF Final Energy:  -341.27695550783744

   => Energetics <=

    Nuclear Repulsion Energy =            239.2681864091344437
    One-Electron Energy =                -952.7048330228149098
    Two-Electron Energy =                 372.1596911058430805
    Total Energy =                       -341.2769555078374424
  Basis Set: (AUG-CC-PVTZ AUX)
    Blend: AUG-CC-PVTZ-RI
    Molecular point group: c1

    Geometry (in Angstrom), charge = -1, multiplicity = 1:

       Center              X                  Y                   Z               Mass
    ------------   -----------------  -----------------  -----------------  -----------------
         O           -1.176225030951     1.294044948803     0.163099265873    15.994914619570
         O            1.280198169049     1.003914448803    -0.370578534127    15.994914619570
         O            1.364507169049    -1.204783551197     0.170711465873    15.994914619570
         C           -0.716272830951    -0.039867551197     0.398477465873    12.000000000000
         C           -1.492127930951    -1.109396151197    -0.351461734127    12.000000000000
         C            0.782853169049    -0.096643551197     0.035917465873    12.000000000000
         H           -0.790238830951    -0.263710551197     1.477205465873     1.007825032230
         H           -1.417105830951    -0.885998551197    -1.445868534127     1.007825032230
         H           -1.158486830951    -2.076201551197    -0.150063534127     1.007825032230
         H           -2.582222830951    -1.009282551197    -0.107557534127     1.007825032230
         H           -0.384042830951     1.720503448803    -0.177655534127     1.007825032230

  Basis Set: AUG-CC-PVTZ
    Blend: AUG-CC-PVTZ
  Basis Set: (AUG-CC-PVTZ AUX)
    Blend: AUG-CC-PVTZ-JKFIT
	 Reference Energy          =    -341.2769555078374424 [Eh]
	 Singles Energy            =      -0.0000000000000000 [Eh]
	 Same-Spin Energy          =      -0.3360197818842100 [Eh]
	 Opposite-Spin Energy      =      -1.0180735420567619 [Eh]
	 Correlation Energy        =      -1.3540933239409720 [Eh]
	 Total Energy              =    -342.6310488317784007 [Eh]

	 ================> DF-SCS-MP2 Energies <==================
	-----------------------------------------------------------
	 SCS Same-Spin Scale       =       0.3333333333333333 [-]
	 SCS Opposite-Spin Scale   =       1.2000000000000000 [-]
	 SCS Same-Spin Energy      =      -0.1120065939614033 [Eh]
	 SCS Opposite-Spin Energy  =      -1.2216882504681144 [Eh]
	 SCS Correlation Energy    =      -1.3336948444295178 [Eh]
	 SCS Total Energy          =    -342.6106503522669868 [Eh]
	-----------------------------------------------------------

  Dipole Moment: [D]
     X:    -3.8444      Y:    -0.5304      Z:     0.3522     Total:     3.8967

*** Psi4 exiting successfully. Buy a developer a beer!
