                               Psi4 1.3.2 release

  ==> Input File <==

--------------------------------------------------------------------------
#psi4
#
memory 32 gb

molecule  {
-1 1
  O       -1.1190241     1.2894904     0.0722085
  O        1.3567840     1.0286670    -0.3584360
  O        1.4410930    -1.1800310     0.1828540
  C       -0.6396870    -0.0151150     0.4106200
  C       -1.4459790    -1.0465850    -0.3602330
  C        0.8594390    -0.0718910     0.0480600
  H       -0.6908303    -0.2909660     1.4785719
  H       -1.3405200    -0.8612460    -1.4337260
  H       -1.0819010    -2.0514490    -0.1379210
  H       -2.5056370    -0.9845300    -0.0954150
  H       -0.3074570     1.7452560    -0.1655130
units angstrom
no_reorient  #important for SAPT in psi4, default
symmetry c1  #important for SAPT in psi4, default
}

set PROPERTIES_ORIGIN ["COM"]
properties('MP2/aug-cc-pvtz', properties = ['dipole'])
--------------------------------------------------------------------------

    Molecular point group: c1
  Charge       = -1
  Multiplicity = 1
  Basis Set: AUG-CC-PVTZ
    Blend: AUG-CC-PVTZ
  Basis Set: (AUG-CC-PVTZ AUX)
    Blend: AUG-CC-PVTZ-JKFIT

    Orbital Energies [Eh]
    ---------------------

    Doubly Occupied:

       1A    -20.381262     2A    -20.315614     3A    -20.308798
       4A    -11.150650     5A    -11.117105     6A    -11.070846
       7A     -1.208097     8A     -1.164902     9A     -1.081510
      10A     -0.863518    11A     -0.702214    12A     -0.567531
      13A     -0.506963    14A     -0.477690    15A     -0.436134
      16A     -0.403233    17A     -0.398429    18A     -0.374007
      19A     -0.366854    20A     -0.347338    21A     -0.281686
      22A     -0.231897    23A     -0.213701    24A     -0.211558

  @DF-RHF Final Energy:  -341.27855757977238

   => Energetics <=

    Nuclear Repulsion Energy =            239.5753178264336043
    One-Electron Energy =                -953.3446759253556593
    Two-Electron Energy =                 372.4908005191497296
    Total Energy =                       -341.2785575797723823
  Basis Set: (AUG-CC-PVTZ AUX)
    Blend: AUG-CC-PVTZ-RI
    Molecular point group: c1

    Geometry (in Angstrom), charge = -1, multiplicity = 1:

       Center              X                  Y                   Z               Mass
    ------------   -----------------  -----------------  -----------------  -----------------
         O           -1.188282667609     1.265462107670     0.081519030998    15.994914619570
         O            1.287525432391     1.004638707670    -0.349125469002    15.994914619570
         O            1.371834432391    -1.204059292330     0.192164530998    15.994914619570
         C           -0.708945567609    -0.039143292330     0.419930530998    12.000000000000
         C           -1.515237567609    -1.070613292330    -0.350922469002    12.000000000000
         C            0.790180432391    -0.095919292330     0.057370530998    12.000000000000
         H           -0.760088867609    -0.314994292330     1.487882430998     1.007825032230
         H           -1.409778567609    -0.885274292330    -1.424415469002     1.007825032230
         H           -1.151159567609    -2.075477292330    -0.128610469002     1.007825032230
         H           -2.574895567609    -1.008558292330    -0.086104469002     1.007825032230
         H           -0.376715567609     1.721227707670    -0.156202469002     1.007825032230

  Basis Set: AUG-CC-PVTZ
    Blend: AUG-CC-PVTZ
  Basis Set: (AUG-CC-PVTZ AUX)
    Blend: AUG-CC-PVTZ-JKFIT
	 Reference Energy          =    -341.2785575797723823 [Eh]
	 Singles Energy            =      -0.0000000000000000 [Eh]
	 Same-Spin Energy          =      -0.3361570623373498 [Eh]
	 Opposite-Spin Energy      =      -1.0181205379688434 [Eh]
	 Correlation Energy        =      -1.3542776003061932 [Eh]
	 Total Energy              =    -342.6328351800785867 [Eh]

	 ================> DF-SCS-MP2 Energies <==================
	-----------------------------------------------------------
	 SCS Same-Spin Scale       =       0.3333333333333333 [-]
	 SCS Opposite-Spin Scale   =       1.2000000000000000 [-]
	 SCS Same-Spin Energy      =      -0.1120523541124499 [Eh]
	 SCS Opposite-Spin Energy  =      -1.2217446455626120 [Eh]
	 SCS Correlation Energy    =      -1.3337969996750618 [Eh]
	 SCS Total Energy          =    -342.6123545794474694 [Eh]
	-----------------------------------------------------------

  Dipole Moment: [D]
     X:    -3.8500      Y:    -0.4199      Z:     0.4621     Total:     3.9003

*** Psi4 exiting successfully. Buy a developer a beer!
