                               Psi4 1.3.2 release

  ==> Input File <==

--------------------------------------------------------------------------
#psi4
#
memory 32 gb

molecule  {
-1 1
  O       -1.1345620     1.3004230     0.1446500
  O        1.3567840     1.0286670    -0.3584360
  O        1.4410930    -1.1800310     0.1828540
  C       -0.6637424    -0.0497718     0.4780515
  C       -1.4459790    -1.0465850    -0.3602330
  C        0.8594390    -0.0718910     0.0480600
  H       -0.7136530    -0.2389580     1.4893480
  H       -1.3748252    -0.9061285    -1.4433159
  H       -1.0819010    -2.0514490    -0.1379210
  H       -2.5056370    -0.9845300    -0.0954150
  H       -0.3074570     1.7452560    -0.1655130
units angstrom
no_reorient  #important for SAPT in psi4, default
symmetry c1  #important for SAPT in psi4, default
}

set PROPERTIES_ORIGIN ["COM"]
properties('MP2/aug-cc-pvtz', properties = ['dipole'])
--------------------------------------------------------------------------

    Molecular point group: c1
  Charge       = -1
  Multiplicity = 1
  Basis Set: AUG-CC-PVTZ
    Blend: AUG-CC-PVTZ
  Basis Set: (AUG-CC-PVTZ AUX)
    Blend: AUG-CC-PVTZ-JKFIT

    Orbital Energies [Eh]
    ---------------------

    Doubly Occupied:

       1A    -20.376007     2A    -20.318291     3A    -20.309889
       4A    -11.154095     5A    -11.114562     6A    -11.072917
       7A     -1.195402     8A     -1.154037     9A     -1.082352
      10A     -0.863117    11A     -0.703707    12A     -0.561582
      13A     -0.502822    14A     -0.474562    15A     -0.431701
      16A     -0.406223    17A     -0.402940    18A     -0.368567
      19A     -0.360169    20A     -0.348323    21A     -0.285858
      22A     -0.232633    23A     -0.213214    24A     -0.209601

  @DF-RHF Final Energy:  -341.27139924978735

   => Energetics <=

    Nuclear Repulsion Energy =            238.0202841974167143
    One-Electron Energy =                -950.2982259253190023
    Two-Electron Energy =                 371.0065424781149659
    Total Energy =                       -341.2713992497873505
  Basis Set: (AUG-CC-PVTZ AUX)
    Blend: AUG-CC-PVTZ-RI
    Molecular point group: c1

    Geometry (in Angstrom), charge = -1, multiplicity = 1:

       Center              X                  Y                   Z               Mass
    ------------   -----------------  -----------------  -----------------  -----------------
         O           -1.197139582857     1.279021355351     0.131842091178    15.994914619570
         O            1.294206417143     1.007265355351    -0.371243908822    15.994914619570
         O            1.378515417143    -1.201432644649     0.170046091178    15.994914619570
         C           -0.726319982857    -0.071173444649     0.465243591178    12.000000000000
         C           -1.508556582857    -1.067986644649    -0.373040908822    12.000000000000
         C            0.796861417143    -0.093292644649     0.035252091178    12.000000000000
         H           -0.776230582857    -0.260359644649     1.476540091178     1.007825032230
         H           -1.437402782857    -0.927530144649    -1.456123808822     1.007825032230
         H           -1.144478582857    -2.072850644649    -0.150728908822     1.007825032230
         H           -2.568214582857    -1.005931644649    -0.108222908822     1.007825032230
         H           -0.370034582857     1.723854355351    -0.178320908822     1.007825032230

  Basis Set: AUG-CC-PVTZ
    Blend: AUG-CC-PVTZ
  Basis Set: (AUG-CC-PVTZ AUX)
    Blend: AUG-CC-PVTZ-JKFIT
	 Reference Energy          =    -341.2713992497873505 [Eh]
	 Singles Energy            =      -0.0000000000000000 [Eh]
	 Same-Spin Energy          =      -0.3364587789061992 [Eh]
	 Opposite-Spin Energy      =      -1.0196199402343828 [Eh]
	 Correlation Energy        =      -1.3560787191405821 [Eh]
	 Total Energy              =    -342.6274779689279057 [Eh]

	 ================> DF-SCS-MP2 Energies <==================
	-----------------------------------------------------------
	 SCS Same-Spin Scale       =       0.3333333333333333 [-]
	 SCS Opposite-Spin Scale   =       1.2000000000000000 [-]
	 SCS Same-Spin Energy      =      -0.1121529263020664 [Eh]
	 SCS Opposite-Spin Energy  =      -1.2235439282812595 [Eh]
	 SCS Correlation Energy    =      -1.3356968545833259 [Eh]
	 SCS Total Energy          =    -342.6070961043706689 [Eh]
	-----------------------------------------------------------

  Dipole Moment: [D]
     X:    -3.7472      Y:    -0.6322      Z:     0.4936     Total:     3.8321

*** Psi4 exiting successfully. Buy a developer a beer!
