                               Psi4 1.3.2 release

  ==> Input File <==

--------------------------------------------------------------------------
#psi4
#
memory 32 gb

molecule  {
-1 1
  O       -1.1345620     1.3004230     0.1446500
  O        1.3567840     1.0286670    -0.3584360
  O        1.4410930    -1.1800310     0.1828540
  C       -0.6396870    -0.0151150     0.4106200
  C       -1.4459790    -1.0465850    -0.3602330
  C        0.7813807    -0.2446235     0.1118595
  H       -0.7136530    -0.2389580     1.4893480
  H       -1.3405200    -0.8612460    -1.4337260
  H       -1.0819010    -2.0514490    -0.1379210
  H       -2.5056370    -0.9845300    -0.0954150
  H       -0.3074570     1.7452560    -0.1655130
units angstrom
no_reorient  #important for SAPT in psi4, default
symmetry c1  #important for SAPT in psi4, default
}

set PROPERTIES_ORIGIN ["COM"]
properties('MP2/aug-cc-pvtz', properties = ['dipole'])
--------------------------------------------------------------------------

    Molecular point group: c1
  Charge       = -1
  Multiplicity = 1
  Basis Set: AUG-CC-PVTZ
    Blend: AUG-CC-PVTZ
  Basis Set: (AUG-CC-PVTZ AUX)
    Blend: AUG-CC-PVTZ-JKFIT

    Orbital Energies [Eh]
    ---------------------

    Doubly Occupied:

       1A    -20.382156     2A    -20.348187     3A    -20.274919
       4A    -11.152870     5A    -11.124252     6A    -11.079693
       7A     -1.246319     8A     -1.184758     9A     -0.996632
      10A     -0.881658    11A     -0.724094    12A     -0.573495
      13A     -0.507239    14A     -0.493953    15A     -0.442216
      16A     -0.411022    17A     -0.401085    18A     -0.382090
      19A     -0.378529    20A     -0.363826    21A     -0.280557
      22A     -0.205424    23A     -0.194255    24A     -0.186428

  @DF-RHF Final Energy:  -341.22638334351251

   => Energetics <=

    Nuclear Repulsion Energy =            239.2643157121109141
    One-Electron Energy =                -952.5500862525252614
    Two-Electron Energy =                 372.0593871969018096
    Total Energy =                       -341.2263833435125093
  Basis Set: (AUG-CC-PVTZ AUX)
    Blend: AUG-CC-PVTZ-RI
    Molecular point group: c1

    Geometry (in Angstrom), charge = -1, multiplicity = 1:

       Center              X                  Y                   Z               Mass
    ------------   -----------------  -----------------  -----------------  -----------------
         O           -1.190248608925     1.297125204473     0.132223102014    15.994914619570
         O            1.301097391075     1.025369204473    -0.370862897986    15.994914619570
         O            1.385406391075    -1.183328795527     0.170427102014    15.994914619570
         C           -0.695373608925    -0.018412795527     0.398193102014    12.000000000000
         C           -1.501665608925    -1.049882795527    -0.372659897986    12.000000000000
         C            0.725694091075    -0.247921295527     0.099432602014    12.000000000000
         H           -0.769339608925    -0.242255795527     1.476921102014     1.007825032230
         H           -1.396206608925    -0.864543795527    -1.446152897986     1.007825032230
         H           -1.137587608925    -2.054746795527    -0.150347897986     1.007825032230
         H           -2.561323608925    -0.987827795527    -0.107841897986     1.007825032230
         H           -0.363143608925     1.741958204473    -0.177939897986     1.007825032230

  Basis Set: AUG-CC-PVTZ
    Blend: AUG-CC-PVTZ
  Basis Set: (AUG-CC-PVTZ AUX)
    Blend: AUG-CC-PVTZ-JKFIT
	 Reference Energy          =    -341.2263833435125093 [Eh]
	 Singles Energy            =      -0.0000000000000000 [Eh]
	 Same-Spin Energy          =      -0.3386241110737634 [Eh]
	 Opposite-Spin Energy      =      -1.0237635466926125 [Eh]
	 Correlation Energy        =      -1.3623876577663760 [Eh]
	 Total Energy              =    -342.5887710012788716 [Eh]

	 ================> DF-SCS-MP2 Energies <==================
	-----------------------------------------------------------
	 SCS Same-Spin Scale       =       0.3333333333333333 [-]
	 SCS Opposite-Spin Scale   =       1.2000000000000000 [-]
	 SCS Same-Spin Energy      =      -0.1128747036912545 [Eh]
	 SCS Opposite-Spin Energy  =      -1.2285162560311349 [Eh]
	 SCS Correlation Energy    =      -1.3413909597223894 [Eh]
	 SCS Total Energy          =    -342.5677743032348985 [Eh]
	-----------------------------------------------------------

  Dipole Moment: [D]
     X:    -4.1999      Y:    -2.2997      Z:     0.8890     Total:     4.8701

*** Psi4 exiting successfully. Buy a developer a beer!
