                               Psi4 1.3.2 release

  ==> Input File <==

--------------------------------------------------------------------------
#psi4
#
memory 32 gb

molecule  {
-1 1
  O       -1.1345620     1.3004230     0.1446500
  O        1.3567840     1.0286670    -0.3584360
  O        1.4410930    -1.1800310     0.1828540
  C       -0.6396870    -0.0151150     0.4106200
  C       -1.4459790    -1.0465850    -0.3602330
  C        0.9056477    -0.1599256     0.0587685
  H       -0.7136530    -0.2389580     1.4893480
  H       -1.3405200    -0.8612460    -1.4337260
  H       -1.0819010    -2.0514490    -0.1379210
  H       -2.5056370    -0.9845300    -0.0954150
  H       -0.3074570     1.7452560    -0.1655130
units angstrom
no_reorient  #important for SAPT in psi4, default
symmetry c1  #important for SAPT in psi4, default
}

set PROPERTIES_ORIGIN ["COM"]
properties('MP2/aug-cc-pvtz', properties = ['dipole'])
--------------------------------------------------------------------------

    Molecular point group: c1
  Charge       = -1
  Multiplicity = 1
  Basis Set: AUG-CC-PVTZ
    Blend: AUG-CC-PVTZ
  Basis Set: (AUG-CC-PVTZ AUX)
    Blend: AUG-CC-PVTZ-JKFIT

    Orbital Energies [Eh]
    ---------------------

    Doubly Occupied:

       1A    -20.376044     2A    -20.332954     3A    -20.298267
       4A    -11.149632     5A    -11.110785     6A    -11.069387
       7A     -1.232995     8A     -1.177261     9A     -1.066572
      10A     -0.857719    11A     -0.689551    12A     -0.557783
      13A     -0.504345    14A     -0.478789    15A     -0.434761
      16A     -0.408991    17A     -0.399750    18A     -0.381191
      19A     -0.374778    20A     -0.361456    21A     -0.272961
      22A     -0.227707    23A     -0.215142    24A     -0.201218

  @DF-RHF Final Energy:  -341.26688982376976

   => Energetics <=

    Nuclear Repulsion Energy =            238.9649760190507379
    One-Electron Energy =                -952.1036601135689352
    Two-Electron Energy =                 371.8717942707484667
    Total Energy =                       -341.2668898237697590
  Basis Set: (AUG-CC-PVTZ AUX)
    Blend: AUG-CC-PVTZ-RI
    Molecular point group: c1

    Geometry (in Angstrom), charge = -1, multiplicity = 1:

       Center              X                  Y                   Z               Mass
    ------------   -----------------  -----------------  -----------------  -----------------
         O           -1.206999217682     1.285708324807     0.139379519804    15.994914619570
         O            1.284346782318     1.013952324807    -0.363706480196    15.994914619570
         O            1.368655782318    -1.194745675193     0.177583519804    15.994914619570
         C           -0.712124217682    -0.029829675193     0.405349519804    12.000000000000
         C           -1.518416217682    -1.061299675193    -0.365503480196    12.000000000000
         C            0.833210482318    -0.174640275193     0.053498019804    12.000000000000
         H           -0.786090217682    -0.253672675193     1.484077519804     1.007825032230
         H           -1.412957217682    -0.875960675193    -1.438996480196     1.007825032230
         H           -1.154338217682    -2.066163675193    -0.143191480196     1.007825032230
         H           -2.578074217682    -0.999244675193    -0.100685480196     1.007825032230
         H           -0.379894217682     1.730541324807    -0.170783480196     1.007825032230

  Basis Set: AUG-CC-PVTZ
    Blend: AUG-CC-PVTZ
  Basis Set: (AUG-CC-PVTZ AUX)
    Blend: AUG-CC-PVTZ-JKFIT
	 Reference Energy          =    -341.2668898237697590 [Eh]
	 Singles Energy            =      -0.0000000000000000 [Eh]
	 Same-Spin Energy          =      -0.3357922916805201 [Eh]
	 Opposite-Spin Energy      =      -1.0174892508715629 [Eh]
	 Correlation Energy        =      -1.3532815425520830 [Eh]
	 Total Energy              =    -342.6201713663218698 [Eh]

	 ================> DF-SCS-MP2 Energies <==================
	-----------------------------------------------------------
	 SCS Same-Spin Scale       =       0.3333333333333333 [-]
	 SCS Opposite-Spin Scale   =       1.2000000000000000 [-]
	 SCS Same-Spin Energy      =      -0.1119307638935067 [Eh]
	 SCS Opposite-Spin Energy  =      -1.2209871010458755 [Eh]
	 SCS Correlation Energy    =      -1.3329178649393822 [Eh]
	 SCS Total Energy          =    -342.5998076887091202 [Eh]
	-----------------------------------------------------------

  Dipole Moment: [D]
     X:    -3.4498      Y:    -1.4038      Z:     0.5382     Total:     3.7632

*** Psi4 exiting successfully. Buy a developer a beer!
