                               Psi4 1.3.2 release

  ==> Input File <==

--------------------------------------------------------------------------
#psi4
#
memory 32 gb

molecule  {
-1 1
  O       -1.1243516     1.2935336     0.0962624
  O        1.3567840     1.0286670    -0.3584360
  O        1.4410930    -1.1800310     0.1828540
  C       -0.6396870    -0.0151150     0.4106200
  C       -1.4459790    -1.0465850    -0.3602330
  C        0.8594390    -0.0718910     0.0480600
  H       -0.6984565    -0.2737070     1.4824908
  H       -1.3405200    -0.8612460    -1.4337260
  H       -1.0819010    -2.0514490    -0.1379210
  H       -2.5056370    -0.9845300    -0.0954150
  H       -0.3074570     1.7452560    -0.1655130
units angstrom
no_reorient  #important for SAPT in psi4, default
symmetry c1  #important for SAPT in psi4, default
}

set PROPERTIES_ORIGIN ["COM"]
properties('MP2/aug-cc-pvtz', properties = ['dipole'])
--------------------------------------------------------------------------

    Molecular point group: c1
  Charge       = -1
  Multiplicity = 1
  Basis Set: AUG-CC-PVTZ
    Blend: AUG-CC-PVTZ
  Basis Set: (AUG-CC-PVTZ AUX)
    Blend: AUG-CC-PVTZ-JKFIT

    Orbital Energies [Eh]
    ---------------------

    Doubly Occupied:

       1A    -20.381367     2A    -20.316306     3A    -20.309218
       4A    -11.151215     5A    -11.116830     6A    -11.071202
       7A     -1.206779     8A     -1.164507     9A     -1.081986
      10A     -0.863017    11A     -0.701967    12A     -0.567176
      13A     -0.504648    14A     -0.477730    15A     -0.436316
      16A     -0.403762    17A     -0.398981    18A     -0.373467
      19A     -0.366685    20A     -0.348003    21A     -0.280884
      22A     -0.232435    23A     -0.214147    24A     -0.212181

  @DF-RHF Final Energy:  -341.27947457106603

   => Energetics <=

    Nuclear Repulsion Energy =            239.3915780667195463
    One-Electron Energy =                -952.9804882373875898
    Two-Electron Energy =                 372.3094355996019544
    Total Energy =                       -341.2794745710660322
  Basis Set: (AUG-CC-PVTZ AUX)
    Blend: AUG-CC-PVTZ-RI
    Molecular point group: c1

    Geometry (in Angstrom), charge = -1, multiplicity = 1:

       Center              X                  Y                   Z               Mass
    ------------   -----------------  -----------------  -----------------  -----------------
         O           -1.192566640924     1.268583479716     0.101206802604    15.994914619570
         O            1.288568959076     1.003716879716    -0.353491597396    15.994914619570
         O            1.372877959076    -1.204981120284     0.187798402604    15.994914619570
         C           -0.707902040924    -0.040065120284     0.415564402604    12.000000000000
         C           -1.514194040924    -1.071535120284    -0.355288597396    12.000000000000
         C            0.791223959076    -0.096841120284     0.053004402604    12.000000000000
         H           -0.766671540924    -0.298657120284     1.487435202604     1.007825032230
         H           -1.408735040924    -0.886196120284    -1.428781597396     1.007825032230
         H           -1.150116040924    -2.076399120284    -0.132976597396     1.007825032230
         H           -2.573852040924    -1.009480120284    -0.090470597396     1.007825032230
         H           -0.375672040924     1.720305879716    -0.160568597396     1.007825032230

  Basis Set: AUG-CC-PVTZ
    Blend: AUG-CC-PVTZ
  Basis Set: (AUG-CC-PVTZ AUX)
    Blend: AUG-CC-PVTZ-JKFIT
	 Reference Energy          =    -341.2794745710660322 [Eh]
	 Singles Energy            =      -0.0000000000000000 [Eh]
	 Same-Spin Energy          =      -0.3362387374804885 [Eh]
	 Opposite-Spin Energy      =      -1.0183564527445199 [Eh]
	 Correlation Energy        =      -1.3545951902250084 [Eh]
	 Total Energy              =    -342.6340697612910162 [Eh]

	 ================> DF-SCS-MP2 Energies <==================
	-----------------------------------------------------------
	 SCS Same-Spin Scale       =       0.3333333333333333 [-]
	 SCS Opposite-Spin Scale   =       1.2000000000000000 [-]
	 SCS Same-Spin Energy      =      -0.1120795791601628 [Eh]
	 SCS Opposite-Spin Energy  =      -1.2220277432934239 [Eh]
	 SCS Correlation Energy    =      -1.3341073224535867 [Eh]
	 SCS Total Energy          =    -342.6135818935196085 [Eh]
	-----------------------------------------------------------

  Dipole Moment: [D]
     X:    -3.8327      Y:    -0.4390      Z:     0.4307     Total:     3.8817

*** Psi4 exiting successfully. Buy a developer a beer!
