                               Psi4 1.3.2 release

  ==> Input File <==

--------------------------------------------------------------------------
#psi4
#
memory 32 gb

molecule  {
-1 1
  O       -1.1345620     1.3004230     0.1446500
  O        1.3567840     1.0286670    -0.3584360
  O        1.4597793    -1.1708594     0.1758291
  C       -0.6400369     0.0110138     0.4040810
  C       -1.4459790    -1.0465850    -0.3602330
  C        0.8594390    -0.0718910     0.0480600
  H       -0.7136530    -0.2389580     1.4893480
  H       -1.3405200    -0.8612460    -1.4337260
  H       -1.0819010    -2.0514490    -0.1379210
  H       -2.5056370    -0.9845300    -0.0954150
  H       -0.3074570     1.7452560    -0.1655130
units angstrom
no_reorient  #important for SAPT in psi4, default
symmetry c1  #important for SAPT in psi4, default
}

set PROPERTIES_ORIGIN ["COM"]
properties('MP2/aug-cc-pvtz', properties = ['dipole'])
--------------------------------------------------------------------------

    Molecular point group: c1
  Charge       = -1
  Multiplicity = 1
  Basis Set: AUG-CC-PVTZ
    Blend: AUG-CC-PVTZ
  Basis Set: (AUG-CC-PVTZ AUX)
    Blend: AUG-CC-PVTZ-JKFIT

    Orbital Energies [Eh]
    ---------------------

    Doubly Occupied:

       1A    -20.385497     2A    -20.316235     3A    -20.309584
       4A    -11.151522     5A    -11.117930     6A    -11.071976
       7A     -1.211238     8A     -1.168019     9A     -1.081146
      10A     -0.858597    11A     -0.701302    12A     -0.570818
      13A     -0.500398    14A     -0.479098    15A     -0.438235
      16A     -0.405291    17A     -0.398476    18A     -0.377453
      19A     -0.365668    20A     -0.350111    21A     -0.275799
      22A     -0.232146    23A     -0.215333    24A     -0.212275

  @DF-RHF Final Energy:  -341.27942695941033

   => Energetics <=

    Nuclear Repulsion Energy =            239.1173797631957143
    One-Electron Energy =                -952.4053177506442580
    Two-Electron Energy =                 372.0085110280382423
    Total Energy =                       -341.2794269594103298
  Basis Set: (AUG-CC-PVTZ AUX)
    Blend: AUG-CC-PVTZ-RI
    Molecular point group: c1

    Geometry (in Angstrom), charge = -1, multiplicity = 1:

       Center              X                  Y                   Z               Mass
    ------------   -----------------  -----------------  -----------------  -----------------
         O           -1.204080703470     1.268671772974     0.142966565382    15.994914619570
         O            1.287265296530     0.996915772974    -0.360119434618    15.994914619570
         O            1.390260596530    -1.202610627026     0.174145665382    15.994914619570
         C           -0.709555603470    -0.020737427026     0.402397565382    12.000000000000
         C           -1.515497703470    -1.078336227026    -0.361916434618    12.000000000000
         C            0.789920296530    -0.103642227026     0.046376565382    12.000000000000
         H           -0.783171703470    -0.270709227026     1.487664565382     1.007825032230
         H           -1.410038703470    -0.892997227026    -1.435409434618     1.007825032230
         H           -1.151419703470    -2.083200227026    -0.139604434618     1.007825032230
         H           -2.575155703470    -1.016281227026    -0.097098434618     1.007825032230
         H           -0.376975703470     1.713504772974    -0.167196434618     1.007825032230

  Basis Set: AUG-CC-PVTZ
    Blend: AUG-CC-PVTZ
  Basis Set: (AUG-CC-PVTZ AUX)
    Blend: AUG-CC-PVTZ-JKFIT
	 Reference Energy          =    -341.2794269594103298 [Eh]
	 Singles Energy            =      -0.0000000000000000 [Eh]
	 Same-Spin Energy          =      -0.3364398623646244 [Eh]
	 Opposite-Spin Energy      =      -1.0185942471818734 [Eh]
	 Correlation Energy        =      -1.3550341095464979 [Eh]
	 Total Energy              =    -342.6344610689568526 [Eh]

	 ================> DF-SCS-MP2 Energies <==================
	-----------------------------------------------------------
	 SCS Same-Spin Scale       =       0.3333333333333333 [-]
	 SCS Opposite-Spin Scale   =       1.2000000000000000 [-]
	 SCS Same-Spin Energy      =      -0.1121466207882081 [Eh]
	 SCS Opposite-Spin Energy  =      -1.2223130966182481 [Eh]
	 SCS Correlation Energy    =      -1.3344597174064563 [Eh]
	 SCS Total Energy          =    -342.6138866768167759 [Eh]
	-----------------------------------------------------------

  Dipole Moment: [D]
     X:    -3.8587      Y:    -0.3709      Z:     0.3595     Total:     3.8931

*** Psi4 exiting successfully. Buy a developer a beer!
