                               Psi4 1.3.2 release

  ==> Input File <==

--------------------------------------------------------------------------
#psi4
#
memory 32 gb

molecule  {
-1 1
  O       -1.1345620     1.3004230     0.1446500
  O        1.3567840     1.0286670    -0.3584360
  O        1.4316831    -1.1844904     0.1863512
  C       -0.6393408    -0.0281864     0.4138482
  C       -1.4459790    -1.0465850    -0.3602330
  C        0.8594390    -0.0718910     0.0480600
  H       -0.7136530    -0.2389580     1.4893480
  H       -1.3405200    -0.8612460    -1.4337260
  H       -1.0819010    -2.0514490    -0.1379210
  H       -2.5056370    -0.9845300    -0.0954150
  H       -0.3074570     1.7452560    -0.1655130
units angstrom
no_reorient  #important for SAPT in psi4, default
symmetry c1  #important for SAPT in psi4, default
}

set PROPERTIES_ORIGIN ["COM"]
properties('MP2/aug-cc-pvtz', properties = ['dipole'])
--------------------------------------------------------------------------

    Molecular point group: c1
  Charge       = -1
  Multiplicity = 1
  Basis Set: AUG-CC-PVTZ
    Blend: AUG-CC-PVTZ
  Basis Set: (AUG-CC-PVTZ AUX)
    Blend: AUG-CC-PVTZ-JKFIT

    Orbital Energies [Eh]
    ---------------------

    Doubly Occupied:

       1A    -20.379794     2A    -20.318487     3A    -20.310311
       4A    -11.152759     5A    -11.115521     6A    -11.071836
       7A     -1.201633     8A     -1.160676     9A     -1.083871
      10A     -0.863685    11A     -0.701452    12A     -0.564694
      13A     -0.500006    14A     -0.476820    15A     -0.436192
      16A     -0.404490    17A     -0.400890    18A     -0.369918
      19A     -0.365661    20A     -0.348787    21A     -0.280399
      22A     -0.234199    23A     -0.214859    24A     -0.213816

  @DF-RHF Final Energy:  -341.27926863120189

   => Energetics <=

    Nuclear Repulsion Energy =            238.9926045844999294
    One-Electron Energy =                -952.2022360890052823
    Two-Electron Energy =                 371.9303628733034088
    Total Energy =                       -341.2792686312018873
  Basis Set: (AUG-CC-PVTZ AUX)
    Blend: AUG-CC-PVTZ-RI
    Molecular point group: c1

    Geometry (in Angstrom), charge = -1, multiplicity = 1:

       Center              X                  Y                   Z               Mass
    ------------   -----------------  -----------------  -----------------  -----------------
         O           -1.199126491471     1.276404857245     0.139759487390    15.994914619570
         O            1.292219508529     1.004648857245    -0.363326512610    15.994914619570
         O            1.367118608529    -1.208508542755     0.181460687390    15.994914619570
         C           -0.703905291471    -0.052204542755     0.408957687390    12.000000000000
         C           -1.510543491471    -1.070603142755    -0.365123512610    12.000000000000
         C            0.794874508529    -0.095909142755     0.043169487390    12.000000000000
         H           -0.778217491471    -0.262976142755     1.484457487390     1.007825032230
         H           -1.405084491471    -0.885264142755    -1.438616512610     1.007825032230
         H           -1.146465491471    -2.075467142755    -0.142811512610     1.007825032230
         H           -2.570201491471    -1.008548142755    -0.100305512610     1.007825032230
         H           -0.372021491471     1.721237857245    -0.170403512610     1.007825032230

  Basis Set: AUG-CC-PVTZ
    Blend: AUG-CC-PVTZ
  Basis Set: (AUG-CC-PVTZ AUX)
    Blend: AUG-CC-PVTZ-JKFIT
	 Reference Energy          =    -341.2792686312018873 [Eh]
	 Singles Energy            =      -0.0000000000000000 [Eh]
	 Same-Spin Energy          =      -0.3365338958549088 [Eh]
	 Opposite-Spin Energy      =      -1.0192264754736882 [Eh]
	 Correlation Energy        =      -1.3557603713285968 [Eh]
	 Total Energy              =    -342.6350290025304730 [Eh]

	 ================> DF-SCS-MP2 Energies <==================
	-----------------------------------------------------------
	 SCS Same-Spin Scale       =       0.3333333333333333 [-]
	 SCS Opposite-Spin Scale   =       1.2000000000000000 [-]
	 SCS Same-Spin Energy      =      -0.1121779652849696 [Eh]
	 SCS Opposite-Spin Energy  =      -1.2230717705684258 [Eh]
	 SCS Correlation Energy    =      -1.3352497358533952 [Eh]
	 SCS Total Energy          =    -342.6145183670552683 [Eh]
	-----------------------------------------------------------

  Dipole Moment: [D]
     X:    -3.7656      Y:    -0.5255      Z:     0.3694     Total:     3.8200

*** Psi4 exiting successfully. Buy a developer a beer!
