                               Psi4 1.3.2 release

  ==> Input File <==

--------------------------------------------------------------------------
#psi4
#
memory 32 gb

molecule  {
-1 1
  O       -1.1345620     1.3004230     0.1446500
  O        1.3567840     1.0286670    -0.3584360
  O        1.4410930    -1.1800310     0.1828540
  C       -0.6396870    -0.0151150     0.4106200
  C       -1.4459790    -1.0465850    -0.3602330
  C        0.8594390    -0.0718910     0.0480600
  H       -0.7136530    -0.2389580     1.4893480
  H       -1.3405200    -0.8612460    -1.4337260
  H       -1.0819010    -2.0514490    -0.1379210
  H       -2.5056370    -0.9845300    -0.0954150
  H       -0.1402012     1.8352094    -0.2282337
units angstrom
no_reorient  #important for SAPT in psi4, default
symmetry c1  #important for SAPT in psi4, default
}

set PROPERTIES_ORIGIN ["COM"]
properties('MP2/aug-cc-pvtz', properties = ['dipole'])
--------------------------------------------------------------------------

    Molecular point group: c1
  Charge       = -1
  Multiplicity = 1
  Basis Set: AUG-CC-PVTZ
    Blend: AUG-CC-PVTZ
  Basis Set: (AUG-CC-PVTZ AUX)
    Blend: AUG-CC-PVTZ-JKFIT

    Orbital Energies [Eh]
    ---------------------

    Doubly Occupied:

       1A    -20.376198     2A    -20.330282     3A    -20.314186
       4A    -11.156025     5A    -11.111624     6A    -11.068916
       7A     -1.198181     8A     -1.136013     9A     -1.089606
      10A     -0.852865    11A     -0.695973    12A     -0.547642
      13A     -0.496647    14A     -0.471510    15A     -0.435177
      16A     -0.403980    17A     -0.392526    18A     -0.366042
      19A     -0.349997    20A     -0.340495    21A     -0.266843
      22A     -0.239832    23A     -0.220586    24A     -0.215182

  @DF-RHF Final Energy:  -341.24952100297372

   => Energetics <=

    Nuclear Repulsion Energy =            238.2758306764587530
    One-Electron Energy =                -950.8980468200203404
    Two-Electron Energy =                 371.3726951405878367
    Total Energy =                       -341.2495210029737223
  Basis Set: (AUG-CC-PVTZ AUX)
    Blend: AUG-CC-PVTZ-RI
    Molecular point group: c1

    Geometry (in Angstrom), charge = -1, multiplicity = 1:

       Center              X                  Y                   Z               Mass
    ------------   -----------------  -----------------  -----------------  -----------------
         O           -1.202663977906     1.272823325527     0.141533026426    15.994914619570
         O            1.288682022094     1.001067325527    -0.361552973574    15.994914619570
         O            1.372991022094    -1.207630674473     0.179737026426    15.994914619570
         C           -0.707788977906    -0.042714674473     0.407503026426    12.000000000000
         C           -1.514080977906    -1.074184674473    -0.363349973574    12.000000000000
         C            0.791337022094    -0.099490674473     0.044943026426    12.000000000000
         H           -0.781754977906    -0.266557674473     1.486231026426     1.007825032230
         H           -1.408621977906    -0.888845674473    -1.436842973574     1.007825032230
         H           -1.150002977906    -2.079048674473    -0.141037973574     1.007825032230
         H           -2.573738977906    -1.012129674473    -0.098531973574     1.007825032230
         H           -0.208303177906     1.807609725527    -0.231350673574     1.007825032230

  Basis Set: AUG-CC-PVTZ
    Blend: AUG-CC-PVTZ
  Basis Set: (AUG-CC-PVTZ AUX)
    Blend: AUG-CC-PVTZ-JKFIT
	 Reference Energy          =    -341.2495210029737223 [Eh]
	 Singles Energy            =      -0.0000000000000000 [Eh]
	 Same-Spin Energy          =      -0.3400312623366640 [Eh]
	 Opposite-Spin Energy      =      -1.0258497901263652 [Eh]
	 Correlation Energy        =      -1.3658810524630294 [Eh]
	 Total Energy              =    -342.6154020554367321 [Eh]

	 ================> DF-SCS-MP2 Energies <==================
	-----------------------------------------------------------
	 SCS Same-Spin Scale       =       0.3333333333333333 [-]
	 SCS Opposite-Spin Scale   =       1.2000000000000000 [-]
	 SCS Same-Spin Energy      =      -0.1133437541122213 [Eh]
	 SCS Opposite-Spin Energy  =      -1.2310197481516383 [Eh]
	 SCS Correlation Energy    =      -1.3443635022638596 [Eh]
	 SCS Total Energy          =    -342.5938845052375541 [Eh]
	-----------------------------------------------------------

  Dipole Moment: [D]
     X:    -3.1911      Y:    -0.5116      Z:     0.2465     Total:     3.2413

*** Psi4 exiting successfully. Buy a developer a beer!
