                               Psi4 1.3.2 release

  ==> Input File <==

--------------------------------------------------------------------------
#psi4
#
memory 32 gb

molecule  {
-1 1
  O       -1.0819650     1.3273766     0.1906475
  O        1.3567840     1.0286670    -0.3584360
  O        1.4410930    -1.1800310     0.1828540
  C       -0.6396870    -0.0151150     0.4106200
  C       -1.3999669    -1.1031871    -0.3285180
  C        0.8594390    -0.0718910     0.0480600
  H       -0.7136530    -0.2389580     1.4893480
  H       -1.3405200    -0.8612460    -1.4337260
  H       -1.0819010    -2.0514490    -0.1379210
  H       -2.5056370    -0.9845300    -0.0954150
  H       -0.3074570     1.7452560    -0.1655130
units angstrom
no_reorient  #important for SAPT in psi4, default
symmetry c1  #important for SAPT in psi4, default
}

set PROPERTIES_ORIGIN ["COM"]
properties('MP2/aug-cc-pvtz', properties = ['dipole'])
--------------------------------------------------------------------------

    Molecular point group: c1
  Charge       = -1
  Multiplicity = 1
  Basis Set: AUG-CC-PVTZ
    Blend: AUG-CC-PVTZ
  Basis Set: (AUG-CC-PVTZ AUX)
    Blend: AUG-CC-PVTZ-JKFIT

    Orbital Energies [Eh]
    ---------------------

    Doubly Occupied:

       1A    -20.381071     2A    -20.314864     3A    -20.308547
       4A    -11.150167     5A    -11.117678     6A    -11.076337
       7A     -1.209385     8A     -1.165344     9A     -1.081127
      10A     -0.867439    11A     -0.703261    12A     -0.572650
      13A     -0.501637    14A     -0.479257    15A     -0.437295
      16A     -0.420810    17A     -0.398069    18A     -0.373746
      19A     -0.358435    20A     -0.348328    21A     -0.280280
      22A     -0.231317    23A     -0.213250    24A     -0.211448

  @DF-RHF Final Energy:  -341.27191773049412

   => Energetics <=

    Nuclear Repulsion Energy =            239.4034942828117494
    One-Electron Energy =                -952.9473376266987543
    Two-Electron Energy =                 372.2719256133929093
    Total Energy =                       -341.2719177304941240
  Basis Set: (AUG-CC-PVTZ AUX)
    Blend: AUG-CC-PVTZ-RI
    Molecular point group: c1

    Geometry (in Angstrom), charge = -1, multiplicity = 1:

       Center              X                  Y                   Z               Mass
    ------------   -----------------  -----------------  -----------------  -----------------
         O           -1.163825817594     1.303582219111     0.174281073334    15.994914619570
         O            1.274923182406     1.004872619111    -0.374802426666    15.994914619570
         O            1.359232182406    -1.203825380889     0.166487573334    15.994914619570
         C           -0.721547817594    -0.038909380889     0.394253573334    12.000000000000
         C           -1.481827717594    -1.126981480889    -0.344884426666    12.000000000000
         C            0.777578182406    -0.095685380889     0.031693573334    12.000000000000
         H           -0.795513817594    -0.262752380889     1.472981573334     1.007825032230
         H           -1.422380817594    -0.885040380889    -1.450092426666     1.007825032230
         H           -1.163761817594    -2.075243380889    -0.154287426666     1.007825032230
         H           -2.587497817594    -1.008324380889    -0.111781426666     1.007825032230
         H           -0.389317817594     1.721461619111    -0.181879426666     1.007825032230

  Basis Set: AUG-CC-PVTZ
    Blend: AUG-CC-PVTZ
  Basis Set: (AUG-CC-PVTZ AUX)
    Blend: AUG-CC-PVTZ-JKFIT
	 Reference Energy          =    -341.2719177304941240 [Eh]
	 Singles Energy            =      -0.0000000000000000 [Eh]
	 Same-Spin Energy          =      -0.3358645283431074 [Eh]
	 Opposite-Spin Energy      =      -1.0178109578486416 [Eh]
	 Correlation Energy        =      -1.3536754861917490 [Eh]
	 Total Energy              =    -342.6255932166858997 [Eh]

	 ================> DF-SCS-MP2 Energies <==================
	-----------------------------------------------------------
	 SCS Same-Spin Scale       =       0.3333333333333333 [-]
	 SCS Opposite-Spin Scale   =       1.2000000000000000 [-]
	 SCS Same-Spin Energy      =      -0.1119548427810358 [Eh]
	 SCS Opposite-Spin Energy  =      -1.2213731494183699 [Eh]
	 SCS Correlation Energy    =      -1.3333279921994057 [Eh]
	 SCS Total Energy          =    -342.6052457226935530 [Eh]
	-----------------------------------------------------------

  Dipole Moment: [D]
     X:    -3.8640      Y:    -0.5506      Z:     0.3458     Total:     3.9184

*** Psi4 exiting successfully. Buy a developer a beer!
