                               Psi4 1.3.2 release

  ==> Input File <==

--------------------------------------------------------------------------
#psi4
#
memory 32 gb

molecule  {
-1 1
  O       -1.2018729     1.2777766     0.1684219
  O        1.3567840     1.0286670    -0.3584360
  O        1.4410930    -1.1800310     0.1828540
  C       -0.6396870    -0.0151150     0.4106200
  C       -1.4459790    -1.0465850    -0.3602330
  C        0.8598730    -0.1493700     0.0709916
  H       -0.7136530    -0.2389580     1.4893480
  H       -1.3405200    -0.8612460    -1.4337260
  H       -1.0819010    -2.0514490    -0.1379210
  H       -2.5056370    -0.9845300    -0.0954150
  H       -0.3074570     1.7452560    -0.1655130
units angstrom
no_reorient  #important for SAPT in psi4, default
symmetry c1  #important for SAPT in psi4, default
}

set PROPERTIES_ORIGIN ["COM"]
properties('MP2/aug-cc-pvtz', properties = ['dipole'])
--------------------------------------------------------------------------

    Molecular point group: c1
  Charge       = -1
  Multiplicity = 1
  Basis Set: AUG-CC-PVTZ
    Blend: AUG-CC-PVTZ
  Basis Set: (AUG-CC-PVTZ AUX)
    Blend: AUG-CC-PVTZ-JKFIT

    Orbital Energies [Eh]
    ---------------------

    Doubly Occupied:

       1A    -20.384333     2A    -20.331220     3A    -20.303868
       4A    -11.154330     5A    -11.115165     6A    -11.070953
       7A     -1.215601     8A     -1.168488     9A     -1.062668
      10A     -0.860584    11A     -0.700458    12A     -0.557399
      13A     -0.497051    14A     -0.479702    15A     -0.435780
      16A     -0.404836    17A     -0.395615    18A     -0.380298
      19A     -0.365943    20A     -0.356057    21A     -0.273098
      22A     -0.225490    23A     -0.215814    24A     -0.214168

  @DF-RHF Final Energy:  -341.26089587391459

   => Energetics <=

    Nuclear Repulsion Energy =            238.2711024344565658
    One-Electron Energy =                -950.7261605398471147
    Two-Electron Energy =                 371.1941622314759570
    Total Energy =                       -341.2608958739145919
  Basis Set: (AUG-CC-PVTZ AUX)
    Blend: AUG-CC-PVTZ-RI
    Molecular point group: c1

    Geometry (in Angstrom), charge = -1, multiplicity = 1:

       Center              X                  Y                   Z               Mass
    ------------   -----------------  -----------------  -----------------  -----------------
         O           -1.256046156383     1.265707957125     0.157232707029    15.994914619570
         O            1.302610743617     1.016598357125    -0.369625192971    15.994914619570
         O            1.386919743617    -1.192099642875     0.171664807029    15.994914619570
         C           -0.693860256383    -0.027183642875     0.399430807029    12.000000000000
         C           -1.500152256383    -1.058653642875    -0.371422192971    12.000000000000
         C            0.805699743617    -0.161438642875     0.059802407029    12.000000000000
         H           -0.767826256383    -0.251026642875     1.478158807029     1.007825032230
         H           -1.394693256383    -0.873314642875    -1.444915192971     1.007825032230
         H           -1.136074256383    -2.063517642875    -0.149110192971     1.007825032230
         H           -2.559810256383    -0.996598642875    -0.106604192971     1.007825032230
         H           -0.361630256383     1.733187357125    -0.176702192971     1.007825032230

  Basis Set: AUG-CC-PVTZ
    Blend: AUG-CC-PVTZ
  Basis Set: (AUG-CC-PVTZ AUX)
    Blend: AUG-CC-PVTZ-JKFIT
	 Reference Energy          =    -341.2608958739145919 [Eh]
	 Singles Energy            =      -0.0000000000000000 [Eh]
	 Same-Spin Energy          =      -0.3379597141985337 [Eh]
	 Opposite-Spin Energy      =      -1.0221265787949663 [Eh]
	 Correlation Energy        =      -1.3600862929935000 [Eh]
	 Total Energy              =    -342.6209821669081066 [Eh]

	 ================> DF-SCS-MP2 Energies <==================
	-----------------------------------------------------------
	 SCS Same-Spin Scale       =       0.3333333333333333 [-]
	 SCS Opposite-Spin Scale   =       1.2000000000000000 [-]
	 SCS Same-Spin Energy      =      -0.1126532380661779 [Eh]
	 SCS Opposite-Spin Energy  =      -1.2265518945539595 [Eh]
	 SCS Correlation Energy    =      -1.3392051326201373 [Eh]
	 SCS Total Energy          =    -342.6001010065347145 [Eh]
	-----------------------------------------------------------

  Dipole Moment: [D]
     X:    -3.5605      Y:    -1.2957      Z:     0.5317     Total:     3.8261

*** Psi4 exiting successfully. Buy a developer a beer!
