                               Psi4 1.4a3.dev225

  ==> Input File <==

--------------------------------------------------------------------------
#psi4
#
memory 32 gb

molecule  {
-1 1
  O        1.1681810     1.2683390    -0.1935740
  O       -1.3027740     1.0522020     0.4123420
  O       -1.4902400    -1.1295240    -0.2243730
  C        0.6404390    -0.0405420    -0.4184120
  C        1.4092810    -1.0711850     0.3952000
  C       -0.8630350    -0.0522610    -0.0492080
  H        0.7276143    -0.2921256    -1.5073297
  H        1.3060210    -0.8470660     1.4617500
  H        1.0158520    -2.0724200     0.2054930
  H        2.4733650    -1.0522610     0.1409170
  H        0.3572580     1.7151740     0.1591030
units angstrom
no_reorient  #important for SAPT in psi4, default
symmetry c1  #important for SAPT in psi4, default
}

set PROPERTIES_ORIGIN ["COM"]
properties('MP2/aug-cc-pvtz', properties = ['dipole'])
--------------------------------------------------------------------------

    Molecular point group: c1
  Charge       = -1
  Multiplicity = 1
  Basis Set: AUG-CC-PVTZ
    Blend: AUG-CC-PVTZ
  Basis Set: (AUG-CC-PVTZ AUX)
    Blend: AUG-CC-PVTZ-JKFIT

    Orbital Energies [Eh]
    ---------------------

    Doubly Occupied:

       1A    -20.381249     2A    -20.319245     3A    -20.311544
       4A    -11.153965     5A    -11.118387     6A    -11.072586
       7A     -1.204834     8A     -1.163767     9A     -1.084340
      10A     -0.860642    11A     -0.699059    12A     -0.566665
      13A     -0.498176    14A     -0.476539    15A     -0.436921
      16A     -0.406143    17A     -0.401886    18A     -0.371546
      19A     -0.364787    20A     -0.349817    21A     -0.277584
      22A     -0.235142    23A     -0.215527    24A     -0.214496

  @DF-RHF Final Energy:  -341.27908549524864

   => Energetics <=

    Nuclear Repulsion Energy =            238.8710858099097720
    One-Electron Energy =                -951.9306473970033267
    Two-Electron Energy =                 371.7804760918448892
    Total Energy =                       -341.2790854952486370
  Basis Set: (AUG-CC-PVTZ AUX)
    Blend: AUG-CC-PVTZ-RI
    Molecular point group: c1

    Geometry (in Angstrom), charge = -1, multiplicity = 1:

       Center              X                  Y                   Z               Mass
    ------------   -----------------  -----------------  -----------------  -----------------
         O            1.233587309763     1.240102561790    -0.188011905148    15.994914619570
         O           -1.237367690237     1.023965561790     0.417904094852    15.994914619570
         O           -1.424833690237    -1.157760438210    -0.218810905148    15.994914619570
         C            0.705845309763    -0.068778438210    -0.412849905148    12.000000000000
         C            1.474687309763    -1.099421438210     0.400762094852    12.000000000000
         C           -0.797628690237    -0.080497438210    -0.043645905148    12.000000000000
         H            0.793020609763    -0.320362038210    -1.501767605148     1.007825032230
         H            1.371427309763    -0.875302438210     1.467312094852     1.007825032230
         H            1.081258309763    -2.100656438210     0.211055094852     1.007825032230
         H            2.538771309763    -1.080497438210     0.146479094852     1.007825032230
         H            0.422664309763     1.686937561790     0.164665094852     1.007825032230

  Basis Set: AUG-CC-PVTZ
    Blend: AUG-CC-PVTZ
  Basis Set: (AUG-CC-PVTZ AUX)
    Blend: AUG-CC-PVTZ-JKFIT
	 Reference Energy          =    -341.2790854952486370 [Eh]
	 Singles Energy            =      -0.0000000000000000 [Eh]
	 Same-Spin Energy          =      -0.3366411008887003 [Eh]
	 Opposite-Spin Energy      =      -1.0193856964107479 [Eh]
	 Correlation Energy        =      -1.3560267972994482 [Eh]
	 Total Energy              =    -342.6351122925480581 [Eh]

	 ================> DF-SCS-MP2 Energies <==================
	-----------------------------------------------------------
	 SCS Same-Spin Scale       =       0.3333333333333333 [-]
	 SCS Opposite-Spin Scale   =       1.2000000000000000 [-]
	 SCS Same-Spin Energy      =      -0.1122137002962334 [Eh]
	 SCS Opposite-Spin Energy  =      -1.2232628356928974 [Eh]
	 SCS Correlation Energy    =      -1.3354765359891307 [Eh]
	 SCS Total Energy          =    -342.6145620312377673 [Eh]
	-----------------------------------------------------------

  Dipole Moment: [D]
     X:     3.7415      Y:    -0.6047      Z:    -0.2790     Total:     3.8003

*** Psi4 exiting successfully. Buy a developer a beer!
