                               Psi4 1.3.2 release

  ==> Input File <==

--------------------------------------------------------------------------
#psi4
#
memory 32 gb

molecule  {
-1 1
  O       -1.1688818     1.2804457     0.1143823
  O        1.3567840     1.0286670    -0.3584360
  O        1.4410930    -1.1800310     0.1828540
  C       -0.6396870    -0.0151150     0.4106200
  C       -1.4754335    -1.0072697    -0.3802076
  C        0.8594390    -0.0718910     0.0480600
  H       -0.7136530    -0.2389580     1.4893480
  H       -1.3405200    -0.8612460    -1.4337260
  H       -1.0819010    -2.0514490    -0.1379210
  H       -2.5056370    -0.9845300    -0.0954150
  H       -0.3074570     1.7452560    -0.1655130
units angstrom
no_reorient  #important for SAPT in psi4, default
symmetry c1  #important for SAPT in psi4, default
}

set PROPERTIES_ORIGIN ["COM"]
properties('MP2/aug-cc-pvtz', properties = ['dipole'])
--------------------------------------------------------------------------

    Molecular point group: c1
  Charge       = -1
  Multiplicity = 1
  Basis Set: AUG-CC-PVTZ
    Blend: AUG-CC-PVTZ
  Basis Set: (AUG-CC-PVTZ AUX)
    Blend: AUG-CC-PVTZ-JKFIT

    Orbital Energies [Eh]
    ---------------------

    Doubly Occupied:

       1A    -20.382594     2A    -20.319887     3A    -20.311200
       4A    -11.153923     5A    -11.115962     6A    -11.070313
       7A     -1.202169     8A     -1.162000     9A     -1.084364
      10A     -0.858805    11A     -0.701871    12A     -0.563328
      13A     -0.499090    14A     -0.478982    15A     -0.437355
      16A     -0.404817    17A     -0.398828    18A     -0.369649
      19A     -0.362686    20A     -0.347670    21A     -0.277269
      22A     -0.234976    23A     -0.216553    24A     -0.214423

  @DF-RHF Final Energy:  -341.27354882090674

   => Energetics <=

    Nuclear Repulsion Energy =            238.8361523792196692
    One-Electron Energy =                -951.8819766264537066
    Two-Electron Energy =                 371.7722754263272691
    Total Energy =                       -341.2735488209067398
  Basis Set: (AUG-CC-PVTZ AUX)
    Blend: AUG-CC-PVTZ-RI
    Molecular point group: c1

    Geometry (in Angstrom), charge = -1, multiplicity = 1:

       Center              X                  Y                   Z               Mass
    ------------   -----------------  -----------------  -----------------  -----------------
         O           -1.224953736249     1.252154176200     0.118685954096    15.994914619570
         O            1.300712063751     1.000375476200    -0.354132345904    15.994914619570
         O            1.385021063751    -1.208322523800     0.187157654096    15.994914619570
         C           -0.695758936249    -0.043406523800     0.414923654096    12.000000000000
         C           -1.531505436249    -1.035561223800    -0.375903945904    12.000000000000
         C            0.803367063751    -0.100182523800     0.052363654096    12.000000000000
         H           -0.769724936249    -0.267249523800     1.493651654096     1.007825032230
         H           -1.396591936249    -0.889537523800    -1.429422345904     1.007825032230
         H           -1.137972936249    -2.079740523800    -0.133617345904     1.007825032230
         H           -2.561708936249    -1.012821523800    -0.091111345904     1.007825032230
         H           -0.363528936249     1.716964476200    -0.161209345904     1.007825032230

  Basis Set: AUG-CC-PVTZ
    Blend: AUG-CC-PVTZ
  Basis Set: (AUG-CC-PVTZ AUX)
    Blend: AUG-CC-PVTZ-JKFIT
	 Reference Energy          =    -341.2735488209067398 [Eh]
	 Singles Energy            =      -0.0000000000000000 [Eh]
	 Same-Spin Energy          =      -0.3371534601275983 [Eh]
	 Opposite-Spin Energy      =      -1.0203982698221816 [Eh]
	 Correlation Energy        =      -1.3575517299497799 [Eh]
	 Total Energy              =    -342.6311005508565017 [Eh]

	 ================> DF-SCS-MP2 Energies <==================
	-----------------------------------------------------------
	 SCS Same-Spin Scale       =       0.3333333333333333 [-]
	 SCS Opposite-Spin Scale   =       1.2000000000000000 [-]
	 SCS Same-Spin Energy      =      -0.1123844867091994 [Eh]
	 SCS Opposite-Spin Energy  =      -1.2244779237866179 [Eh]
	 SCS Correlation Energy    =      -1.3368624104958173 [Eh]
	 SCS Total Energy          =    -342.6104112314025656 [Eh]
	-----------------------------------------------------------

  Dipole Moment: [D]
     X:    -3.7418      Y:    -0.3961      Z:     0.3828     Total:     3.7821

*** Psi4 exiting successfully. Buy a developer a beer!
