                               Psi4 1.3.2 release

  ==> Input File <==

--------------------------------------------------------------------------
#psi4
#
memory 32 gb

molecule  {
-1 1
  O       -1.1232066     1.3038484     0.1407572
  O        1.3567840     1.0286670    -0.3584360
  O        1.4410930    -1.1800310     0.1828540
  C       -0.6396870    -0.0151150     0.4106200
  C       -1.4459790    -1.0465850    -0.3602330
  C        0.8589670    -0.0589570     0.0443330
  H       -0.7136530    -0.2389580     1.4893480
  H       -1.3405200    -0.8612460    -1.4337260
  H       -1.0819010    -2.0514490    -0.1379210
  H       -2.5056370    -0.9845300    -0.0954150
  H       -0.3074570     1.7452560    -0.1655130
units angstrom
no_reorient  #important for SAPT in psi4, default
symmetry c1  #important for SAPT in psi4, default
}

set PROPERTIES_ORIGIN ["COM"]
properties('MP2/aug-cc-pvtz', properties = ['dipole'])
--------------------------------------------------------------------------

    Molecular point group: c1
  Charge       = -1
  Multiplicity = 1
  Basis Set: AUG-CC-PVTZ
    Blend: AUG-CC-PVTZ
  Basis Set: (AUG-CC-PVTZ AUX)
    Blend: AUG-CC-PVTZ-JKFIT

    Orbital Energies [Eh]
    ---------------------

    Doubly Occupied:

       1A    -20.381105     2A    -20.320103     3A    -20.306488
       4A    -11.151773     5A    -11.116525     6A    -11.072056
       7A     -1.207271     8A     -1.163419     9A     -1.081930
      10A     -0.862303    11A     -0.701731    12A     -0.568395
      13A     -0.501880    14A     -0.477571    15A     -0.436914
      16A     -0.405016    17A     -0.400611    18A     -0.372270
      19A     -0.365463    20A     -0.349146    21A     -0.280217
      22A     -0.234176    23A     -0.213572    24A     -0.212044

  @DF-RHF Final Energy:  -341.27999883962747

   => Energetics <=

    Nuclear Repulsion Energy =            239.1878519523465343
    One-Electron Energy =                -952.5717443842222565
    Two-Electron Energy =                 372.1038935922481983
    Total Energy =                       -341.2799988396274671
  Basis Set: (AUG-CC-PVTZ AUX)
    Blend: AUG-CC-PVTZ-RI
    Molecular point group: c1

    Geometry (in Angstrom), charge = -1, multiplicity = 1:

       Center              X                  Y                   Z               Mass
    ------------   -----------------  -----------------  -----------------  -----------------
         O           -1.191391702483     1.274908189628     0.138131976702    15.994914619570
         O            1.288598897517     0.999726789628    -0.361061223298    15.994914619570
         O            1.372907897517    -1.208971210372     0.180228776702    15.994914619570
         C           -0.707872102483    -0.044055210372     0.407994776702    12.000000000000
         C           -1.514164102483    -1.075525210372    -0.362858223298    12.000000000000
         C            0.790781897517    -0.087897210372     0.041707776702    12.000000000000
         H           -0.781838102483    -0.267898210372     1.486722776702     1.007825032230
         H           -1.408705102483    -0.890186210372    -1.436351223298     1.007825032230
         H           -1.150086102483    -2.080389210372    -0.140546223298     1.007825032230
         H           -2.573822102483    -1.013470210372    -0.098040223298     1.007825032230
         H           -0.375642102483     1.716315789628    -0.168138223298     1.007825032230

  Basis Set: AUG-CC-PVTZ
    Blend: AUG-CC-PVTZ
  Basis Set: (AUG-CC-PVTZ AUX)
    Blend: AUG-CC-PVTZ-JKFIT
	 Reference Energy          =    -341.2799988396274671 [Eh]
	 Singles Energy            =      -0.0000000000000000 [Eh]
	 Same-Spin Energy          =      -0.3362573997454774 [Eh]
	 Opposite-Spin Energy      =      -1.0185235894884350 [Eh]
	 Correlation Energy        =      -1.3547809892339124 [Eh]
	 Total Energy              =    -342.6347798288613831 [Eh]

	 ================> DF-SCS-MP2 Energies <==================
	-----------------------------------------------------------
	 SCS Same-Spin Scale       =       0.3333333333333333 [-]
	 SCS Opposite-Spin Scale   =       1.2000000000000000 [-]
	 SCS Same-Spin Energy      =      -0.1120857999151591 [Eh]
	 SCS Opposite-Spin Energy  =      -1.2222283073861220 [Eh]
	 SCS Correlation Energy    =      -1.3343141073012812 [Eh]
	 SCS Total Energy          =    -342.6143129469287487 [Eh]
	-----------------------------------------------------------

  Dipole Moment: [D]
     X:    -3.8387      Y:    -0.3387      Z:     0.3396     Total:     3.8685

*** Psi4 exiting successfully. Buy a developer a beer!
