                               Psi4 1.3.2 release

  ==> Input File <==

--------------------------------------------------------------------------
#psi4
#
memory 32 gb

molecule  {
-1 1
  O       -1.1345620     1.3004230     0.1446500
  O        1.3567840     1.0286670    -0.3584360
  O        1.4410930    -1.1800310     0.1828540
  C       -0.6358909    -0.0096113     0.3991709
  C       -1.4459790    -1.0465850    -0.3602330
  C        0.8594390    -0.0718910     0.0480600
  H       -0.7136530    -0.2389580     1.4893480
  H       -1.3348280    -0.8538117    -1.4318408
  H       -1.0819010    -2.0514490    -0.1379210
  H       -2.5056370    -0.9845300    -0.0954150
  H       -0.3074570     1.7452560    -0.1655130
units angstrom
no_reorient  #important for SAPT in psi4, default
symmetry c1  #important for SAPT in psi4, default
}

set PROPERTIES_ORIGIN ["COM"]
properties('MP2/aug-cc-pvtz', properties = ['dipole'])
--------------------------------------------------------------------------

    Molecular point group: c1
  Charge       = -1
  Multiplicity = 1
  Basis Set: AUG-CC-PVTZ
    Blend: AUG-CC-PVTZ
  Basis Set: (AUG-CC-PVTZ AUX)
    Blend: AUG-CC-PVTZ-JKFIT

    Orbital Energies [Eh]
    ---------------------

    Doubly Occupied:

       1A    -20.382714     2A    -20.317679     3A    -20.310104
       4A    -11.152125     5A    -11.116714     6A    -11.071832
       7A     -1.206166     8A     -1.164753     9A     -1.083084
      10A     -0.861969    11A     -0.701399    12A     -0.567500
      13A     -0.499669    14A     -0.478134    15A     -0.437805
      16A     -0.404753    17A     -0.399324    18A     -0.373596
      19A     -0.366473    20A     -0.349264    21A     -0.277263
      22A     -0.233653    23A     -0.215851    24A     -0.213347

  @DF-RHF Final Energy:  -341.27954556028146

   => Energetics <=

    Nuclear Repulsion Energy =            239.1944216843626521
    One-Electron Energy =                -952.5775955536697666
    Two-Electron Energy =                 372.1036283090256802
    Total Energy =                       -341.2795455602814627
  Basis Set: (AUG-CC-PVTZ AUX)
    Blend: AUG-CC-PVTZ-RI
    Molecular point group: c1

    Geometry (in Angstrom), charge = -1, multiplicity = 1:

       Center              X                  Y                   Z               Mass
    ------------   -----------------  -----------------  -----------------  -----------------
         O           -1.201346636353     1.273015638160     0.142344918311    15.994914619570
         O            1.289999363647     1.001259638160    -0.360741081689    15.994914619570
         O            1.374308363647    -1.207438361840     0.180548918311    15.994914619570
         C           -0.702675536353    -0.037018661840     0.396865818311    12.000000000000
         C           -1.512763636353    -1.073992361840    -0.362538081689    12.000000000000
         C            0.792654363647    -0.099298361840     0.045754918311    12.000000000000
         H           -0.780437636353    -0.266365361840     1.487042918311     1.007825032230
         H           -1.401612636353    -0.881219061840    -1.434145881689     1.007825032230
         H           -1.148685636353    -2.078856361840    -0.140226081689     1.007825032230
         H           -2.572421636353    -1.011937361840    -0.097720081689     1.007825032230
         H           -0.374241636353     1.717848638160    -0.167818081689     1.007825032230

  Basis Set: AUG-CC-PVTZ
    Blend: AUG-CC-PVTZ
  Basis Set: (AUG-CC-PVTZ AUX)
    Blend: AUG-CC-PVTZ-JKFIT
	 Reference Energy          =    -341.2795455602814627 [Eh]
	 Singles Energy            =      -0.0000000000000000 [Eh]
	 Same-Spin Energy          =      -0.3365323243094094 [Eh]
	 Opposite-Spin Energy      =      -1.0189821995216197 [Eh]
	 Correlation Energy        =      -1.3555145238310291 [Eh]
	 Total Energy              =    -342.6350600841124674 [Eh]

	 ================> DF-SCS-MP2 Energies <==================
	-----------------------------------------------------------
	 SCS Same-Spin Scale       =       0.3333333333333333 [-]
	 SCS Opposite-Spin Scale   =       1.2000000000000000 [-]
	 SCS Same-Spin Energy      =      -0.1121774414364698 [Eh]
	 SCS Opposite-Spin Energy  =      -1.2227786394259437 [Eh]
	 SCS Correlation Energy    =      -1.3349560808624135 [Eh]
	 SCS Total Energy          =    -342.6145016411438746 [Eh]
	-----------------------------------------------------------

  Dipole Moment: [D]
     X:    -3.8048      Y:    -0.4478      Z:     0.3419     Total:     3.8463

*** Psi4 exiting successfully. Buy a developer a beer!
