                               Psi4 1.3.2 release

  ==> Input File <==

--------------------------------------------------------------------------
#psi4
#
memory 32 gb

molecule  {
-1 1
  O       -1.1345620     1.3004230     0.1446500
  O        1.3764841     1.0186381    -0.3608771
  O        1.4597680    -1.1708708     0.1757845
  C       -0.6396870    -0.0151150     0.4106200
  C       -1.4459790    -1.0465850    -0.3602330
  C        0.8594390    -0.0718910     0.0480600
  H       -0.7136530    -0.2389580     1.4893480
  H       -1.3405200    -0.8612460    -1.4337260
  H       -1.0819010    -2.0514490    -0.1379210
  H       -2.5056370    -0.9845300    -0.0954150
  H       -0.3074570     1.7452560    -0.1655130
units angstrom
no_reorient  #important for SAPT in psi4, default
symmetry c1  #important for SAPT in psi4, default
}

set PROPERTIES_ORIGIN ["COM"]
properties('MP2/aug-cc-pvtz', properties = ['dipole'])
--------------------------------------------------------------------------

    Molecular point group: c1
  Charge       = -1
  Multiplicity = 1
  Basis Set: AUG-CC-PVTZ
    Blend: AUG-CC-PVTZ
  Basis Set: (AUG-CC-PVTZ AUX)
    Blend: AUG-CC-PVTZ-JKFIT

    Orbital Energies [Eh]
    ---------------------

    Doubly Occupied:

       1A    -20.384113     2A    -20.315614     3A    -20.307972
       4A    -11.151216     5A    -11.118811     6A    -11.073233
       7A     -1.204574     8A     -1.164621     9A     -1.079062
      10A     -0.863681    11A     -0.702941    12A     -0.567969
      13A     -0.499633    14A     -0.477867    15A     -0.436878
      16A     -0.405501    17A     -0.399524    18A     -0.372934
      19A     -0.367299    20A     -0.349114    21A     -0.280710
      22A     -0.231228    23A     -0.215404    24A     -0.210741

  @DF-RHF Final Energy:  -341.27924183629113

   => Energetics <=

    Nuclear Repulsion Energy =            238.7823920984480708
    One-Electron Energy =                -951.7619922191653359
    Two-Electron Energy =                 371.7003582844261018
    Total Energy =                       -341.2792418362911349
  Basis Set: (AUG-CC-PVTZ AUX)
    Blend: AUG-CC-PVTZ-RI
    Molecular point group: c1

    Geometry (in Angstrom), charge = -1, multiplicity = 1:

       Center              X                  Y                   Z               Mass
    ------------   -----------------  -----------------  -----------------  -----------------
         O           -1.207665354177     1.273997752922     0.142531744461    15.994914619570
         O            1.303380745823     0.992212852922    -0.362995355539    15.994914619570
         O            1.386664645823    -1.197296047078     0.173666244461    15.994914619570
         C           -0.712790354177    -0.041540247078     0.408501744461    12.000000000000
         C           -1.519082354177    -1.073010247078    -0.362351255539    12.000000000000
         C            0.786335645823    -0.098316247078     0.045941744461    12.000000000000
         H           -0.786756354177    -0.265383247078     1.487229744461     1.007825032230
         H           -1.413623354177    -0.887671247078    -1.435844255539     1.007825032230
         H           -1.155004354177    -2.077874247078    -0.140039255539     1.007825032230
         H           -2.578740354177    -1.010955247078    -0.097533255539     1.007825032230
         H           -0.380560354177     1.718830752922    -0.167631255539     1.007825032230

  Basis Set: AUG-CC-PVTZ
    Blend: AUG-CC-PVTZ
  Basis Set: (AUG-CC-PVTZ AUX)
    Blend: AUG-CC-PVTZ-JKFIT
	 Reference Energy          =    -341.2792418362911349 [Eh]
	 Singles Energy            =      -0.0000000000000000 [Eh]
	 Same-Spin Energy          =      -0.3363842320153584 [Eh]
	 Opposite-Spin Energy      =      -1.0189127571441434 [Eh]
	 Correlation Energy        =      -1.3552969891595019 [Eh]
	 Total Energy              =    -342.6345388254506474 [Eh]

	 ================> DF-SCS-MP2 Energies <==================
	-----------------------------------------------------------
	 SCS Same-Spin Scale       =       0.3333333333333333 [-]
	 SCS Opposite-Spin Scale   =       1.2000000000000000 [-]
	 SCS Same-Spin Energy      =      -0.1121280773384528 [Eh]
	 SCS Opposite-Spin Energy  =      -1.2226953085729722 [Eh]
	 SCS Correlation Energy    =      -1.3348233859114249 [Eh]
	 SCS Total Energy          =    -342.6140652222025551 [Eh]
	-----------------------------------------------------------

  Dipole Moment: [D]
     X:    -3.9188      Y:    -0.4705      Z:     0.3868     Total:     3.9658

*** Psi4 exiting successfully. Buy a developer a beer!
