                               Psi4 1.3.2 release

  ==> Input File <==

--------------------------------------------------------------------------
#psi4
#
memory 32 gb

molecule  {
-1 1
  O       -1.1345620     1.3004230     0.1446500
  O        1.4154059     0.9975870    -0.3653848
  O        1.4965638    -1.1515490     0.1615308
  C       -0.6396870    -0.0151150     0.4106200
  C       -1.4459790    -1.0465850    -0.3602330
  C        0.8594390    -0.0718910     0.0480600
  H       -0.7136530    -0.2389580     1.4893480
  H       -1.3405200    -0.8612460    -1.4337260
  H       -1.0819010    -2.0514490    -0.1379210
  H       -2.5056370    -0.9845300    -0.0954150
  H       -0.3074570     1.7452560    -0.1655130
units angstrom
no_reorient  #important for SAPT in psi4, default
symmetry c1  #important for SAPT in psi4, default
}

set PROPERTIES_ORIGIN ["COM"]
properties('MP2/aug-cc-pvtz', properties = ['dipole'])
--------------------------------------------------------------------------

    Molecular point group: c1
  Charge       = -1
  Multiplicity = 1
  Basis Set: AUG-CC-PVTZ
    Blend: AUG-CC-PVTZ
  Basis Set: (AUG-CC-PVTZ AUX)
    Blend: AUG-CC-PVTZ-JKFIT

    Orbital Energies [Eh]
    ---------------------

    Doubly Occupied:

       1A    -20.388739     2A    -20.311227     3A    -20.303668
       4A    -11.149069     5A    -11.123835     6A    -11.075871
       7A     -1.205456     8A     -1.166856     9A     -1.070855
      10A     -0.867005    11A     -0.706032    12A     -0.570853
      13A     -0.499233    14A     -0.477982    15A     -0.437556
      16A     -0.407896    17A     -0.397684    18A     -0.373853
      19A     -0.369799    20A     -0.348729    21A     -0.283885
      22A     -0.228854    23A     -0.212974    24A     -0.205291

  @DF-RHF Final Energy:  -341.27621948387207

   => Energetics <=

    Nuclear Repulsion Energy =            238.3347255696748448
    One-Electron Energy =                -950.8554904866498418
    Two-Electron Energy =                 371.2445454331028714
    Total Energy =                       -341.2762194838720688
  Basis Set: (AUG-CC-PVTZ AUX)
    Blend: AUG-CC-PVTZ-RI
    Molecular point group: c1

    Geometry (in Angstrom), charge = -1, multiplicity = 1:

       Center              X                  Y                   Z               Mass
    ------------   -----------------  -----------------  -----------------  -----------------
         O           -1.221269532028     1.274308456177     0.145902604371    15.994914619570
         O            1.328698367972     0.971472456177    -0.364132195629    15.994914619570
         O            1.409856267972    -1.177663543823     0.162783404371    15.994914619570
         C           -0.726394532028    -0.041229543823     0.411872604371    12.000000000000
         C           -1.532686532028    -1.072699543823    -0.358980395629    12.000000000000
         C            0.772731467972    -0.098005543823     0.049312604371    12.000000000000
         H           -0.800360532028    -0.265072543823     1.490600604371     1.007825032230
         H           -1.427227532028    -0.887360543823    -1.432473395629     1.007825032230
         H           -1.168608532028    -2.077563543823    -0.136668395629     1.007825032230
         H           -2.592344532028    -1.010644543823    -0.094162395629     1.007825032230
         H           -0.394164532028     1.719141456177    -0.164260395629     1.007825032230

  Basis Set: AUG-CC-PVTZ
    Blend: AUG-CC-PVTZ
  Basis Set: (AUG-CC-PVTZ AUX)
    Blend: AUG-CC-PVTZ-JKFIT
	 Reference Energy          =    -341.2762194838720688 [Eh]
	 Singles Energy            =      -0.0000000000000000 [Eh]
	 Same-Spin Energy          =      -0.3362699791340867 [Eh]
	 Opposite-Spin Energy      =      -1.0189221452241604 [Eh]
	 Correlation Energy        =      -1.3551921243582470 [Eh]
	 Total Energy              =    -342.6314116082303372 [Eh]

	 ================> DF-SCS-MP2 Energies <==================
	-----------------------------------------------------------
	 SCS Same-Spin Scale       =       0.3333333333333333 [-]
	 SCS Opposite-Spin Scale   =       1.2000000000000000 [-]
	 SCS Same-Spin Energy      =      -0.1120899930446956 [Eh]
	 SCS Opposite-Spin Energy  =      -1.2227065742689924 [Eh]
	 SCS Correlation Energy    =      -1.3347965673136879 [Eh]
	 SCS Total Energy          =    -342.6110160511857430 [Eh]
	-----------------------------------------------------------

  Dipole Moment: [D]
     X:    -4.1559      Y:    -0.4642      Z:     0.4265     Total:     4.2034

*** Psi4 exiting successfully. Buy a developer a beer!
