                               Psi4 1.3.2 release

  ==> Input File <==

--------------------------------------------------------------------------
#psi4
#
memory 32 gb

molecule  {
-1 1
  O       -1.1320654     1.2988506     0.1325204
  O        1.3567840     1.0286670    -0.3584360
  O        1.4410930    -1.1800310     0.1828540
  C       -0.6396870    -0.0151150     0.4106200
  C       -1.4459790    -1.0465850    -0.3602330
  C        0.8594390    -0.0718910     0.0480600
  H       -0.7098616    -0.2476725     1.4877566
  H       -1.3405200    -0.8612460    -1.4337260
  H       -1.0819010    -2.0514490    -0.1379210
  H       -2.5056370    -0.9845300    -0.0954150
  H       -0.3074570     1.7452560    -0.1655130
units angstrom
no_reorient  #important for SAPT in psi4, default
symmetry c1  #important for SAPT in psi4, default
}

set PROPERTIES_ORIGIN ["COM"]
properties('MP2/aug-cc-pvtz', properties = ['dipole'])
--------------------------------------------------------------------------

    Molecular point group: c1
  Charge       = -1
  Multiplicity = 1
  Basis Set: AUG-CC-PVTZ
    Blend: AUG-CC-PVTZ
  Basis Set: (AUG-CC-PVTZ AUX)
    Blend: AUG-CC-PVTZ-JKFIT

    Orbital Energies [Eh]
    ---------------------

    Doubly Occupied:

       1A    -20.381611     2A    -20.317365     3A    -20.309843
       4A    -11.152046     5A    -11.116396     6A    -11.071719
       7A     -1.204914     8A     -1.163741     9A     -1.082705
      10A     -0.862250    11A     -0.701545    12A     -0.566679
      13A     -0.501278    14A     -0.477591    15A     -0.436610
      16A     -0.404467    17A     -0.399774    18A     -0.372590
      19A     -0.366237    20A     -0.348919    21A     -0.279570
      22A     -0.233238    23A     -0.214837    24A     -0.213034

  @DF-RHF Final Energy:  -341.27989044204480

   => Energetics <=

    Nuclear Repulsion Energy =            239.1195786104433409
    One-Electron Energy =                -952.4410230094647432
    Two-Electron Energy =                 372.0415539569765997
    Total Energy =                       -341.2798904420448025
  Basis Set: (AUG-CC-PVTZ AUX)
    Blend: AUG-CC-PVTZ-RI
    Molecular point group: c1

    Geometry (in Angstrom), charge = -1, multiplicity = 1:

       Center              X                  Y                   Z               Mass
    ------------   -----------------  -----------------  -----------------  -----------------
         O           -1.198765387499     1.272650442136     0.130890716061    15.994914619570
         O            1.290084012501     1.002466842136    -0.360065683939    15.994914619570
         O            1.374393012501    -1.206231157864     0.181224316061    15.994914619570
         C           -0.706386987499    -0.041315157864     0.408990316061    12.000000000000
         C           -1.512678987499    -1.072785157864    -0.361862683939    12.000000000000
         C            0.792739012501    -0.098091157864     0.046430316061    12.000000000000
         H           -0.776561587499    -0.273872657864     1.486126916061     1.007825032230
         H           -1.407219987499    -0.887446157864    -1.435355683939     1.007825032230
         H           -1.148600987499    -2.077649157864    -0.139550683939     1.007825032230
         H           -2.572336987499    -1.010730157864    -0.097044683939     1.007825032230
         H           -0.374156987499     1.719055842136    -0.167142683939     1.007825032230

  Basis Set: AUG-CC-PVTZ
    Blend: AUG-CC-PVTZ
  Basis Set: (AUG-CC-PVTZ AUX)
    Blend: AUG-CC-PVTZ-JKFIT
	 Reference Energy          =    -341.2798904420448025 [Eh]
	 Singles Energy            =      -0.0000000000000000 [Eh]
	 Same-Spin Energy          =      -0.3364125166445694 [Eh]
	 Opposite-Spin Energy      =      -1.0188072533831243 [Eh]
	 Correlation Energy        =      -1.3552197700276936 [Eh]
	 Total Energy              =    -342.6351102120725045 [Eh]

	 ================> DF-SCS-MP2 Energies <==================
	-----------------------------------------------------------
	 SCS Same-Spin Scale       =       0.3333333333333333 [-]
	 SCS Opposite-Spin Scale   =       1.2000000000000000 [-]
	 SCS Same-Spin Energy      =      -0.1121375055481898 [Eh]
	 SCS Opposite-Spin Energy  =      -1.2225687040597490 [Eh]
	 SCS Correlation Energy    =      -1.3347062096079387 [Eh]
	 SCS Total Energy          =    -342.6145966516527324 [Eh]
	-----------------------------------------------------------

  Dipole Moment: [D]
     X:    -3.8064      Y:    -0.4658      Z:     0.3828     Total:     3.8539

*** Psi4 exiting successfully. Buy a developer a beer!
