                               Psi4 1.3.2 release

  ==> Input File <==

--------------------------------------------------------------------------
#psi4
#
memory 32 gb

molecule  {
-1 1
  O       -1.1795981     1.2857224     0.1604209
  O        1.3567840     1.0286670    -0.3584360
  O        1.4410930    -1.1800310     0.1828540
  C       -0.6396870    -0.0151150     0.4106200
  C       -1.4459790    -1.0465850    -0.3602330
  C        0.8601852    -0.1235741     0.0632412
  H       -0.7136530    -0.2389580     1.4893480
  H       -1.3405200    -0.8612460    -1.4337260
  H       -1.0819010    -2.0514490    -0.1379210
  H       -2.5056370    -0.9845300    -0.0954150
  H       -0.3074570     1.7452560    -0.1655130
units angstrom
no_reorient  #important for SAPT in psi4, default
symmetry c1  #important for SAPT in psi4, default
}

set PROPERTIES_ORIGIN ["COM"]
properties('MP2/aug-cc-pvtz', properties = ['dipole'])
--------------------------------------------------------------------------

    Molecular point group: c1
  Charge       = -1
  Multiplicity = 1
  Basis Set: AUG-CC-PVTZ
    Blend: AUG-CC-PVTZ
  Basis Set: (AUG-CC-PVTZ AUX)
    Blend: AUG-CC-PVTZ-JKFIT

    Orbital Energies [Eh]
    ---------------------

    Doubly Occupied:

       1A    -20.383660     2A    -20.324221     3A    -20.308388
       4A    -11.153881     5A    -11.115407     6A    -11.071250
       7A     -1.204796     8A     -1.169147     9A     -1.072759
      10A     -0.860969    11A     -0.700577    12A     -0.559993
      13A     -0.496354    14A     -0.478932    15A     -0.435943
      16A     -0.404598    17A     -0.396923    18A     -0.376817
      19A     -0.365803    20A     -0.353017    21A     -0.274928
      22A     -0.228686    23A     -0.217264    24A     -0.215105

  @DF-RHF Final Energy:  -341.27039080282066

   => Energetics <=

    Nuclear Repulsion Energy =            238.4890029706970154
    One-Electron Energy =                -951.1799535602025344
    Two-Electron Energy =                 371.4205597866848620
    Total Energy =                       -341.2703908028206570
  Basis Set: (AUG-CC-PVTZ AUX)
    Blend: AUG-CC-PVTZ-RI
    Molecular point group: c1

    Geometry (in Angstrom), charge = -1, multiplicity = 1:

       Center              X                  Y                   Z               Mass
    ------------   -----------------  -----------------  -----------------  -----------------
         O           -1.237815551812     1.268748969258     0.151713963915    15.994914619570
         O            1.298566548188     1.011693569258    -0.367142936085    15.994914619570
         O            1.382875548188    -1.197004430742     0.174147063915    15.994914619570
         C           -0.697904451812    -0.032088430742     0.401913063915    12.000000000000
         C           -1.504196451812    -1.063558430742    -0.368939936085    12.000000000000
         C            0.801967748188    -0.140547530742     0.054534263915    12.000000000000
         H           -0.771870451812    -0.255931430742     1.480641063915     1.007825032230
         H           -1.398737451812    -0.878219430742    -1.442432936085     1.007825032230
         H           -1.140118451812    -2.068422430742    -0.146627936085     1.007825032230
         H           -2.563854451812    -1.001503430742    -0.104121936085     1.007825032230
         H           -0.365674451812     1.728282569258    -0.174219936085     1.007825032230

  Basis Set: AUG-CC-PVTZ
    Blend: AUG-CC-PVTZ
  Basis Set: (AUG-CC-PVTZ AUX)
    Blend: AUG-CC-PVTZ-JKFIT
	 Reference Energy          =    -341.2703908028206570 [Eh]
	 Singles Energy            =      -0.0000000000000000 [Eh]
	 Same-Spin Energy          =      -0.3374429647009483 [Eh]
	 Opposite-Spin Energy      =      -1.0210007827295526 [Eh]
	 Correlation Energy        =      -1.3584437474305009 [Eh]
	 Total Energy              =    -342.6288345502511561 [Eh]

	 ================> DF-SCS-MP2 Energies <==================
	-----------------------------------------------------------
	 SCS Same-Spin Scale       =       0.3333333333333333 [-]
	 SCS Opposite-Spin Scale   =       1.2000000000000000 [-]
	 SCS Same-Spin Energy      =      -0.1124809882336494 [Eh]
	 SCS Opposite-Spin Energy  =      -1.2252009392754630 [Eh]
	 SCS Correlation Energy    =      -1.3376819275091125 [Eh]
	 SCS Total Energy          =    -342.6080727303297522 [Eh]
	-----------------------------------------------------------

  Dipole Moment: [D]
     X:    -3.6381      Y:    -1.0197      Z:     0.4760     Total:     3.8082

*** Psi4 exiting successfully. Buy a developer a beer!
