                               Psi4 1.3.2 release

  ==> Input File <==

--------------------------------------------------------------------------
#psi4
#
memory 32 gb

molecule  {
-1 1
  O       -1.1345620     1.3004230     0.1446500
  O        1.3567840     1.0286670    -0.3584360
  O        1.4410930    -1.1800310     0.1828540
  C       -0.6396870    -0.0151150     0.4106200
  C       -1.4459790    -1.0465850    -0.3602330
  C        0.7623070    -0.0682123     0.0715511
  H       -0.7136530    -0.2389580     1.4893480
  H       -1.3405200    -0.8612460    -1.4337260
  H       -1.0819010    -2.0514490    -0.1379210
  H       -2.5056370    -0.9845300    -0.0954150
  H       -0.3074570     1.7452560    -0.1655130
units angstrom
no_reorient  #important for SAPT in psi4, default
symmetry c1  #important for SAPT in psi4, default
}

set PROPERTIES_ORIGIN ["COM"]
properties('MP2/aug-cc-pvtz', properties = ['dipole'])
--------------------------------------------------------------------------

    Molecular point group: c1
  Charge       = -1
  Multiplicity = 1
  Basis Set: AUG-CC-PVTZ
    Blend: AUG-CC-PVTZ
  Basis Set: (AUG-CC-PVTZ AUX)
    Blend: AUG-CC-PVTZ-JKFIT

    Orbital Energies [Eh]
    ---------------------

    Doubly Occupied:

       1A    -20.387285     2A    -20.316236     3A    -20.307278
       4A    -11.157189     5A    -11.123567     6A    -11.079083
       7A     -1.205680     8A     -1.145386     9A     -1.052094
      10A     -0.878144    11A     -0.730244    12A     -0.580327
      13A     -0.502962    14A     -0.475369    15A     -0.443627
      16A     -0.410053    17A     -0.393960    18A     -0.367756
      19A     -0.362438    20A     -0.332533    21A     -0.283964
      22A     -0.239276    23A     -0.212411    24A     -0.201061

  @DF-RHF Final Energy:  -341.25827023371329

   => Energetics <=

    Nuclear Repulsion Energy =            239.2459082675838147
    One-Electron Energy =                -952.6325027148026265
    Two-Electron Energy =                 372.1283242135055502
    Total Energy =                       -341.2582702337132901
  Basis Set: (AUG-CC-PVTZ AUX)
    Blend: AUG-CC-PVTZ-RI
    Molecular point group: c1

    Geometry (in Angstrom), charge = -1, multiplicity = 1:

       Center              X                  Y                   Z               Mass
    ------------   -----------------  -----------------  -----------------  -----------------
         O           -1.187677563625     1.273345802125     0.137656485277    15.994914619570
         O            1.303668436375     1.001589802125    -0.365429514723    15.994914619570
         O            1.387977436375    -1.207108197875     0.175860485277    15.994914619570
         C           -0.692802563625    -0.042192197875     0.403626485277    12.000000000000
         C           -1.499094563625    -1.073662197875    -0.367226514723    12.000000000000
         C            0.709191436375    -0.095289497875     0.064557585277    12.000000000000
         H           -0.766768563625    -0.266035197875     1.482354485277     1.007825032230
         H           -1.393635563625    -0.888323197875    -1.440719514723     1.007825032230
         H           -1.135016563625    -2.078526197875    -0.144914514723     1.007825032230
         H           -2.558752563625    -1.011607197875    -0.102408514723     1.007825032230
         H           -0.360572563625     1.718178802125    -0.172506514723     1.007825032230

  Basis Set: AUG-CC-PVTZ
    Blend: AUG-CC-PVTZ
  Basis Set: (AUG-CC-PVTZ AUX)
    Blend: AUG-CC-PVTZ-JKFIT
	 Reference Energy          =    -341.2582702337132901 [Eh]
	 Singles Energy            =      -0.0000000000000000 [Eh]
	 Same-Spin Energy          =      -0.3388875996983947 [Eh]
	 Opposite-Spin Energy      =      -1.0240251269272611 [Eh]
	 Correlation Energy        =      -1.3629127266256558 [Eh]
	 Total Energy              =    -342.6211829603389560 [Eh]

	 ================> DF-SCS-MP2 Energies <==================
	-----------------------------------------------------------
	 SCS Same-Spin Scale       =       0.3333333333333333 [-]
	 SCS Opposite-Spin Scale   =       1.2000000000000000 [-]
	 SCS Same-Spin Energy      =      -0.1129625332327982 [Eh]
	 SCS Opposite-Spin Energy  =      -1.2288301523127132 [Eh]
	 SCS Correlation Energy    =      -1.3417926855455113 [Eh]
	 SCS Total Energy          =    -342.6000629192587894 [Eh]
	-----------------------------------------------------------

  Dipole Moment: [D]
     X:    -4.3302      Y:    -0.4820      Z:     0.4591     Total:     4.3811

*** Psi4 exiting successfully. Buy a developer a beer!
