                               Psi4 1.3.2 release

  ==> Input File <==

--------------------------------------------------------------------------
#psi4
#
memory 32 gb

molecule  {
-1 1
  O       -1.1345620     1.3004230     0.1446500
  O        1.3567840     1.0286670    -0.3584360
  O        1.4410930    -1.1800310     0.1828540
  C       -0.6435445    -0.0206973     0.4220104
  C       -1.4459790    -1.0465850    -0.3602330
  C        0.8594390    -0.0718910     0.0480600
  H       -0.7136530    -0.2389580     1.4893480
  H       -1.3462200    -0.8686944    -1.4355295
  H       -1.0819010    -2.0514490    -0.1379210
  H       -2.5056370    -0.9845300    -0.0954150
  H       -0.3074570     1.7452560    -0.1655130
units angstrom
no_reorient  #important for SAPT in psi4, default
symmetry c1  #important for SAPT in psi4, default
}

set PROPERTIES_ORIGIN ["COM"]
properties('MP2/aug-cc-pvtz', properties = ['dipole'])
--------------------------------------------------------------------------

    Molecular point group: c1
  Charge       = -1
  Multiplicity = 1
  Basis Set: AUG-CC-PVTZ
    Blend: AUG-CC-PVTZ
  Basis Set: (AUG-CC-PVTZ AUX)
    Blend: AUG-CC-PVTZ-JKFIT

    Orbital Energies [Eh]
    ---------------------

    Doubly Occupied:

       1A    -20.380730     2A    -20.317784     3A    -20.310004
       4A    -11.152540     5A    -11.115833     6A    -11.071976
       7A     -1.202591     8A     -1.162054     9A     -1.082820
      10A     -0.862063    11A     -0.701487    12A     -0.565586
      13A     -0.500736    14A     -0.476868    15A     -0.435687
      16A     -0.404647    17A     -0.400727    18A     -0.371106
      19A     -0.365481    20A     -0.349141    21A     -0.280736
      22A     -0.233355    23A     -0.214266    24A     -0.213244

  @DF-RHF Final Energy:  -341.27953575574770

   => Energetics <=

    Nuclear Repulsion Energy =            238.8642920115536867
    One-Electron Energy =                -951.9447305148278247
    Two-Electron Energy =                 371.8009027475263792
    Total Energy =                       -341.2795357557477018
  Basis Set: (AUG-CC-PVTZ AUX)
    Blend: AUG-CC-PVTZ-RI
    Molecular point group: c1

    Geometry (in Angstrom), charge = -1, multiplicity = 1:

       Center              X                  Y                   Z               Mass
    ------------   -----------------  -----------------  -----------------  -----------------
         O           -1.200185999954     1.274678463638     0.139308020018    15.994914619570
         O            1.291160000046     1.002922463638    -0.363777979982    15.994914619570
         O            1.375469000046    -1.205775536362     0.177512020018    15.994914619570
         C           -0.709168499954    -0.046441836362     0.416668420018    12.000000000000
         C           -1.511602999954    -1.072329536362    -0.365574979982    12.000000000000
         C            0.793815000046    -0.097635536362     0.042718020018    12.000000000000
         H           -0.779276999954    -0.264702536362     1.484006020018     1.007825032230
         H           -1.411843999954    -0.894438936362    -1.440871479982     1.007825032230
         H           -1.147524999954    -2.077193536362    -0.143262979982     1.007825032230
         H           -2.571260999954    -1.010274536362    -0.100756979982     1.007825032230
         H           -0.373080999954     1.719511463638    -0.170854979982     1.007825032230

  Basis Set: AUG-CC-PVTZ
    Blend: AUG-CC-PVTZ
  Basis Set: (AUG-CC-PVTZ AUX)
    Blend: AUG-CC-PVTZ-JKFIT
	 Reference Energy          =    -341.2795357557477018 [Eh]
	 Singles Energy            =      -0.0000000000000000 [Eh]
	 Same-Spin Energy          =      -0.3364483715003277 [Eh]
	 Opposite-Spin Energy      =      -1.0190133510805210 [Eh]
	 Correlation Energy        =      -1.3554617225808487 [Eh]
	 Total Energy              =    -342.6349974783285575 [Eh]

	 ================> DF-SCS-MP2 Energies <==================
	-----------------------------------------------------------
	 SCS Same-Spin Scale       =       0.3333333333333333 [-]
	 SCS Opposite-Spin Scale   =       1.2000000000000000 [-]
	 SCS Same-Spin Energy      =      -0.1121494571667759 [Eh]
	 SCS Opposite-Spin Energy  =      -1.2228160212966253 [Eh]
	 SCS Correlation Energy    =      -1.3349654784634011 [Eh]
	 SCS Total Energy          =    -342.6145012342111045 [Eh]
	-----------------------------------------------------------

  Dipole Moment: [D]
     X:    -3.7900      Y:    -0.5007      Z:     0.3904     Total:     3.8428

*** Psi4 exiting successfully. Buy a developer a beer!
