                               Psi4 1.3.2 release

  ==> Input File <==

--------------------------------------------------------------------------
#psi4
#
memory 32 gb

molecule  {
-1 1
  O       -1.1118144     1.3071733     0.1368849
  O        1.3567840     1.0286670    -0.3584360
  O        1.4410930    -1.1800310     0.1828540
  C       -0.6396870    -0.0151150     0.4106200
  C       -1.4459790    -1.0465850    -0.3602330
  C        0.8583808    -0.0460196     0.0406339
  H       -0.7136530    -0.2389580     1.4893480
  H       -1.3405200    -0.8612460    -1.4337260
  H       -1.0819010    -2.0514490    -0.1379210
  H       -2.5056370    -0.9845300    -0.0954150
  H       -0.3074570     1.7452560    -0.1655130
units angstrom
no_reorient  #important for SAPT in psi4, default
symmetry c1  #important for SAPT in psi4, default
}

set PROPERTIES_ORIGIN ["COM"]
properties('MP2/aug-cc-pvtz', properties = ['dipole'])
--------------------------------------------------------------------------

    Molecular point group: c1
  Charge       = -1
  Multiplicity = 1
  Basis Set: AUG-CC-PVTZ
    Blend: AUG-CC-PVTZ
  Basis Set: (AUG-CC-PVTZ AUX)
    Blend: AUG-CC-PVTZ-JKFIT

    Orbital Energies [Eh]
    ---------------------

    Doubly Occupied:

       1A    -20.380448     2A    -20.322492     3A    -20.302924
       4A    -11.151164     5A    -11.116831     6A    -11.072229
       7A     -1.210888     8A     -1.164693     9A     -1.079312
      10A     -0.862636    11A     -0.702132    12A     -0.570349
      13A     -0.503737    14A     -0.477921    15A     -0.437128
      16A     -0.405664    17A     -0.400921    18A     -0.372637
      19A     -0.364730    20A     -0.349489    21A     -0.281342
      22A     -0.234548    23A     -0.211757    24A     -0.210486

  @DF-RHF Final Energy:  -341.27935109098519

   => Energetics <=

    Nuclear Repulsion Energy =            239.3549247469872796
    One-Electron Energy =                -952.8956314775085730
    Two-Electron Energy =                 372.2613556395360774
    Total Energy =                       -341.2793510909851875
  Basis Set: (AUG-CC-PVTZ AUX)
    Blend: AUG-CC-PVTZ-RI
    Molecular point group: c1

    Geometry (in Angstrom), charge = -1, multiplicity = 1:

       Center              X                  Y                   Z               Mass
    ------------   -----------------  -----------------  -----------------  -----------------
         O           -1.181967321544     1.275891804151     0.135454034003    15.994914619570
         O            1.286631078456     0.997385504151    -0.359866865997    15.994914619570
         O            1.370940078456    -1.211312495849     0.181423134003    15.994914619570
         C           -0.709839921544    -0.046396495849     0.409189134003    12.000000000000
         C           -1.516131921544    -1.077866495849    -0.361663865997    12.000000000000
         C            0.788227878456    -0.077301095849     0.039203034003    12.000000000000
         H           -0.783805921544    -0.270239495849     1.487917134003     1.007825032230
         H           -1.410672921544    -0.892527495849    -1.435156865997     1.007825032230
         H           -1.152053921544    -2.082730495849    -0.139351865997     1.007825032230
         H           -2.575789921544    -1.015811495849    -0.096845865997     1.007825032230
         H           -0.377609921544     1.713974504151    -0.166943865997     1.007825032230

  Basis Set: AUG-CC-PVTZ
    Blend: AUG-CC-PVTZ
  Basis Set: (AUG-CC-PVTZ AUX)
    Blend: AUG-CC-PVTZ-JKFIT
	 Reference Energy          =    -341.2793510909851875 [Eh]
	 Singles Energy            =      -0.0000000000000000 [Eh]
	 Same-Spin Energy          =      -0.3360356375401689 [Eh]
	 Opposite-Spin Energy      =      -1.0180817685656303 [Eh]
	 Correlation Energy        =      -1.3541174061057992 [Eh]
	 Total Energy              =    -342.6334684970909734 [Eh]

	 ================> DF-SCS-MP2 Energies <==================
	-----------------------------------------------------------
	 SCS Same-Spin Scale       =       0.3333333333333333 [-]
	 SCS Opposite-Spin Scale   =       1.2000000000000000 [-]
	 SCS Same-Spin Energy      =      -0.1120118791800563 [Eh]
	 SCS Opposite-Spin Energy  =      -1.2216981222787562 [Eh]
	 SCS Correlation Energy    =      -1.3337100014588126 [Eh]
	 SCS Total Energy          =    -342.6130610924440134 [Eh]
	-----------------------------------------------------------

  Dipole Moment: [D]
     X:    -3.8805      Y:    -0.2031      Z:     0.3127     Total:     3.8984

*** Psi4 exiting successfully. Buy a developer a beer!
