                               Psi4 1.3.2 release

  ==> Input File <==

--------------------------------------------------------------------------
#psi4
#
memory 32 gb

molecule  {
-1 1
  O       -1.1345620     1.3004230     0.1446500
  O        1.3567840     1.0286670    -0.3584360
  O        1.4031946    -1.1973588     0.1967784
  C       -0.6376176    -0.0674166     0.4233647
  C       -1.4459790    -1.0465850    -0.3602330
  C        0.8594390    -0.0718910     0.0480600
  H       -0.7136530    -0.2389580     1.4893480
  H       -1.3405200    -0.8612460    -1.4337260
  H       -1.0819010    -2.0514490    -0.1379210
  H       -2.5056370    -0.9845300    -0.0954150
  H       -0.3074570     1.7452560    -0.1655130
units angstrom
no_reorient  #important for SAPT in psi4, default
symmetry c1  #important for SAPT in psi4, default
}

set PROPERTIES_ORIGIN ["COM"]
properties('MP2/aug-cc-pvtz', properties = ['dipole'])
--------------------------------------------------------------------------

    Molecular point group: c1
  Charge       = -1
  Multiplicity = 1
  Basis Set: AUG-CC-PVTZ
    Blend: AUG-CC-PVTZ
  Basis Set: (AUG-CC-PVTZ AUX)
    Blend: AUG-CC-PVTZ-JKFIT

    Orbital Energies [Eh]
    ---------------------

    Doubly Occupied:

       1A    -20.373857     2A    -20.320840     3A    -20.311217
       4A    -11.154258     5A    -11.113828     6A    -11.071685
       7A     -1.196195     8A     -1.150811     9A     -1.086722
      10A     -0.868733    11A     -0.701694    12A     -0.560482
      13A     -0.498919    14A     -0.475366    15A     -0.435412
      16A     -0.405815    17A     -0.402232    18A     -0.367993
      19A     -0.359018    20A     -0.347259    21A     -0.282785
      22A     -0.236327    23A     -0.215614    24A     -0.213669

  @DF-RHF Final Energy:  -341.27530968452845

   => Energetics <=

    Nuclear Repulsion Energy =            238.9048215307661280
    One-Electron Energy =                -952.0587958622027145
    Two-Electron Energy =                 371.8786646469080779
    Total Energy =                       -341.2753096845284517
  Basis Set: (AUG-CC-PVTZ AUX)
    Blend: AUG-CC-PVTZ-RI
    Molecular point group: c1

    Geometry (in Angstrom), charge = -1, multiplicity = 1:

       Center              X                  Y                   Z               Mass
    ------------   -----------------  -----------------  -----------------  -----------------
         O           -1.194240243210     1.284004969066     0.136603253260    15.994914619570
         O            1.297105756790     1.012248969066    -0.366482746740    15.994914619570
         O            1.343516356790    -1.213776830934     0.188731653260    15.994914619570
         C           -0.697295843210    -0.083834630934     0.415317953260    12.000000000000
         C           -1.505657243210    -1.063003030934    -0.368279746740    12.000000000000
         C            0.799760756790    -0.088309030934     0.040013253260    12.000000000000
         H           -0.773331243210    -0.255376030934     1.481301253260     1.007825032230
         H           -1.400198243210    -0.877664030934    -1.441772746740     1.007825032230
         H           -1.141579243210    -2.067867030934    -0.145967746740     1.007825032230
         H           -2.565315243210    -1.000948030934    -0.103461746740     1.007825032230
         H           -0.367135243210     1.728837969066    -0.173559746740     1.007825032230

  Basis Set: AUG-CC-PVTZ
    Blend: AUG-CC-PVTZ
  Basis Set: (AUG-CC-PVTZ AUX)
    Blend: AUG-CC-PVTZ-JKFIT
	 Reference Energy          =    -341.2753096845284517 [Eh]
	 Singles Energy            =      -0.0000000000000000 [Eh]
	 Same-Spin Energy          =      -0.3367918322288190 [Eh]
	 Opposite-Spin Energy      =      -1.0201429521639356 [Eh]
	 Correlation Energy        =      -1.3569347843927546 [Eh]
	 Total Energy              =    -342.6322444689212148 [Eh]

	 ================> DF-SCS-MP2 Energies <==================
	-----------------------------------------------------------
	 SCS Same-Spin Scale       =       0.3333333333333333 [-]
	 SCS Opposite-Spin Scale   =       1.2000000000000000 [-]
	 SCS Same-Spin Energy      =      -0.1122639440762730 [Eh]
	 SCS Opposite-Spin Energy  =      -1.2241715425967226 [Eh]
	 SCS Correlation Energy    =      -1.3364354866729955 [Eh]
	 SCS Total Energy          =    -342.6117451712014486 [Eh]
	-----------------------------------------------------------

  Dipole Moment: [D]
     X:    -3.6640      Y:    -0.6786      Z:     0.3747     Total:     3.7451

*** Psi4 exiting successfully. Buy a developer a beer!
