                               Psi4 1.3.2 release

  ==> Input File <==

--------------------------------------------------------------------------
#psi4
#
memory 32 gb

molecule  {
-1 1
  O       -1.1345620     1.3004230     0.1446500
  O        1.3567840     1.0286670    -0.3584360
  O        1.4410930    -1.1800310     0.1828540
  C       -0.6396870    -0.0151150     0.4106200
  C       -1.4459790    -1.0465850    -0.3602330
  C        0.7670217     0.1041782     0.0266430
  H       -0.7136530    -0.2389580     1.4893480
  H       -1.3405200    -0.8612460    -1.4337260
  H       -1.0819010    -2.0514490    -0.1379210
  H       -2.5056370    -0.9845300    -0.0954150
  H       -0.3074570     1.7452560    -0.1655130
units angstrom
no_reorient  #important for SAPT in psi4, default
symmetry c1  #important for SAPT in psi4, default
}

set PROPERTIES_ORIGIN ["COM"]
properties('MP2/aug-cc-pvtz', properties = ['dipole'])
--------------------------------------------------------------------------

    Molecular point group: c1
  Charge       = -1
  Multiplicity = 1
  Basis Set: AUG-CC-PVTZ
    Blend: AUG-CC-PVTZ
  Basis Set: (AUG-CC-PVTZ AUX)
    Blend: AUG-CC-PVTZ-JKFIT

    Orbital Energies [Eh]
    ---------------------

    Doubly Occupied:

       1A    -20.391526     2A    -20.356756     3A    -20.267207
       4A    -11.151982     5A    -11.125278     6A    -11.076644
       7A     -1.256841     8A     -1.189041     9A     -0.995877
      10A     -0.867658    11A     -0.725563    12A     -0.588711
      13A     -0.519883    14A     -0.493850    15A     -0.447351
      16A     -0.415766    17A     -0.397889    18A     -0.376903
      19A     -0.368337    20A     -0.363565    21A     -0.290982
      22A     -0.218812    23A     -0.183779    24A     -0.176323

  @DF-RHF Final Energy:  -341.22181471612208

   => Energetics <=

    Nuclear Repulsion Energy =            239.8689824302636850
    One-Electron Energy =                -953.6885468194448094
    Two-Electron Energy =                 372.5977496730590133
    Total Energy =                       -341.2218147161220827
  Basis Set: (AUG-CC-PVTZ AUX)
    Blend: AUG-CC-PVTZ-RI
    Molecular point group: c1

    Geometry (in Angstrom), charge = -1, multiplicity = 1:

       Center              X                  Y                   Z               Mass
    ------------   -----------------  -----------------  -----------------  -----------------
         O           -1.188313083072     1.250108371279     0.143709886527    15.994914619570
         O            1.303032916928     0.978352371279    -0.359376113473    15.994914619570
         O            1.387341916928    -1.230345628721     0.181913886527    15.994914619570
         C           -0.693438083072    -0.065429628721     0.409679886527    12.000000000000
         C           -1.499730083072    -1.096899628721    -0.361173113473    12.000000000000
         C            0.713270616928     0.053863571279     0.025702886527    12.000000000000
         H           -0.767404083072    -0.289272628721     1.488407886527     1.007825032230
         H           -1.394271083072    -0.911560628721    -1.434666113473     1.007825032230
         H           -1.135652083072    -2.101763628721    -0.138861113473     1.007825032230
         H           -2.559388083072    -1.034844628721    -0.096355113473     1.007825032230
         H           -0.361208083072     1.694941371279    -0.166453113473     1.007825032230

  Basis Set: AUG-CC-PVTZ
    Blend: AUG-CC-PVTZ
  Basis Set: (AUG-CC-PVTZ AUX)
    Blend: AUG-CC-PVTZ-JKFIT
	 Reference Energy          =    -341.2218147161220827 [Eh]
	 Singles Energy            =      -0.0000000000000000 [Eh]
	 Same-Spin Energy          =      -0.3382034762686899 [Eh]
	 Opposite-Spin Energy      =      -1.0235052491859888 [Eh]
	 Correlation Energy        =      -1.3617087254546787 [Eh]
	 Total Energy              =    -342.5835234415767445 [Eh]

	 ================> DF-SCS-MP2 Energies <==================
	-----------------------------------------------------------
	 SCS Same-Spin Scale       =       0.3333333333333333 [-]
	 SCS Opposite-Spin Scale   =       1.2000000000000000 [-]
	 SCS Same-Spin Energy      =      -0.1127344920895633 [Eh]
	 SCS Opposite-Spin Energy  =      -1.2282062990231866 [Eh]
	 SCS Correlation Energy    =      -1.3409407911127498 [Eh]
	 SCS Total Energy          =    -342.5627555072348400 [Eh]
	-----------------------------------------------------------

  Dipole Moment: [D]
     X:    -4.5113      Y:     1.2826      Z:     0.0519     Total:     4.6904

*** Psi4 exiting successfully. Buy a developer a beer!
