                               Psi4 1.3.2 release

  ==> Input File <==

--------------------------------------------------------------------------
#psi4
#
memory 32 gb

molecule  {
-1 1
  O       -1.1345620     1.3004230     0.1446500
  O        1.3369212     1.0383493    -0.3559155
  O        1.4410930    -1.1800310     0.1828540
  C       -0.6400489     0.0110017     0.4040333
  C       -1.4459790    -1.0465850    -0.3602330
  C        0.8594390    -0.0718910     0.0480600
  H       -0.7136530    -0.2389580     1.4893480
  H       -1.3405200    -0.8612460    -1.4337260
  H       -1.0819010    -2.0514490    -0.1379210
  H       -2.5056370    -0.9845300    -0.0954150
  H       -0.3074570     1.7452560    -0.1655130
units angstrom
no_reorient  #important for SAPT in psi4, default
symmetry c1  #important for SAPT in psi4, default
}

set PROPERTIES_ORIGIN ["COM"]
properties('MP2/aug-cc-pvtz', properties = ['dipole'])
--------------------------------------------------------------------------

    Molecular point group: c1
  Charge       = -1
  Multiplicity = 1
  Basis Set: AUG-CC-PVTZ
    Blend: AUG-CC-PVTZ
  Basis Set: (AUG-CC-PVTZ AUX)
    Blend: AUG-CC-PVTZ-JKFIT

    Orbital Energies [Eh]
    ---------------------

    Doubly Occupied:

       1A    -20.383067     2A    -20.318322     3A    -20.311641
       4A    -11.152637     5A    -11.115348     6A    -11.070614
       7A     -1.210756     8A     -1.167113     9A     -1.084978
      10A     -0.856914    11A     -0.699756    12A     -0.569310
      13A     -0.501152    14A     -0.478596    15A     -0.438038
      16A     -0.404525    17A     -0.398969    18A     -0.376782
      19A     -0.364362    20A     -0.350164    21A     -0.274230
      22A     -0.234709    23A     -0.215086    24A     -0.214263

  @DF-RHF Final Energy:  -341.27960891991171

   => Energetics <=

    Nuclear Repulsion Energy =            239.3743078291774680
    One-Electron Energy =                -952.9251725380569269
    Two-Electron Energy =                 372.2712557889677214
    Total Energy =                       -341.2796089199117091
  Basis Set: (AUG-CC-PVTZ AUX)
    Blend: AUG-CC-PVTZ-RI
    Molecular point group: c1

    Geometry (in Angstrom), charge = -1, multiplicity = 1:

       Center              X                  Y                   Z               Mass
    ------------   -----------------  -----------------  -----------------  -----------------
         O           -1.197152970830     1.268581646551     0.141257973521    15.994914619570
         O            1.274330229170     1.006507946551    -0.359307526479    15.994914619570
         O            1.378502029170    -1.211872353449     0.179461973521    15.994914619570
         C           -0.702639870830    -0.020839653449     0.400641273521    12.000000000000
         C           -1.508569970830    -1.078426353449    -0.363625026479    12.000000000000
         C            0.796848029170    -0.103732353449     0.044667973521    12.000000000000
         H           -0.776243970830    -0.270799353449     1.485955973521     1.007825032230
         H           -1.403110970830    -0.893087353449    -1.437118026479     1.007825032230
         H           -1.144491970830    -2.083290353449    -0.141313026479     1.007825032230
         H           -2.568227970830    -1.016371353449    -0.098807026479     1.007825032230
         H           -0.370047970830     1.713414646551    -0.168905026479     1.007825032230

  Basis Set: AUG-CC-PVTZ
    Blend: AUG-CC-PVTZ
  Basis Set: (AUG-CC-PVTZ AUX)
    Blend: AUG-CC-PVTZ-JKFIT
	 Reference Energy          =    -341.2796089199117091 [Eh]
	 Singles Energy            =      -0.0000000000000000 [Eh]
	 Same-Spin Energy          =      -0.3365549924800580 [Eh]
	 Opposite-Spin Energy      =      -1.0186885262199805 [Eh]
	 Correlation Energy        =      -1.3552435187000385 [Eh]
	 Total Energy              =    -342.6348524386117447 [Eh]

	 ================> DF-SCS-MP2 Energies <==================
	-----------------------------------------------------------
	 SCS Same-Spin Scale       =       0.3333333333333333 [-]
	 SCS Opposite-Spin Scale   =       1.2000000000000000 [-]
	 SCS Same-Spin Energy      =      -0.1121849974933527 [Eh]
	 SCS Opposite-Spin Energy  =      -1.2224262314639767 [Eh]
	 SCS Correlation Energy    =      -1.3346112289573293 [Eh]
	 SCS Total Energy          =    -342.6142201488690375 [Eh]
	-----------------------------------------------------------

  Dipole Moment: [D]
     X:    -3.7365      Y:    -0.3738      Z:     0.3389     Total:     3.7704

*** Psi4 exiting successfully. Buy a developer a beer!
