                               Psi4 1.3.2 release

  ==> Input File <==

--------------------------------------------------------------------------
#psi4
#
memory 32 gb

molecule  {
-1 1
  O       -1.1345620     1.3004230     0.1446500
  O        1.3960491     1.0082997    -0.3631048
  O        1.4410930    -1.1800310     0.1828540
  C       -0.6375936    -0.0673923     0.4234601
  C       -1.4459790    -1.0465850    -0.3602330
  C        0.8594390    -0.0718910     0.0480600
  H       -0.7136530    -0.2389580     1.4893480
  H       -1.3405200    -0.8612460    -1.4337260
  H       -1.0819010    -2.0514490    -0.1379210
  H       -2.5056370    -0.9845300    -0.0954150
  H       -0.3074570     1.7452560    -0.1655130
units angstrom
no_reorient  #important for SAPT in psi4, default
symmetry c1  #important for SAPT in psi4, default
}

set PROPERTIES_ORIGIN ["COM"]
properties('MP2/aug-cc-pvtz', properties = ['dipole'])
--------------------------------------------------------------------------

    Molecular point group: c1
  Charge       = -1
  Multiplicity = 1
  Basis Set: AUG-CC-PVTZ
    Blend: AUG-CC-PVTZ
  Basis Set: (AUG-CC-PVTZ AUX)
    Blend: AUG-CC-PVTZ-JKFIT

    Orbital Energies [Eh]
    ---------------------

    Doubly Occupied:

       1A    -20.378712     2A    -20.316683     3A    -20.307104
       4A    -11.152049     5A    -11.118963     6A    -11.074365
       7A     -1.195568     8A     -1.154113     9A     -1.079199
      10A     -0.872131    11A     -0.704823    12A     -0.563091
      13A     -0.497747    14A     -0.476371    15A     -0.435532
      16A     -0.405027    17A     -0.403495    18A     -0.370512
      19A     -0.360179    20A     -0.347503    21A     -0.286199
      22A     -0.231776    23A     -0.214878    24A     -0.210509

  @DF-RHF Final Energy:  -341.27493049203861

   => Energetics <=

    Nuclear Repulsion Energy =            238.3960228169000004
    One-Electron Energy =                -951.0288442809836624
    Two-Electron Energy =                 371.3578909720450838
    Total Energy =                       -341.2749304920386066
  Basis Set: (AUG-CC-PVTZ AUX)
    Blend: AUG-CC-PVTZ-RI
    Molecular point group: c1

    Geometry (in Angstrom), charge = -1, multiplicity = 1:

       Center              X                  Y                   Z               Mass
    ------------   -----------------  -----------------  -----------------  -----------------
         O           -1.208107440939     1.284547800370     0.139931033212    15.994914619570
         O            1.322503659061     0.992424500370    -0.367823766788    15.994914619570
         O            1.367547559061    -1.195906199630     0.178135033212    15.994914619570
         C           -0.711139040939    -0.083267499630     0.418741133212    12.000000000000
         C           -1.519524440939    -1.062460199630    -0.364951966788    12.000000000000
         C            0.785893559061    -0.087766199630     0.043341033212    12.000000000000
         H           -0.787198440939    -0.254833199630     1.484629033212     1.007825032230
         H           -1.414065440939    -0.877121199630    -1.438444966788     1.007825032230
         H           -1.155446440939    -2.067324199630    -0.142639966788     1.007825032230
         H           -2.579182440939    -1.000405199630    -0.100133966788     1.007825032230
         H           -0.381002440939     1.729380800370    -0.170231966788     1.007825032230

  Basis Set: AUG-CC-PVTZ
    Blend: AUG-CC-PVTZ
  Basis Set: (AUG-CC-PVTZ AUX)
    Blend: AUG-CC-PVTZ-JKFIT
	 Reference Energy          =    -341.2749304920386066 [Eh]
	 Singles Energy            =      -0.0000000000000000 [Eh]
	 Same-Spin Energy          =      -0.3365642541162726 [Eh]
	 Opposite-Spin Energy      =      -1.0199515310919756 [Eh]
	 Correlation Energy        =      -1.3565157852082481 [Eh]
	 Total Energy              =    -342.6314462772468801 [Eh]

	 ================> DF-SCS-MP2 Energies <==================
	-----------------------------------------------------------
	 SCS Same-Spin Scale       =       0.3333333333333333 [-]
	 SCS Opposite-Spin Scale   =       1.2000000000000000 [-]
	 SCS Same-Spin Energy      =      -0.1121880847054242 [Eh]
	 SCS Opposite-Spin Energy  =      -1.2239418373103705 [Eh]
	 SCS Correlation Energy    =      -1.3361299220157947 [Eh]
	 SCS Total Energy          =    -342.6110604140544069 [Eh]
	-----------------------------------------------------------

  Dipole Moment: [D]
     X:    -3.9078      Y:    -0.6662      Z:     0.4140     Total:     3.9858

*** Psi4 exiting successfully. Buy a developer a beer!
