                               Psi4 1.3.2 release

  ==> Input File <==

--------------------------------------------------------------------------
#psi4
#
memory 32 gb

molecule  {
-1 1
  O       -1.1345620     1.3004230     0.1446500
  O        1.3666590     1.0237000    -0.3596499
  O        1.4410930    -1.1800310     0.1828540
  C       -0.6393348    -0.0281803     0.4138720
  C       -1.4459790    -1.0465850    -0.3602330
  C        0.8594390    -0.0718910     0.0480600
  H       -0.7136530    -0.2389580     1.4893480
  H       -1.3405200    -0.8612460    -1.4337260
  H       -1.0819010    -2.0514490    -0.1379210
  H       -2.5056370    -0.9845300    -0.0954150
  H       -0.3074570     1.7452560    -0.1655130
units angstrom
no_reorient  #important for SAPT in psi4, default
symmetry c1  #important for SAPT in psi4, default
}

set PROPERTIES_ORIGIN ["COM"]
properties('MP2/aug-cc-pvtz', properties = ['dipole'])
--------------------------------------------------------------------------

    Molecular point group: c1
  Charge       = -1
  Multiplicity = 1
  Basis Set: AUG-CC-PVTZ
    Blend: AUG-CC-PVTZ
  Basis Set: (AUG-CC-PVTZ AUX)
    Blend: AUG-CC-PVTZ-JKFIT

    Orbital Energies [Eh]
    ---------------------

    Doubly Occupied:

       1A    -20.381007     2A    -20.317446     3A    -20.309284
       4A    -11.152205     5A    -11.116811     6A    -11.072512
       7A     -1.201647     8A     -1.161348     9A     -1.081971
      10A     -0.864531    11A     -0.702230    12A     -0.565401
      13A     -0.499673    14A     -0.477065    15A     -0.436227
      16A     -0.404700    17A     -0.400850    18A     -0.370312
      19A     -0.366255    20A     -0.348770    21A     -0.281217
      22A     -0.232989    23A     -0.215157    24A     -0.212590

  @DF-RHF Final Energy:  -341.27917122700813

   => Energetics <=

    Nuclear Repulsion Energy =            238.8648621137031114
    One-Electron Energy =                -951.9436734352035501
    Two-Electron Energy =                 371.7996400944923039
    Total Energy =                       -341.2791712270081348
  Basis Set: (AUG-CC-PVTZ AUX)
    Blend: AUG-CC-PVTZ-RI
    Molecular point group: c1

    Geometry (in Angstrom), charge = -1, multiplicity = 1:

       Center              X                  Y                   Z               Mass
    ------------   -----------------  -----------------  -----------------  -----------------
         O           -1.202592217375     1.276495235463     0.140602722391    15.994914619570
         O            1.298628782625     0.999772235463    -0.363697177609    15.994914619570
         O            1.373062782625    -1.203958764537     0.178806722391    15.994914619570
         C           -0.707365017375    -0.052108064537     0.409824722391    12.000000000000
         C           -1.514009217375    -1.070512764537    -0.364280277609    12.000000000000
         C            0.791408782625    -0.095818764537     0.044012722391    12.000000000000
         H           -0.781683217375    -0.262885764537     1.485300722391     1.007825032230
         H           -1.408550217375    -0.885173764537    -1.437773277609     1.007825032230
         H           -1.149931217375    -2.075376764537    -0.141968277609     1.007825032230
         H           -2.573667217375    -1.008457764537    -0.099462277609     1.007825032230
         H           -0.375487217375     1.721328235463    -0.169560277609     1.007825032230

  Basis Set: AUG-CC-PVTZ
    Blend: AUG-CC-PVTZ
  Basis Set: (AUG-CC-PVTZ AUX)
    Blend: AUG-CC-PVTZ-JKFIT
	 Reference Energy          =    -341.2791712270081348 [Eh]
	 Singles Energy            =      -0.0000000000000000 [Eh]
	 Same-Spin Energy          =      -0.3364768669125182 [Eh]
	 Opposite-Spin Energy      =      -1.0191787792814737 [Eh]
	 Correlation Energy        =      -1.3556556461939919 [Eh]
	 Total Energy              =    -342.6348268732021438 [Eh]

	 ================> DF-SCS-MP2 Energies <==================
	-----------------------------------------------------------
	 SCS Same-Spin Scale       =       0.3333333333333333 [-]
	 SCS Opposite-Spin Scale   =       1.2000000000000000 [-]
	 SCS Same-Spin Energy      =      -0.1121589556375061 [Eh]
	 SCS Opposite-Spin Energy  =      -1.2230145351377684 [Eh]
	 SCS Correlation Energy    =      -1.3351734907752744 [Eh]
	 SCS Total Energy          =    -342.6143447177834105 [Eh]
	-----------------------------------------------------------

  Dipole Moment: [D]
     X:    -3.8266      Y:    -0.5232      Z:     0.3795     Total:     3.8808

*** Psi4 exiting successfully. Buy a developer a beer!
