                               Psi4 1.3.2 release

  ==> Input File <==

--------------------------------------------------------------------------
#psi4
#
memory 32 gb

molecule  {
-1 1
  O       -1.1345620     1.3004230     0.1446500
  O        1.3567840     1.0286670    -0.3584360
  O        1.4410930    -1.1800310     0.1828540
  C       -0.6554823    -0.0379111     0.4558206
  C       -1.4459790    -1.0465850    -0.3602330
  C        0.8594390    -0.0718910     0.0480600
  H       -0.7136530    -0.2389580     1.4893480
  H       -1.3633638    -0.8911188    -1.4404480
  H       -1.0819010    -2.0514490    -0.1379210
  H       -2.5056370    -0.9845300    -0.0954150
  H       -0.3074570     1.7452560    -0.1655130
units angstrom
no_reorient  #important for SAPT in psi4, default
symmetry c1  #important for SAPT in psi4, default
}

set PROPERTIES_ORIGIN ["COM"]
properties('MP2/aug-cc-pvtz', properties = ['dipole'])
--------------------------------------------------------------------------

    Molecular point group: c1
  Charge       = -1
  Multiplicity = 1
  Basis Set: AUG-CC-PVTZ
    Blend: AUG-CC-PVTZ
  Basis Set: (AUG-CC-PVTZ AUX)
    Blend: AUG-CC-PVTZ-JKFIT

    Orbital Energies [Eh]
    ---------------------

    Doubly Occupied:

       1A    -20.377862     2A    -20.318045     3A    -20.309909
       4A    -11.153385     5A    -11.114918     6A    -11.072441
       7A     -1.197974     8A     -1.157458     9A     -1.082506
      10A     -0.862558    11A     -0.702450    12A     -0.563036
      13A     -0.502126    14A     -0.475330    15A     -0.433051
      16A     -0.405112    17A     -0.402443    18A     -0.368883
      19A     -0.362833    20A     -0.348821    21A     -0.284403
      22A     -0.232909    23A     -0.213231    24A     -0.211537

  @DF-RHF Final Energy:  -341.27610523648275

   => Energetics <=

    Nuclear Repulsion Energy =            238.3604906129806409
    One-Electron Energy =                -950.9667518580509977
    Two-Electron Energy =                 371.3301560085875508
    Total Energy =                       -341.2761052364827492
  Basis Set: (AUG-CC-PVTZ AUX)
    Blend: AUG-CC-PVTZ-RI
    Molecular point group: c1

    Geometry (in Angstrom), charge = -1, multiplicity = 1:

       Center              X                  Y                   Z               Mass
    ------------   -----------------  -----------------  -----------------  -----------------
         O           -1.198382758277     1.277252666200     0.134806245191    15.994914619570
         O            1.292963241723     1.005496666200    -0.368279754809    15.994914619570
         O            1.377272241723    -1.203201333800     0.173010245191    15.994914619570
         C           -0.719303058277    -0.061081433800     0.445976845191    12.000000000000
         C           -1.509799758277    -1.069755333800    -0.370076754809    12.000000000000
         C            0.795618241723    -0.095061333800     0.038216245191    12.000000000000
         H           -0.777473758277    -0.262128333800     1.479504245191     1.007825032230
         H           -1.427184558277    -0.914289133800    -1.450291754809     1.007825032230
         H           -1.145721758277    -2.074619333800    -0.147764754809     1.007825032230
         H           -2.569457758277    -1.007700333800    -0.105258754809     1.007825032230
         H           -0.371277758277     1.722085666200    -0.175356754809     1.007825032230

  Basis Set: AUG-CC-PVTZ
    Blend: AUG-CC-PVTZ
  Basis Set: (AUG-CC-PVTZ AUX)
    Blend: AUG-CC-PVTZ-JKFIT
	 Reference Energy          =    -341.2761052364827492 [Eh]
	 Singles Energy            =      -0.0000000000000000 [Eh]
	 Same-Spin Energy          =      -0.3364160936403367 [Eh]
	 Opposite-Spin Energy      =      -1.0192840473529226 [Eh]
	 Correlation Energy        =      -1.3557001409932592 [Eh]
	 Total Energy              =    -342.6318053774759846 [Eh]

	 ================> DF-SCS-MP2 Energies <==================
	-----------------------------------------------------------
	 SCS Same-Spin Scale       =       0.3333333333333333 [-]
	 SCS Opposite-Spin Scale   =       1.2000000000000000 [-]
	 SCS Same-Spin Energy      =      -0.1121386978801122 [Eh]
	 SCS Opposite-Spin Energy  =      -1.2231408568235069 [Eh]
	 SCS Correlation Energy    =      -1.3352795547036191 [Eh]
	 SCS Total Energy          =    -342.6113847911863672 [Eh]
	-----------------------------------------------------------

  Dipole Moment: [D]
     X:    -3.7654      Y:    -0.5797      Z:     0.4554     Total:     3.8369

*** Psi4 exiting successfully. Buy a developer a beer!
