                               Psi4 1.3.2 release

  ==> Input File <==

--------------------------------------------------------------------------
#psi4
#
memory 32 gb

molecule  {
-1 1
  O       -1.1345620     1.3004230     0.1446500
  O        1.3567840     1.0286670    -0.3584360
  O        1.4410930    -1.1800310     0.1828540
  C       -0.6474631    -0.0263577     0.4333412
  C       -1.4459790    -1.0465850    -0.3602330
  C        0.8594390    -0.0718910     0.0480600
  H       -0.7136530    -0.2389580     1.4893480
  H       -1.3519276    -0.8761564    -1.4372510
  H       -1.0819010    -2.0514490    -0.1379210
  H       -2.5056370    -0.9845300    -0.0954150
  H       -0.3074570     1.7452560    -0.1655130
units angstrom
no_reorient  #important for SAPT in psi4, default
symmetry c1  #important for SAPT in psi4, default
}

set PROPERTIES_ORIGIN ["COM"]
properties('MP2/aug-cc-pvtz', properties = ['dipole'])
--------------------------------------------------------------------------

    Molecular point group: c1
  Charge       = -1
  Multiplicity = 1
  Basis Set: AUG-CC-PVTZ
    Blend: AUG-CC-PVTZ
  Basis Set: (AUG-CC-PVTZ AUX)
    Blend: AUG-CC-PVTZ-JKFIT

    Orbital Energies [Eh]
    ---------------------

    Doubly Occupied:

       1A    -20.379761     2A    -20.317857     3A    -20.309965
       4A    -11.152792     5A    -11.115475     6A    -11.072098
       7A     -1.200951     8A     -1.160596     9A     -1.082705
      10A     -0.862182    11A     -0.701692    12A     -0.564690
      13A     -0.501236    14A     -0.476306    15A     -0.434732
      16A     -0.404681    17A     -0.401388    18A     -0.370103
      19A     -0.364808    20A     -0.349069    21A     -0.282164
      22A     -0.233204    23A     -0.213512    24A     -0.213110

  @DF-RHF Final Energy:  -341.27885986926373

   => Energetics <=

    Nuclear Repulsion Energy =            238.6973836097156720
    One-Electron Energy =                -951.6223363059713165
    Two-Electron Energy =                 371.6460928269919464
    Total Energy =                       -341.2788598692637265
  Basis Set: (AUG-CC-PVTZ AUX)
    Blend: AUG-CC-PVTZ-RI
    Molecular point group: c1

    Geometry (in Angstrom), charge = -1, multiplicity = 1:

       Center              X                  Y                   Z               Mass
    ------------   -----------------  -----------------  -----------------  -----------------
         O           -1.199593176223     1.275525935122     0.137800170150    15.994914619570
         O            1.291752823777     1.003769935122    -0.365285829850    15.994914619570
         O            1.376061823777    -1.204928064878     0.176004170150    15.994914619570
         C           -0.712494276223    -0.051254764878     0.426491370150    12.000000000000
         C           -1.511010176223    -1.071482064878    -0.367082829850    12.000000000000
         C            0.794407823777    -0.096788064878     0.041210170150    12.000000000000
         H           -0.778684176223    -0.263855064878     1.482498170150     1.007825032230
         H           -1.416958776223    -0.901053464878    -1.444100829850     1.007825032230
         H           -1.146932176223    -2.076346064878    -0.144770829850     1.007825032230
         H           -2.570668176223    -1.009427064878    -0.102264829850     1.007825032230
         H           -0.372488176223     1.720358935122    -0.172362829850     1.007825032230

  Basis Set: AUG-CC-PVTZ
    Blend: AUG-CC-PVTZ
  Basis Set: (AUG-CC-PVTZ AUX)
    Blend: AUG-CC-PVTZ-JKFIT
	 Reference Energy          =    -341.2788598692637265 [Eh]
	 Singles Energy            =      -0.0000000000000000 [Eh]
	 Same-Spin Energy          =      -0.3364249685304656 [Eh]
	 Opposite-Spin Energy      =      -1.0190731818301995 [Eh]
	 Correlation Energy        =      -1.3554981503606651 [Eh]
	 Total Energy              =    -342.6343580196244147 [Eh]

	 ================> DF-SCS-MP2 Energies <==================
	-----------------------------------------------------------
	 SCS Same-Spin Scale       =       0.3333333333333333 [-]
	 SCS Opposite-Spin Scale   =       1.2000000000000000 [-]
	 SCS Same-Spin Energy      =      -0.1121416561768218 [Eh]
	 SCS Opposite-Spin Energy  =      -1.2228878181962393 [Eh]
	 SCS Correlation Energy    =      -1.3350294743730611 [Eh]
	 SCS Total Energy          =    -342.6138893436367994 [Eh]
	-----------------------------------------------------------

  Dipole Moment: [D]
     X:    -3.7821      Y:    -0.5271      Z:     0.4131     Total:     3.8410

*** Psi4 exiting successfully. Buy a developer a beer!
