                               Psi4 1.3.2 release

  ==> Input File <==

--------------------------------------------------------------------------
#psi4
#
memory 32 gb

molecule  {
-1 1
  O       -1.1345620     1.3004230     0.1446500
  O        1.3567840     1.0286670    -0.3584360
  O        1.4222295    -1.1888650     0.1898378
  C       -0.6388805    -0.0412611     0.4170485
  C       -1.4459790    -1.0465850    -0.3602330
  C        0.8594390    -0.0718910     0.0480600
  H       -0.7136530    -0.2389580     1.4893480
  H       -1.3405200    -0.8612460    -1.4337260
  H       -1.0819010    -2.0514490    -0.1379210
  H       -2.5056370    -0.9845300    -0.0954150
  H       -0.3074570     1.7452560    -0.1655130
units angstrom
no_reorient  #important for SAPT in psi4, default
symmetry c1  #important for SAPT in psi4, default
}

set PROPERTIES_ORIGIN ["COM"]
properties('MP2/aug-cc-pvtz', properties = ['dipole'])
--------------------------------------------------------------------------

    Molecular point group: c1
  Charge       = -1
  Multiplicity = 1
  Basis Set: AUG-CC-PVTZ
    Blend: AUG-CC-PVTZ
  Basis Set: (AUG-CC-PVTZ AUX)
    Blend: AUG-CC-PVTZ-JKFIT

    Orbital Energies [Eh]
    ---------------------

    Doubly Occupied:

       1A    -20.377848     2A    -20.319261     3A    -20.310592
       4A    -11.153229     5A    -11.114876     6A    -11.071784
       7A     -1.199409     8A     -1.157621     9A     -1.084809
      10A     -0.865373    11A     -0.701522    12A     -0.563078
      13A     -0.499722    14A     -0.476254    15A     -0.435811
      16A     -0.404507    17A     -0.401659    18A     -0.368508
      19A     -0.364207    20A     -0.348373    21A     -0.281449
      22A     -0.234900    23A     -0.214697    24A     -0.214233

  @DF-RHF Final Energy:  -341.27835474428389

   => Energetics <=

    Nuclear Repulsion Energy =            238.9593111689769671
    One-Electron Energy =                -952.1478829034573437
    Two-Electron Energy =                 371.9102169901964317
    Total Energy =                       -341.2783547442838881
  Basis Set: (AUG-CC-PVTZ AUX)
    Blend: AUG-CC-PVTZ-RI
    Molecular point group: c1

    Geometry (in Angstrom), charge = -1, multiplicity = 1:

       Center              X                  Y                   Z               Mass
    ------------   -----------------  -----------------  -----------------  -----------------
         O           -1.197490009857     1.278953249670     0.138701664692    15.994914619570
         O            1.293855990143     1.007197249670    -0.364384335308    15.994914619570
         O            1.359301490143    -1.210334750330     0.183889464692    15.994914619570
         C           -0.701808509857    -0.062730850330     0.411100164692    12.000000000000
         C           -1.508907009857    -1.068054750330    -0.366181335308    12.000000000000
         C            0.796510990143    -0.093360750330     0.042111664692    12.000000000000
         H           -0.776581009857    -0.260427750330     1.483399664692     1.007825032230
         H           -1.403448009857    -0.882715750330    -1.439674335308     1.007825032230
         H           -1.144829009857    -2.072918750330    -0.143869335308     1.007825032230
         H           -2.568565009857    -1.005999750330    -0.101363335308     1.007825032230
         H           -0.370385009857     1.723786249670    -0.171461335308     1.007825032230

  Basis Set: AUG-CC-PVTZ
    Blend: AUG-CC-PVTZ
  Basis Set: (AUG-CC-PVTZ AUX)
    Blend: AUG-CC-PVTZ-JKFIT
	 Reference Energy          =    -341.2783547442838881 [Eh]
	 Singles Energy            =      -0.0000000000000000 [Eh]
	 Same-Spin Energy          =      -0.3366018004065742 [Eh]
	 Opposite-Spin Energy      =      -1.0195013809063598 [Eh]
	 Correlation Energy        =      -1.3561031813129341 [Eh]
	 Total Energy              =    -342.6344579255968483 [Eh]

	 ================> DF-SCS-MP2 Energies <==================
	-----------------------------------------------------------
	 SCS Same-Spin Scale       =       0.3333333333333333 [-]
	 SCS Opposite-Spin Scale   =       1.2000000000000000 [-]
	 SCS Same-Spin Energy      =      -0.1122006001355247 [Eh]
	 SCS Opposite-Spin Energy  =      -1.2234016570876316 [Eh]
	 SCS Correlation Energy    =      -1.3356022572231563 [Eh]
	 SCS Total Energy          =    -342.6139570015070603 [Eh]
	-----------------------------------------------------------

  Dipole Moment: [D]
     X:    -3.7327      Y:    -0.5765      Z:     0.3716     Total:     3.7952

*** Psi4 exiting successfully. Buy a developer a beer!
