                               Psi4 1.3.2 release

  ==> Input File <==

--------------------------------------------------------------------------
#psi4
#
memory 32 gb

molecule  {
-1 1
  O       -1.1858026     1.2698636     0.0993815
  O        1.3567840     1.0286670    -0.3584360
  O        1.4410930    -1.1800310     0.1828540
  C       -0.6396870    -0.0151150     0.4106200
  C       -1.4897811    -0.9871557    -0.3898351
  C        0.8594390    -0.0718910     0.0480600
  H       -0.7136530    -0.2389580     1.4893480
  H       -1.3405200    -0.8612460    -1.4337260
  H       -1.0819010    -2.0514490    -0.1379210
  H       -2.5056370    -0.9845300    -0.0954150
  H       -0.3074570     1.7452560    -0.1655130
units angstrom
no_reorient  #important for SAPT in psi4, default
symmetry c1  #important for SAPT in psi4, default
}

set PROPERTIES_ORIGIN ["COM"]
properties('MP2/aug-cc-pvtz', properties = ['dipole'])
--------------------------------------------------------------------------

    Molecular point group: c1
  Charge       = -1
  Multiplicity = 1
  Basis Set: AUG-CC-PVTZ
    Blend: AUG-CC-PVTZ
  Basis Set: (AUG-CC-PVTZ AUX)
    Blend: AUG-CC-PVTZ-JKFIT

    Orbital Energies [Eh]
    ---------------------

    Doubly Occupied:

       1A    -20.383178     2A    -20.321048     3A    -20.311815
       4A    -11.154778     5A    -11.116019     6A    -11.069987
       7A     -1.201454     8A     -1.161309     9A     -1.085134
      10A     -0.857334    11A     -0.702507    12A     -0.562116
      13A     -0.498550    14A     -0.480415    15A     -0.437589
      16A     -0.407457    17A     -0.397787    18A     -0.370440
      19A     -0.358818    20A     -0.344515    21A     -0.275849
      22A     -0.235684    23A     -0.217334    24A     -0.214993

  @DF-RHF Final Energy:  -341.26734264567824

   => Energetics <=

    Nuclear Repulsion Energy =            238.7561652650385327
    One-Electron Energy =                -951.7147921276365423
    Two-Electron Energy =                 371.6912842169198257
    Total Energy =                       -341.2673426456782408
  Basis Set: (AUG-CC-PVTZ AUX)
    Blend: AUG-CC-PVTZ-RI
    Molecular point group: c1

    Geometry (in Angstrom), charge = -1, multiplicity = 1:

       Center              X                  Y                   Z               Mass
    ------------   -----------------  -----------------  -----------------  -----------------
         O           -1.236900387674     1.240762088779     0.107678089015    15.994914619570
         O            1.305686212326     0.999565488779    -0.350139410985    15.994914619570
         O            1.389995212326    -1.209132511221     0.191150589015    15.994914619570
         C           -0.690784787674    -0.044216511221     0.418916589015    12.000000000000
         C           -1.540878887674    -1.016257211221    -0.381538510985    12.000000000000
         C            0.808341212326    -0.100992511221     0.056356589015    12.000000000000
         H           -0.764750787674    -0.268059511221     1.497644589015     1.007825032230
         H           -1.391617787674    -0.890347511221    -1.425429410985     1.007825032230
         H           -1.132998787674    -2.080550511221    -0.129624410985     1.007825032230
         H           -2.556734787674    -1.013631511221    -0.087118410985     1.007825032230
         H           -0.358554787674     1.716154488779    -0.157216410985     1.007825032230

  Basis Set: AUG-CC-PVTZ
    Blend: AUG-CC-PVTZ
  Basis Set: (AUG-CC-PVTZ AUX)
    Blend: AUG-CC-PVTZ-JKFIT
	 Reference Energy          =    -341.2673426456782408 [Eh]
	 Singles Energy            =      -0.0000000000000000 [Eh]
	 Same-Spin Energy          =      -0.3375656510637259 [Eh]
	 Opposite-Spin Energy      =      -1.0212960367988742 [Eh]
	 Correlation Energy        =      -1.3588616878626001 [Eh]
	 Total Energy              =    -342.6262043335408407 [Eh]

	 ================> DF-SCS-MP2 Energies <==================
	-----------------------------------------------------------
	 SCS Same-Spin Scale       =       0.3333333333333333 [-]
	 SCS Opposite-Spin Scale   =       1.2000000000000000 [-]
	 SCS Same-Spin Energy      =      -0.1125218836879086 [Eh]
	 SCS Opposite-Spin Energy  =      -1.2255552441586490 [Eh]
	 SCS Correlation Energy    =      -1.3380771278465577 [Eh]
	 SCS Total Energy          =    -342.6054197735247726 [Eh]
	-----------------------------------------------------------

  Dipole Moment: [D]
     X:    -3.7108      Y:    -0.3483      Z:     0.3913     Total:     3.7476

*** Psi4 exiting successfully. Buy a developer a beer!
