                               Psi4 1.3.2 release

  ==> Input File <==

--------------------------------------------------------------------------
#psi4
#
memory 32 gb

molecule  {
-1 1
  O       -1.1345620     1.3004230     0.1446500
  O        1.3960267     1.0082771    -0.3631936
  O        1.4782601    -1.1613759     0.1686760
  C       -0.6396870    -0.0151150     0.4106200
  C       -1.4459790    -1.0465850    -0.3602330
  C        0.8594390    -0.0718910     0.0480600
  H       -0.7136530    -0.2389580     1.4893480
  H       -1.3405200    -0.8612460    -1.4337260
  H       -1.0819010    -2.0514490    -0.1379210
  H       -2.5056370    -0.9845300    -0.0954150
  H       -0.3074570     1.7452560    -0.1655130
units angstrom
no_reorient  #important for SAPT in psi4, default
symmetry c1  #important for SAPT in psi4, default
}

set PROPERTIES_ORIGIN ["COM"]
properties('MP2/aug-cc-pvtz', properties = ['dipole'])
--------------------------------------------------------------------------

    Molecular point group: c1
  Charge       = -1
  Multiplicity = 1
  Basis Set: AUG-CC-PVTZ
    Blend: AUG-CC-PVTZ
  Basis Set: (AUG-CC-PVTZ AUX)
    Blend: AUG-CC-PVTZ-JKFIT

    Orbital Energies [Eh]
    ---------------------

    Doubly Occupied:

       1A    -20.386454     2A    -20.313448     3A    -20.305844
       4A    -11.150132     5A    -11.121341     6A    -11.074561
       7A     -1.204951     8A     -1.165756     9A     -1.075031
      10A     -0.865352    11A     -0.704488    12A     -0.569413
      13A     -0.499306    14A     -0.478038    15A     -0.437163
      16A     -0.406635    17A     -0.398666    18A     -0.373466
      19A     -0.368564    20A     -0.348952    21A     -0.282307
      22A     -0.229585    23A     -0.214803    24A     -0.208063

  @DF-RHF Final Energy:  -341.27806596512482

   => Energetics <=

    Nuclear Repulsion Energy =            238.5505895111194832
    One-Electron Energy =                -951.2926737426203090
    Two-Electron Energy =                 371.4640182663760015
    Total Energy =                       -341.2780659651248243
  Basis Set: (AUG-CC-PVTZ AUX)
    Blend: AUG-CC-PVTZ-RI
    Molecular point group: c1

    Geometry (in Angstrom), charge = -1, multiplicity = 1:

       Center              X                  Y                   Z               Mass
    ------------   -----------------  -----------------  -----------------  -----------------
         O           -1.214499047048     1.274153365071     0.144225133795    15.994914619570
         O            1.316089652952     0.982007465071    -0.363618466205    15.994914619570
         O            1.398323052952    -1.187645534929     0.168251133795    15.994914619570
         C           -0.719624047048    -0.041384634929     0.410195133795    12.000000000000
         C           -1.525916047048    -1.072854634929    -0.360657866205    12.000000000000
         C            0.779501952952    -0.098160634929     0.047635133795    12.000000000000
         H           -0.793590047048    -0.265227634929     1.488923133795     1.007825032230
         H           -1.420457047048    -0.887515634929    -1.434150866205     1.007825032230
         H           -1.161838047048    -2.077718634929    -0.138345866205     1.007825032230
         H           -2.585574047048    -1.010799634929    -0.095839866205     1.007825032230
         H           -0.387394047048     1.718986365071    -0.165937866205     1.007825032230

  Basis Set: AUG-CC-PVTZ
    Blend: AUG-CC-PVTZ
  Basis Set: (AUG-CC-PVTZ AUX)
    Blend: AUG-CC-PVTZ-JKFIT
	 Reference Energy          =    -341.2780659651248243 [Eh]
	 Singles Energy            =      -0.0000000000000000 [Eh]
	 Same-Spin Energy          =      -0.3363126636826014 [Eh]
	 Opposite-Spin Energy      =      -1.0188919553197913 [Eh]
	 Correlation Energy        =      -1.3552046190023925 [Eh]
	 Total Energy              =    -342.6332705841272173 [Eh]

	 ================> DF-SCS-MP2 Energies <==================
	-----------------------------------------------------------
	 SCS Same-Spin Scale       =       0.3333333333333333 [-]
	 SCS Opposite-Spin Scale   =       1.2000000000000000 [-]
	 SCS Same-Spin Energy      =      -0.1121042212275338 [Eh]
	 SCS Opposite-Spin Energy  =      -1.2226703463837494 [Eh]
	 SCS Correlation Energy    =      -1.3347745676112832 [Eh]
	 SCS Total Energy          =    -342.6128405327361293 [Eh]
	-----------------------------------------------------------

  Dipole Moment: [D]
     X:    -4.0383      Y:    -0.4671      Z:     0.4068     Total:     4.0855

*** Psi4 exiting successfully. Buy a developer a beer!
