                               Psi4 1.4a3.dev225

  ==> Input File <==

--------------------------------------------------------------------------
#psi4
#
memory 32 gb

molecule  {
-1 1
  O        1.1681810     1.2683390    -0.1935740
  O       -1.3027740     1.0522020     0.4123420
  O       -1.4902400    -1.1295240    -0.2243730
  C        0.6404390    -0.0405420    -0.4184120
  C        1.4092810    -1.0711850     0.3952000
  C       -0.8436126    -0.0521096    -0.0539775
  H        0.7260590    -0.2876370    -1.4879020
  H        1.3060210    -0.8470660     1.4617500
  H        1.0158520    -2.0724200     0.2054930
  H        2.4733650    -1.0522610     0.1409170
  H        0.3572580     1.7151740     0.1591030
units angstrom
no_reorient  #important for SAPT in psi4, default
symmetry c1  #important for SAPT in psi4, default
}

set PROPERTIES_ORIGIN ["COM"]
properties('MP2/aug-cc-pvtz', properties = ['dipole'])
--------------------------------------------------------------------------

    Molecular point group: c1
  Charge       = -1
  Multiplicity = 1
  Basis Set: AUG-CC-PVTZ
    Blend: AUG-CC-PVTZ
  Basis Set: (AUG-CC-PVTZ AUX)
    Blend: AUG-CC-PVTZ-JKFIT

    Orbital Energies [Eh]
    ---------------------

    Doubly Occupied:

       1A    -20.381938     2A    -20.318574     3A    -20.310739
       4A    -11.154413     5A    -11.117633     6A    -11.073762
       7A     -1.204077     8A     -1.160754     9A     -1.077916
      10A     -0.864040    11A     -0.705720    12A     -0.570277
      13A     -0.498179    14A     -0.477960    15A     -0.437665
      16A     -0.406625    17A     -0.400120    18A     -0.371023
      19A     -0.364911    20A     -0.346618    21A     -0.279563
      22A     -0.234083    23A     -0.217544    24A     -0.211950

  @DF-RHF Final Energy:  -341.27757352668783

   => Energetics <=

    Nuclear Repulsion Energy =            239.0123685978098820
    One-Electron Energy =                -952.2077224907907294
    Two-Electron Energy =                 371.9177803662930160
    Total Energy =                       -341.2775735266878314
  Basis Set: (AUG-CC-PVTZ AUX)
    Blend: AUG-CC-PVTZ-RI
    Molecular point group: c1

    Geometry (in Angstrom), charge = -1, multiplicity = 1:

       Center              X                  Y                   Z               Mass
    ------------   -----------------  -----------------  -----------------  -----------------
         O            1.230986868643     1.240031339055    -0.187588936814    15.994914619570
         O           -1.239968131357     1.023894339055     0.418327063186    15.994914619570
         O           -1.427434131357    -1.157831660945    -0.218387936814    15.994914619570
         C            0.703244868643    -0.068849660945    -0.412426936814    12.000000000000
         C            1.472086868643    -1.099492660945     0.401185063186    12.000000000000
         C           -0.780806731357    -0.080417260945    -0.047992436814    12.000000000000
         H            0.788864868643    -0.315944660945    -1.481916936814     1.007825032230
         H            1.368826868643    -0.875373660945     1.467735063186     1.007825032230
         H            1.078657868643    -2.100727660945     0.211478063186     1.007825032230
         H            2.536170868643    -1.080568660945     0.146902063186     1.007825032230
         H            0.420063868643     1.686866339055     0.165088063186     1.007825032230

  Basis Set: AUG-CC-PVTZ
    Blend: AUG-CC-PVTZ
  Basis Set: (AUG-CC-PVTZ AUX)
    Blend: AUG-CC-PVTZ-JKFIT
	 Reference Energy          =    -341.2775735266878314 [Eh]
	 Singles Energy            =      -0.0000000000000000 [Eh]
	 Same-Spin Energy          =      -0.3369922775989855 [Eh]
	 Opposite-Spin Energy      =      -1.0200508042078213 [Eh]
	 Correlation Energy        =      -1.3570430818068069 [Eh]
	 Total Energy              =    -342.6346166084946390 [Eh]

	 ================> DF-SCS-MP2 Energies <==================
	-----------------------------------------------------------
	 SCS Same-Spin Scale       =       0.3333333333333333 [-]
	 SCS Opposite-Spin Scale   =       1.2000000000000000 [-]
	 SCS Same-Spin Energy      =      -0.1123307591996618 [Eh]
	 SCS Opposite-Spin Energy  =      -1.2240609650493857 [Eh]
	 SCS Correlation Energy    =      -1.3363917242490475 [Eh]
	 SCS Total Energy          =    -342.6139652509368716 [Eh]
	-----------------------------------------------------------

  Dipole Moment: [D]
     X:     3.8591      Y:    -0.6166      Z:    -0.3186     Total:     3.9210

*** Psi4 exiting successfully. Buy a developer a beer!
