                               Psi4 1.3.2 release

  ==> Input File <==

--------------------------------------------------------------------------
#psi4
#
memory 32 gb

molecule  {
-1 1
  O       -1.1295314     1.2971782     0.1204120
  O        1.3567840     1.0286670    -0.3584360
  O        1.4410930    -1.1800310     0.1828540
  C       -0.6396870    -0.0151150     0.4106200
  C       -1.4459790    -1.0465850    -0.3602330
  C        0.8594390    -0.0718910     0.0480600
  H       -0.7060649    -0.2563692     1.4860832
  H       -1.3405200    -0.8612460    -1.4337260
  H       -1.0819010    -2.0514490    -0.1379210
  H       -2.5056370    -0.9845300    -0.0954150
  H       -0.3074570     1.7452560    -0.1655130
units angstrom
no_reorient  #important for SAPT in psi4, default
symmetry c1  #important for SAPT in psi4, default
}

set PROPERTIES_ORIGIN ["COM"]
properties('MP2/aug-cc-pvtz', properties = ['dipole'])
--------------------------------------------------------------------------

    Molecular point group: c1
  Charge       = -1
  Multiplicity = 1
  Basis Set: AUG-CC-PVTZ
    Blend: AUG-CC-PVTZ
  Basis Set: (AUG-CC-PVTZ AUX)
    Blend: AUG-CC-PVTZ-JKFIT

    Orbital Energies [Eh]
    ---------------------

    Doubly Occupied:

       1A    -20.381519     2A    -20.317009     3A    -20.309635
       4A    -11.151771     5A    -11.116543     6A    -11.071549
       7A     -1.205517     8A     -1.164020     9A     -1.082465
      10A     -0.862507    11A     -0.701692    12A     -0.566839
      13A     -0.502378    14A     -0.477668    15A     -0.436509
      16A     -0.404245    17A     -0.399513    18A     -0.372887
      19A     -0.366419    20A     -0.348626    21A     -0.280023
      22A     -0.232971    23A     -0.214604    24A     -0.212760

  @DF-RHF Final Energy:  -341.27988417290203

   => Energetics <=

    Nuclear Repulsion Energy =            239.2097157822824727
    One-Electron Energy =                -952.6198627995826200
    Two-Electron Energy =                 372.1302628443980893
    Total Energy =                       -341.2798841729020296
  Basis Set: (AUG-CC-PVTZ AUX)
    Blend: AUG-CC-PVTZ-RI
    Molecular point group: c1

    Geometry (in Angstrom), charge = -1, multiplicity = 1:

       Center              X                  Y                   Z               Mass
    ------------   -----------------  -----------------  -----------------  -----------------
         O           -1.196729653003     1.271376976124     0.120976776050    15.994914619570
         O            1.289585746997     1.002865776124    -0.357871223950    15.994914619570
         O            1.373894746997    -1.205832223876     0.183418776050    15.994914619570
         C           -0.706885253003    -0.040916223876     0.411184776050    12.000000000000
         C           -1.513177253003    -1.072386223876    -0.359668223950    12.000000000000
         C            0.792240746997    -0.097692223876     0.048624776050    12.000000000000
         H           -0.773263153003    -0.282170423876     1.486647976050     1.007825032230
         H           -1.407718253003    -0.887047223876    -1.433161223950     1.007825032230
         H           -1.149099253003    -2.077250223876    -0.137356223950     1.007825032230
         H           -2.572835253003    -1.010331223876    -0.094850223950     1.007825032230
         H           -0.374655253003     1.719454776124    -0.164948223950     1.007825032230

  Basis Set: AUG-CC-PVTZ
    Blend: AUG-CC-PVTZ
  Basis Set: (AUG-CC-PVTZ AUX)
    Blend: AUG-CC-PVTZ-JKFIT
	 Reference Energy          =    -341.2798841729020296 [Eh]
	 Singles Energy            =      -0.0000000000000000 [Eh]
	 Same-Spin Energy          =      -0.3363477254835862 [Eh]
	 Opposite-Spin Energy      =      -1.0186441314757337 [Eh]
	 Correlation Energy        =      -1.3549918569593200 [Eh]
	 Total Energy              =    -342.6348760298613456 [Eh]

	 ================> DF-SCS-MP2 Energies <==================
	-----------------------------------------------------------
	 SCS Same-Spin Scale       =       0.3333333333333333 [-]
	 SCS Opposite-Spin Scale   =       1.2000000000000000 [-]
	 SCS Same-Spin Energy      =      -0.1121159084945287 [Eh]
	 SCS Opposite-Spin Energy  =      -1.2223729577708804 [Eh]
	 SCS Correlation Energy    =      -1.3344888662654091 [Eh]
	 SCS Total Energy          =    -342.6143730391674467 [Eh]
	-----------------------------------------------------------

  Dipole Moment: [D]
     X:    -3.8152      Y:    -0.4571      Z:     0.3989     Total:     3.8631

*** Psi4 exiting successfully. Buy a developer a beer!
