                               Psi4 1.3.2 release

  ==> Input File <==

--------------------------------------------------------------------------
#psi4
#
memory 32 gb

molecule  {
-1 1
  O       -1.1345620     1.3004230     0.1446500
  O        1.3567840     1.0286670    -0.3584360
  O        1.4410930    -1.1800310     0.1828540
  C       -0.6396870    -0.0151150     0.4106200
  C       -1.4459790    -1.0465850    -0.3602330
  C        0.6651749    -0.0645337     0.0950423
  H       -0.7136530    -0.2389580     1.4893480
  H       -1.3405200    -0.8612460    -1.4337260
  H       -1.0819010    -2.0514490    -0.1379210
  H       -2.5056370    -0.9845300    -0.0954150
  H       -0.3074570     1.7452560    -0.1655130
units angstrom
no_reorient  #important for SAPT in psi4, default
symmetry c1  #important for SAPT in psi4, default
}

set PROPERTIES_ORIGIN ["COM"]
properties('MP2/aug-cc-pvtz', properties = ['dipole'])
--------------------------------------------------------------------------

    Molecular point group: c1
  Charge       = -1
  Multiplicity = 1
  Basis Set: AUG-CC-PVTZ
    Blend: AUG-CC-PVTZ
  Basis Set: (AUG-CC-PVTZ AUX)
    Blend: AUG-CC-PVTZ-JKFIT

    Orbital Energies [Eh]
    ---------------------

    Doubly Occupied:

       1A    -20.392421     2A    -20.316020     3A    -20.305473
       4A    -11.162884     5A    -11.126479     6A    -11.086669
       7A     -1.212610     8A     -1.122111     9A     -1.023557
      10A     -0.898691    11A     -0.760450    12A     -0.592669
      13A     -0.512028    14A     -0.467529    15A     -0.453455
      16A     -0.416123    17A     -0.396612    18A     -0.370724
      19A     -0.342543    20A     -0.320003    21A     -0.283031
      22A     -0.246563    23A     -0.199716    24A     -0.190445

  @DF-RHF Final Energy:  -341.20804906505884

   => Energetics <=

    Nuclear Repulsion Energy =            239.5702786304258893
    One-Electron Energy =                -953.1590413313080035
    Two-Electron Energy =                 372.3807136358233265
    Total Energy =                       -341.2080490650588445
  Basis Set: (AUG-CC-PVTZ AUX)
    Blend: AUG-CC-PVTZ-RI
    Molecular point group: c1

    Geometry (in Angstrom), charge = -1, multiplicity = 1:

       Center              X                  Y                   Z               Mass
    ------------   -----------------  -----------------  -----------------  -----------------
         O           -1.174584612119     1.272849944099     0.134489981697    15.994914619570
         O            1.316761387881     1.001093944099    -0.368596018303    15.994914619570
         O            1.401070387881    -1.207604055901     0.172693981697    15.994914619570
         C           -0.679709612119    -0.042688055901     0.400459981697    12.000000000000
         C           -1.486001612119    -1.074158055901    -0.370393018303    12.000000000000
         C            0.625152287881    -0.092106755901     0.084882281697    12.000000000000
         H           -0.753675612119    -0.266531055901     1.479187981697     1.007825032230
         H           -1.380542612119    -0.888819055901    -1.443886018303     1.007825032230
         H           -1.121923612119    -2.079022055901    -0.148081018303     1.007825032230
         H           -2.545659612119    -1.012103055901    -0.105575018303     1.007825032230
         H           -0.347479612119     1.717682944099    -0.175673018303     1.007825032230

  Basis Set: AUG-CC-PVTZ
    Blend: AUG-CC-PVTZ
  Basis Set: (AUG-CC-PVTZ AUX)
    Blend: AUG-CC-PVTZ-JKFIT
	 Reference Energy          =    -341.2080490650588445 [Eh]
	 Singles Energy            =      -0.0000000000000000 [Eh]
	 Same-Spin Energy          =      -0.3424847164179528 [Eh]
	 Opposite-Spin Energy      =      -1.0311701590929128 [Eh]
	 Correlation Energy        =      -1.3736548755108655 [Eh]
	 Total Energy              =    -342.5817039405696960 [Eh]

	 ================> DF-SCS-MP2 Energies <==================
	-----------------------------------------------------------
	 SCS Same-Spin Scale       =       0.3333333333333333 [-]
	 SCS Opposite-Spin Scale   =       1.2000000000000000 [-]
	 SCS Same-Spin Energy      =      -0.1141615721393176 [Eh]
	 SCS Opposite-Spin Energy  =      -1.2374041909114952 [Eh]
	 SCS Correlation Energy    =      -1.3515657630508129 [Eh]
	 SCS Total Energy          =    -342.5596148281096589 [Eh]
	-----------------------------------------------------------

  Dipole Moment: [D]
     X:    -4.7881      Y:    -0.4872      Z:     0.5376     Total:     4.8428

*** Psi4 exiting successfully. Buy a developer a beer!
