                               Psi4 1.3.2 release

  ==> Input File <==

--------------------------------------------------------------------------
#psi4
#
memory 32 gb

molecule  {
-1 1
  O       -1.1345620     1.3004230     0.1446500
  O        1.3567840     1.0286670    -0.3584360
  O        1.4410930    -1.1800310     0.1828540
  C       -0.6396870    -0.0151150     0.4106200
  C       -1.3398386    -0.9108021    -0.2587578
  C        0.8594390    -0.0718910     0.0480600
  H       -0.7136530    -0.2389580     1.4893480
  H       -1.3405200    -0.8612460    -1.4337260
  H       -1.0819010    -2.0514490    -0.1379210
  H       -2.5056370    -0.9845300    -0.0954150
  H       -0.3074570     1.7452560    -0.1655130
units angstrom
no_reorient  #important for SAPT in psi4, default
symmetry c1  #important for SAPT in psi4, default
}

set PROPERTIES_ORIGIN ["COM"]
properties('MP2/aug-cc-pvtz', properties = ['dipole'])
--------------------------------------------------------------------------

    Molecular point group: c1
  Charge       = -1
  Multiplicity = 1
  Basis Set: AUG-CC-PVTZ
    Blend: AUG-CC-PVTZ
  Basis Set: (AUG-CC-PVTZ AUX)
    Blend: AUG-CC-PVTZ-JKFIT

    Orbital Energies [Eh]
    ---------------------

    Doubly Occupied:

       1A    -20.382308     2A    -20.319721     3A    -20.311808
       4A    -11.155135     5A    -11.104730     6A    -11.085351
       7A     -1.209520     8A     -1.166463     9A     -1.085392
      10A     -0.904820    11A     -0.684869    12A     -0.577537
      13A     -0.508281    14A     -0.493083    15A     -0.457968
      16A     -0.411047    17A     -0.388800    18A     -0.363113
      19A     -0.345746    20A     -0.325725    21A     -0.292086
      22A     -0.232262    23A     -0.214924    24A     -0.214315

  @DF-RHF Final Energy:  -341.22924577737689

   => Energetics <=

    Nuclear Repulsion Energy =            242.4805704757075375
    One-Electron Energy =                -958.9496209169896019
    Two-Electron Energy =                 375.2398046639052041
    Total Energy =                       -341.2292457773768888
  Basis Set: (AUG-CC-PVTZ AUX)
    Blend: AUG-CC-PVTZ-RI
    Molecular point group: c1

    Geometry (in Angstrom), charge = -1, multiplicity = 1:

       Center              X                  Y                   Z               Mass
    ------------   -----------------  -----------------  -----------------  -----------------
         O           -1.215077729748     1.255538775567     0.127144594362    15.994914619570
         O            1.276268270252     0.983782775567    -0.375941405638    15.994914619570
         O            1.360577270252    -1.224915224433     0.165348594362    15.994914619570
         C           -0.720202729748    -0.059999224433     0.393114594362    12.000000000000
         C           -1.420354329748    -0.955686324433    -0.276263205638    12.000000000000
         C            0.778923270252    -0.116775224433     0.030554594362    12.000000000000
         H           -0.794168729748    -0.283842224433     1.471842594362     1.007825032230
         H           -1.421035729748    -0.906130224433    -1.451231405638     1.007825032230
         H           -1.162416729748    -2.096333224433    -0.155426405638     1.007825032230
         H           -2.586152729748    -1.029414224433    -0.112920405638     1.007825032230
         H           -0.387972729748     1.700371775567    -0.183018405638     1.007825032230

  Basis Set: AUG-CC-PVTZ
    Blend: AUG-CC-PVTZ
  Basis Set: (AUG-CC-PVTZ AUX)
    Blend: AUG-CC-PVTZ-JKFIT
	 Reference Energy          =    -341.2292457773768888 [Eh]
	 Singles Energy            =      -0.0000000000000000 [Eh]
	 Same-Spin Energy          =      -0.3394508401487617 [Eh]
	 Opposite-Spin Energy      =      -1.0231055001396934 [Eh]
	 Correlation Energy        =      -1.3625563402884551 [Eh]
	 Total Energy              =    -342.5918021176653383 [Eh]

	 ================> DF-SCS-MP2 Energies <==================
	-----------------------------------------------------------
	 SCS Same-Spin Scale       =       0.3333333333333333 [-]
	 SCS Opposite-Spin Scale   =       1.2000000000000000 [-]
	 SCS Same-Spin Energy      =      -0.1131502800495872 [Eh]
	 SCS Opposite-Spin Energy  =      -1.2277266001676319 [Eh]
	 SCS Correlation Energy    =      -1.3408768802172191 [Eh]
	 SCS Total Energy          =    -342.5701226575940836 [Eh]
	-----------------------------------------------------------

  Dipole Moment: [D]
     X:    -3.5980      Y:    -0.4425      Z:     0.4393     Total:     3.6516

*** Psi4 exiting successfully. Buy a developer a beer!
