                               Psi4 1.3.2 release

  ==> Input File <==

--------------------------------------------------------------------------
#psi4
#
memory 32 gb

molecule  {
-1 1
  O       -1.1345620     1.3004230     0.1446500
  O        1.3567840     1.0286670    -0.3584360
  O        1.4410930    -1.1800310     0.1828540
  C       -0.6396870    -0.0151150     0.4106200
  C       -1.4459790    -1.0465850    -0.3602330
  C        0.8132303     0.0161436     0.0373515
  H       -0.7136530    -0.2389580     1.4893480
  H       -1.3405200    -0.8612460    -1.4337260
  H       -1.0819010    -2.0514490    -0.1379210
  H       -2.5056370    -0.9845300    -0.0954150
  H       -0.3074570     1.7452560    -0.1655130
units angstrom
no_reorient  #important for SAPT in psi4, default
symmetry c1  #important for SAPT in psi4, default
}

set PROPERTIES_ORIGIN ["COM"]
properties('MP2/aug-cc-pvtz', properties = ['dipole'])
--------------------------------------------------------------------------

    Molecular point group: c1
  Charge       = -1
  Multiplicity = 1
  Basis Set: AUG-CC-PVTZ
    Blend: AUG-CC-PVTZ
  Basis Set: (AUG-CC-PVTZ AUX)
    Blend: AUG-CC-PVTZ-JKFIT

    Orbital Energies [Eh]
    ---------------------

    Doubly Occupied:

       1A    -20.386782     2A    -20.337476     3A    -20.288021
       4A    -11.152677     5A    -11.120757     6A    -11.074255
       7A     -1.223006     8A     -1.171581     9A     -1.044862
      10A     -0.865433    11A     -0.713523    12A     -0.577320
      13A     -0.507602    14A     -0.483209    15A     -0.440689
      16A     -0.407578    17A     -0.397841    18A     -0.371447
      19A     -0.363128    20A     -0.351597    21A     -0.285425
      22A     -0.235303    23A     -0.204374    24A     -0.197710

  @DF-RHF Final Energy:  -341.26210988931848

   => Energetics <=

    Nuclear Repulsion Energy =            239.3593579939282847
    One-Electron Energy =                -952.8397466119473620
    Two-Electron Energy =                 372.2182787287006249
    Total Energy =                       -341.2621098893184808
  Basis Set: (AUG-CC-PVTZ AUX)
    Blend: AUG-CC-PVTZ-RI
    Molecular point group: c1

    Geometry (in Angstrom), charge = -1, multiplicity = 1:

       Center              X                  Y                   Z               Mass
    ------------   -----------------  -----------------  -----------------  -----------------
         O           -1.194541785623     1.261975022455     0.142266430953    15.994914619570
         O            1.296804214377     0.990219022455    -0.360819569047    15.994914619570
         O            1.381113214377    -1.218478977545     0.180470430953    15.994914619570
         C           -0.699666785623    -0.053562977545     0.408236430953    12.000000000000
         C           -1.505958785623    -1.085032977545    -0.362616569047    12.000000000000
         C            0.753250514377    -0.022304377545     0.034967930953    12.000000000000
         H           -0.773632785623    -0.277405977545     1.486964430953     1.007825032230
         H           -1.400499785623    -0.899693977545    -1.436109569047     1.007825032230
         H           -1.141880785623    -2.089896977545    -0.140304569047     1.007825032230
         H           -2.565616785623    -1.022977977545    -0.097798569047     1.007825032230
         H           -0.367436785623     1.706808022455    -0.167896569047     1.007825032230

  Basis Set: AUG-CC-PVTZ
    Blend: AUG-CC-PVTZ
  Basis Set: (AUG-CC-PVTZ AUX)
    Blend: AUG-CC-PVTZ-JKFIT
	 Reference Energy          =    -341.2621098893184808 [Eh]
	 Singles Energy            =      -0.0000000000000000 [Eh]
	 Same-Spin Energy          =      -0.3372425793974381 [Eh]
	 Opposite-Spin Energy      =      -1.0208959587392668 [Eh]
	 Correlation Energy        =      -1.3581385381367048 [Eh]
	 Total Energy              =    -342.6202484274551807 [Eh]

	 ================> DF-SCS-MP2 Energies <==================
	-----------------------------------------------------------
	 SCS Same-Spin Scale       =       0.3333333333333333 [-]
	 SCS Opposite-Spin Scale   =       1.2000000000000000 [-]
	 SCS Same-Spin Energy      =      -0.1124141931324794 [Eh]
	 SCS Opposite-Spin Energy  =      -1.2250751504871200 [Eh]
	 SCS Correlation Energy    =      -1.3374893436195994 [Eh]
	 SCS Total Energy          =    -342.5995992329380897 [Eh]
	-----------------------------------------------------------

  Dipole Moment: [D]
     X:    -4.1423      Y:     0.4066      Z:     0.2066     Total:     4.1674

*** Psi4 exiting successfully. Buy a developer a beer!
