                               Psi4 1.3.2 release

  ==> Input File <==

--------------------------------------------------------------------------
#psi4
#
memory 32 gb

molecule  {
-1 1
  O       -1.1345620     1.3004230     0.1446500
  O        1.3567840     1.0286670    -0.3584360
  O        1.4410930    -1.1800310     0.1828540
  C       -0.6396870    -0.0151150     0.4106200
  C       -1.4459790    -1.0465850    -0.3602330
  C        0.9374973     0.1008415    -0.0157395
  H       -0.7136530    -0.2389580     1.4893480
  H       -1.3405200    -0.8612460    -1.4337260
  H       -1.0819010    -2.0514490    -0.1379210
  H       -2.5056370    -0.9845300    -0.0954150
  H       -0.3074570     1.7452560    -0.1655130
units angstrom
no_reorient  #important for SAPT in psi4, default
symmetry c1  #important for SAPT in psi4, default
}

set PROPERTIES_ORIGIN ["COM"]
properties('MP2/aug-cc-pvtz', properties = ['dipole'])
--------------------------------------------------------------------------

    Molecular point group: c1
  Charge       = -1
  Multiplicity = 1
  Basis Set: AUG-CC-PVTZ
    Blend: AUG-CC-PVTZ
  Basis Set: (AUG-CC-PVTZ AUX)
    Blend: AUG-CC-PVTZ-JKFIT

    Orbital Energies [Eh]
    ---------------------

    Doubly Occupied:

       1A    -20.382640     2A    -20.364165     3A    -20.272543
       4A    -11.144559     5A    -11.105903     6A    -11.063113
       7A     -1.317812     8A     -1.181802     9A     -1.028303
      10A     -0.844906    11A     -0.678440    12A     -0.569725
      13A     -0.544739    14A     -0.481642    15A     -0.444944
      16A     -0.427836    17A     -0.395667    18A     -0.394102
      19A     -0.376699    20A     -0.362406    21A     -0.277527
      22A     -0.222001    23A     -0.194433    24A     -0.172952

  @DF-RHF Final Energy:  -341.21168243511556

   => Energetics <=

    Nuclear Repulsion Energy =            239.7073686316614953
    One-Electron Energy =                -953.3403812567296427
    Two-Electron Energy =                 372.4213301899526414
    Total Energy =                       -341.2116824351155628
  Basis Set: (AUG-CC-PVTZ AUX)
    Blend: AUG-CC-PVTZ-RI
    Molecular point group: c1

    Geometry (in Angstrom), charge = -1, multiplicity = 1:

       Center              X                  Y                   Z               Mass
    ------------   -----------------  -----------------  -----------------  -----------------
         O           -1.211292394380     1.250558142789     0.149422848743    15.994914619570
         O            1.280053605620     0.978802142789    -0.353663151257    15.994914619570
         O            1.364362605620    -1.229895857211     0.187626848743    15.994914619570
         C           -0.716417394380    -0.064979857211     0.415392848743    12.000000000000
         C           -1.522709394380    -1.096449857211    -0.355460151257    12.000000000000
         C            0.860766905620     0.050976642789    -0.010966651257    12.000000000000
         H           -0.790383394380    -0.288822857211     1.494120848743     1.007825032230
         H           -1.417250394380    -0.911110857211    -1.428953151257     1.007825032230
         H           -1.158631394380    -2.101313857211    -0.133148151257     1.007825032230
         H           -2.582367394380    -1.034394857211    -0.090642151257     1.007825032230
         H           -0.384187394380     1.695391142789    -0.160740151257     1.007825032230

  Basis Set: AUG-CC-PVTZ
    Blend: AUG-CC-PVTZ
  Basis Set: (AUG-CC-PVTZ AUX)
    Blend: AUG-CC-PVTZ-JKFIT
	 Reference Energy          =    -341.2116824351155628 [Eh]
	 Singles Energy            =      -0.0000000000000000 [Eh]
	 Same-Spin Energy          =      -0.3349970778811197 [Eh]
	 Opposite-Spin Energy      =      -1.0163274536256368 [Eh]
	 Correlation Energy        =      -1.3513245315067564 [Eh]
	 Total Energy              =    -342.5630069666223108 [Eh]

	 ================> DF-SCS-MP2 Energies <==================
	-----------------------------------------------------------
	 SCS Same-Spin Scale       =       0.3333333333333333 [-]
	 SCS Opposite-Spin Scale   =       1.2000000000000000 [-]
	 SCS Same-Spin Energy      =      -0.1116656926270399 [Eh]
	 SCS Opposite-Spin Energy  =      -1.2195929443507640 [Eh]
	 SCS Correlation Energy    =      -1.3312586369778039 [Eh]
	 SCS Total Energy          =    -342.5429410720933561 [Eh]
	-----------------------------------------------------------

  Dipole Moment: [D]
     X:    -3.4675      Y:     1.4874      Z:    -0.1743     Total:     3.7771

*** Psi4 exiting successfully. Buy a developer a beer!
