                               Psi4 1.3.2 release

  ==> Input File <==

--------------------------------------------------------------------------
#psi4
#
memory 32 gb

molecule  {
-1 1
  O       -1.1345620     1.3004230     0.1446500
  O        1.3567840     1.0286670    -0.3584360
  O        1.4410930    -1.1800310     0.1828540
  C       -0.6396870    -0.0151150     0.4106200
  C       -1.4459790    -1.0465850    -0.3602330
  C        0.8594390    -0.0718910     0.0480600
  H       -0.7002556    -0.1984136     1.2939595
  H       -1.3405200    -0.8612460    -1.4337260
  H       -1.0819010    -2.0514490    -0.1379210
  H       -2.5056370    -0.9845300    -0.0954150
  H       -0.3074570     1.7452560    -0.1655130
units angstrom
no_reorient  #important for SAPT in psi4, default
symmetry c1  #important for SAPT in psi4, default
}

set PROPERTIES_ORIGIN ["COM"]
properties('MP2/aug-cc-pvtz', properties = ['dipole'])
--------------------------------------------------------------------------

    Molecular point group: c1
  Charge       = -1
  Multiplicity = 1
  Basis Set: AUG-CC-PVTZ
    Blend: AUG-CC-PVTZ
  Basis Set: (AUG-CC-PVTZ AUX)
    Blend: AUG-CC-PVTZ-JKFIT

    Orbital Energies [Eh]
    ---------------------

    Doubly Occupied:

       1A    -20.378146     2A    -20.316491     3A    -20.310045
       4A    -11.150504     5A    -11.089422     6A    -11.069854
       7A     -1.203256     8A     -1.161914     9A     -1.082348
      10A     -0.871198    11A     -0.720148    12A     -0.576988
      13A     -0.511064    14A     -0.480707    15A     -0.435110
      16A     -0.403497    17A     -0.399169    18A     -0.376906
      19A     -0.367064    20A     -0.349582    21A     -0.284757
      22A     -0.232725    23A     -0.214084    24A     -0.213021

  @DF-RHF Final Energy:  -341.24957577660905

   => Energetics <=

    Nuclear Repulsion Energy =            240.1903980050174141
    One-Electron Energy =                -954.4839457763004020
    Two-Electron Energy =                 373.0439719946739388
    Total Energy =                       -341.2495757766090492
  Basis Set: (AUG-CC-PVTZ AUX)
    Blend: AUG-CC-PVTZ-RI
    Molecular point group: c1

    Geometry (in Angstrom), charge = -1, multiplicity = 1:

       Center              X                  Y                   Z               Mass
    ------------   -----------------  -----------------  -----------------  -----------------
         O           -1.200922171483     1.273382676941     0.143034937445    15.994914619570
         O            1.290423828517     1.001626676941    -0.360051062555    15.994914619570
         O            1.374732828517    -1.207071323059     0.181238937445    15.994914619570
         C           -0.706047171483    -0.042155323059     0.409004937445    12.000000000000
         C           -1.512339171483    -1.073625323059    -0.361848062555    12.000000000000
         C            0.793078828517    -0.098931323059     0.046444937445    12.000000000000
         H           -0.766615771483    -0.225453923059     1.292344437445     1.007825032230
         H           -1.406880171483    -0.888286323059    -1.435341062555     1.007825032230
         H           -1.148261171483    -2.078489323059    -0.139536062555     1.007825032230
         H           -2.571997171483    -1.011570323059    -0.097030062555     1.007825032230
         H           -0.373817171483     1.718215676941    -0.167128062555     1.007825032230

  Basis Set: AUG-CC-PVTZ
    Blend: AUG-CC-PVTZ
  Basis Set: (AUG-CC-PVTZ AUX)
    Blend: AUG-CC-PVTZ-JKFIT
	 Reference Energy          =    -341.2495757766090492 [Eh]
	 Singles Energy            =      -0.0000000000000000 [Eh]
	 Same-Spin Energy          =      -0.3364164872621979 [Eh]
	 Opposite-Spin Energy      =      -1.0182797247284843 [Eh]
	 Correlation Energy        =      -1.3546962119906822 [Eh]
	 Total Energy              =    -342.6042719885997485 [Eh]

	 ================> DF-SCS-MP2 Energies <==================
	-----------------------------------------------------------
	 SCS Same-Spin Scale       =       0.3333333333333333 [-]
	 SCS Opposite-Spin Scale   =       1.2000000000000000 [-]
	 SCS Same-Spin Energy      =      -0.1121388290873993 [Eh]
	 SCS Opposite-Spin Energy  =      -1.2219356696741810 [Eh]
	 SCS Correlation Energy    =      -1.3340744987615802 [Eh]
	 SCS Total Energy          =    -342.5836502753706441 [Eh]
	-----------------------------------------------------------

  Dipole Moment: [D]
     X:    -3.8028      Y:    -0.5330      Z:     0.4999     Total:     3.8723

*** Psi4 exiting successfully. Buy a developer a beer!
