                               Psi4 1.3.2 release

  ==> Input File <==

--------------------------------------------------------------------------
#psi4
#
memory 32 gb

molecule  {
-1 1
  O       -1.0658947     1.3194636     0.1216071
  O        1.3567840     1.0286670    -0.3584360
  O        1.4410930    -1.1800310     0.1828540
  C       -0.6396870    -0.0151150     0.4106200
  C       -1.4459790    -1.0465850    -0.3602330
  C        0.8548960     0.0057436     0.0261221
  H       -0.7136530    -0.2389580     1.4893480
  H       -1.3405200    -0.8612460    -1.4337260
  H       -1.0819010    -2.0514490    -0.1379210
  H       -2.5056370    -0.9845300    -0.0954150
  H       -0.3074570     1.7452560    -0.1655130
units angstrom
no_reorient  #important for SAPT in psi4, default
symmetry c1  #important for SAPT in psi4, default
}

set PROPERTIES_ORIGIN ["COM"]
properties('MP2/aug-cc-pvtz', properties = ['dipole'])
--------------------------------------------------------------------------

    Molecular point group: c1
  Charge       = -1
  Multiplicity = 1
  Basis Set: AUG-CC-PVTZ
    Blend: AUG-CC-PVTZ
  Basis Set: (AUG-CC-PVTZ AUX)
    Blend: AUG-CC-PVTZ-JKFIT

    Orbital Energies [Eh]
    ---------------------

    Doubly Occupied:

       1A    -20.377382     2A    -20.332079     3A    -20.288711
       4A    -11.148143     5A    -11.118341     6A    -11.072970
       7A     -1.230639     8A     -1.179283     9A     -1.057839
      10A     -0.864211    11A     -0.704436    12A     -0.578847
      13A     -0.512554    14A     -0.481809    15A     -0.438578
      16A     -0.410515    17A     -0.400387    18A     -0.375635
      19A     -0.362801    20A     -0.354281    21A     -0.285737
      22A     -0.232351    23A     -0.201962    24A     -0.201649

  @DF-RHF Final Energy:  -341.26730296208746

   => Energetics <=

    Nuclear Repulsion Energy =            240.1171552878455770
    One-Electron Energy =                -954.3466368875275521
    Two-Electron Energy =                 372.9621786375945476
    Total Energy =                       -341.2673029620874559
  Basis Set: (AUG-CC-PVTZ AUX)
    Blend: AUG-CC-PVTZ-RI
    Molecular point group: c1

    Geometry (in Angstrom), charge = -1, multiplicity = 1:

       Center              X                  Y                   Z               Mass
    ------------   -----------------  -----------------  -----------------  -----------------
         O           -1.143828277322     1.278996469915     0.124877318231    15.994914619570
         O            1.278850422678     0.988199869915    -0.355165781769    15.994914619570
         O            1.363159422678    -1.220498130085     0.186124218231    15.994914619570
         C           -0.717620577322    -0.055582130085     0.413890218231    12.000000000000
         C           -1.523912577322    -1.087052130085    -0.356962781769    12.000000000000
         C            0.776962422678    -0.034723530085     0.029392318231    12.000000000000
         H           -0.791586577322    -0.279425130085     1.492618218231     1.007825032230
         H           -1.418453577322    -0.901713130085    -1.430455781769     1.007825032230
         H           -1.159834577322    -2.091916130085    -0.134650781769     1.007825032230
         H           -2.583570577322    -1.024997130085    -0.092144781769     1.007825032230
         H           -0.385390577322     1.704788869915    -0.162242781769     1.007825032230

  Basis Set: AUG-CC-PVTZ
    Blend: AUG-CC-PVTZ
  Basis Set: (AUG-CC-PVTZ AUX)
    Blend: AUG-CC-PVTZ-JKFIT
	 Reference Energy          =    -341.2673029620874559 [Eh]
	 Singles Energy            =      -0.0000000000000000 [Eh]
	 Same-Spin Energy          =      -0.3352090543075029 [Eh]
	 Opposite-Spin Energy      =      -1.0165085399278078 [Eh]
	 Correlation Energy        =      -1.3517175942353106 [Eh]
	 Total Energy              =    -342.6190205563227664 [Eh]

	 ================> DF-SCS-MP2 Energies <==================
	-----------------------------------------------------------
	 SCS Same-Spin Scale       =       0.3333333333333333 [-]
	 SCS Opposite-Spin Scale   =       1.2000000000000000 [-]
	 SCS Same-Spin Energy      =      -0.1117363514358343 [Eh]
	 SCS Opposite-Spin Energy  =      -1.2198102479133692 [Eh]
	 SCS Correlation Energy    =      -1.3315465993492035 [Eh]
	 SCS Total Energy          =    -342.5988495614366798 [Eh]
	-----------------------------------------------------------

  Dipole Moment: [D]
     X:    -4.0554      Y:     0.3413      Z:     0.2056     Total:     4.0749

*** Psi4 exiting successfully. Buy a developer a beer!
