                               Psi4 1.3.2 release

  ==> Input File <==

--------------------------------------------------------------------------
#psi4
#
memory 32 gb

molecule  {
-1 1
  O       -1.1345620     1.3004230     0.1446500
  O        1.3567840     1.0286670    -0.3584360
  O        1.4410930    -1.1800310     0.1828540
  C       -0.6396870    -0.0151150     0.4106200
  C       -1.4459790    -1.0465850    -0.3602330
  C        0.8594390    -0.0718910     0.0480600
  H       -0.7069543    -0.2186858     1.3916538
  H       -1.3405200    -0.8612460    -1.4337260
  H       -1.0819010    -2.0514490    -0.1379210
  H       -2.5056370    -0.9845300    -0.0954150
  H       -0.3074570     1.7452560    -0.1655130
units angstrom
no_reorient  #important for SAPT in psi4, default
symmetry c1  #important for SAPT in psi4, default
}

set PROPERTIES_ORIGIN ["COM"]
properties('MP2/aug-cc-pvtz', properties = ['dipole'])
--------------------------------------------------------------------------

    Molecular point group: c1
  Charge       = -1
  Multiplicity = 1
  Basis Set: AUG-CC-PVTZ
    Blend: AUG-CC-PVTZ
  Basis Set: (AUG-CC-PVTZ AUX)
    Blend: AUG-CC-PVTZ-JKFIT

    Orbital Energies [Eh]
    ---------------------

    Doubly Occupied:

       1A    -20.379626     2A    -20.316979     3A    -20.309943
       4A    -11.151221     5A    -11.102777     6A    -11.070688
       7A     -1.203523     8A     -1.162487     9A     -1.082524
      10A     -0.865342    11A     -0.709190    12A     -0.570805
      13A     -0.505541    14A     -0.479606    15A     -0.435725
      16A     -0.403956    17A     -0.399457    18A     -0.373909
      19A     -0.366977    20A     -0.349447    21A     -0.282264
      22A     -0.233006    23A     -0.214415    24A     -0.213107

  @DF-RHF Final Energy:  -341.27491170102036

   => Energetics <=

    Nuclear Repulsion Energy =            239.5749907259815075
    One-Electron Energy =                -953.3347756871777392
    Two-Electron Energy =                 372.4848732601759025
    Total Energy =                       -341.2749117010203577
  Basis Set: (AUG-CC-PVTZ AUX)
    Blend: AUG-CC-PVTZ-RI
    Molecular point group: c1

    Geometry (in Angstrom), charge = -1, multiplicity = 1:

       Center              X                  Y                   Z               Mass
    ------------   -----------------  -----------------  -----------------  -----------------
         O           -1.200846336567     1.273612175286     0.141928955846    15.994914619570
         O            1.290499663433     1.001856175286    -0.361157044154    15.994914619570
         O            1.374808663433    -1.206841824714     0.180132955846    15.994914619570
         C           -0.705971336567    -0.041925824714     0.407898955846    12.000000000000
         C           -1.512263336567    -1.073395824714    -0.362954044154    12.000000000000
         C            0.793154663433    -0.098701824714     0.045338955846    12.000000000000
         H           -0.773238636567    -0.245496624714     1.388932755846     1.007825032230
         H           -1.406804336567    -0.888056824714    -1.436447044154     1.007825032230
         H           -1.148185336567    -2.078259824714    -0.140642044154     1.007825032230
         H           -2.571921336567    -1.011340824714    -0.098136044154     1.007825032230
         H           -0.373741336567     1.718445175286    -0.168234044154     1.007825032230

  Basis Set: AUG-CC-PVTZ
    Blend: AUG-CC-PVTZ
  Basis Set: (AUG-CC-PVTZ AUX)
    Blend: AUG-CC-PVTZ-JKFIT
	 Reference Energy          =    -341.2749117010203577 [Eh]
	 Singles Energy            =      -0.0000000000000000 [Eh]
	 Same-Spin Energy          =      -0.3364135373097112 [Eh]
	 Opposite-Spin Energy      =      -1.0184365800628741 [Eh]
	 Correlation Energy        =      -1.3548501173725853 [Eh]
	 Total Energy              =    -342.6297618183929217 [Eh]

	 ================> DF-SCS-MP2 Energies <==================
	-----------------------------------------------------------
	 SCS Same-Spin Scale       =       0.3333333333333333 [-]
	 SCS Opposite-Spin Scale   =       1.2000000000000000 [-]
	 SCS Same-Spin Energy      =      -0.1121378457699037 [Eh]
	 SCS Opposite-Spin Energy  =      -1.2221238960754488 [Eh]
	 SCS Correlation Energy    =      -1.3342617418453526 [Eh]
	 SCS Total Energy          =    -342.6091734428657105 [Eh]
	-----------------------------------------------------------

  Dipole Moment: [D]
     X:    -3.8023      Y:    -0.5071      Z:     0.4500     Total:     3.8623

*** Psi4 exiting successfully. Buy a developer a beer!
