                               Psi4 1.3.2 release

  ==> Input File <==

--------------------------------------------------------------------------
#psi4
#
memory 32 gb

molecule  {
-1 1
  O       -1.1345620     1.3004230     0.1446500
  O        1.3567840     1.0286670    -0.3584360
  O        1.3839941    -1.2055097     0.2036737
  C       -0.6358987    -0.0935734     0.4295665
  C       -1.4459790    -1.0465850    -0.3602330
  C        0.8594390    -0.0718910     0.0480600
  H       -0.7136530    -0.2389580     1.4893480
  H       -1.3405200    -0.8612460    -1.4337260
  H       -1.0819010    -2.0514490    -0.1379210
  H       -2.5056370    -0.9845300    -0.0954150
  H       -0.3074570     1.7452560    -0.1655130
units angstrom
no_reorient  #important for SAPT in psi4, default
symmetry c1  #important for SAPT in psi4, default
}

set PROPERTIES_ORIGIN ["COM"]
properties('MP2/aug-cc-pvtz', properties = ['dipole'])
--------------------------------------------------------------------------

    Molecular point group: c1
  Charge       = -1
  Multiplicity = 1
  Basis Set: AUG-CC-PVTZ
    Blend: AUG-CC-PVTZ
  Basis Set: (AUG-CC-PVTZ AUX)
    Blend: AUG-CC-PVTZ-JKFIT

    Orbital Energies [Eh]
    ---------------------

    Doubly Occupied:

       1A    -20.369698     2A    -20.322460     3A    -20.311941
       4A    -11.155405     5A    -11.113108     6A    -11.071609
       7A     -1.194266     8A     -1.143415     9A     -1.088662
      10A     -0.872068    11A     -0.701907    12A     -0.558698
      13A     -0.497843    14A     -0.474748    15A     -0.435421
      16A     -0.408334    17A     -0.401933    18A     -0.367969
      19A     -0.354810    20A     -0.344503    21A     -0.283101
      22A     -0.237778    23A     -0.216829    24A     -0.212588

  @DF-RHF Final Energy:  -341.27072412242615

   => Energetics <=

    Nuclear Repulsion Energy =            238.8660850225602701
    One-Electron Energy =                -951.9954289368043874
    Two-Electron Energy =                 371.8586197918180005
    Total Energy =                       -341.2707241224261452
  Basis Set: (AUG-CC-PVTZ AUX)
    Blend: AUG-CC-PVTZ-RI
    Molecular point group: c1

    Geometry (in Angstrom), charge = -1, multiplicity = 1:

       Center              X                  Y                   Z               Mass
    ------------   -----------------  -----------------  -----------------  -----------------
         O           -1.191022189880     1.288995254867     0.134528401462    15.994914619570
         O            1.300323810120     1.017239254867    -0.368557598538    15.994914619570
         O            1.327533910120    -1.216937445133     0.193552101462    15.994914619570
         C           -0.692358889880    -0.105001145133     0.419444901462    12.000000000000
         C           -1.502439189880    -1.058012745133    -0.370354598538    12.000000000000
         C            0.802978810120    -0.083318745133     0.037938401462    12.000000000000
         H           -0.770113189880    -0.250385745133     1.479226401462     1.007825032230
         H           -1.396980189880    -0.872673745133    -1.443847598538     1.007825032230
         H           -1.138361189880    -2.062876745133    -0.148042598538     1.007825032230
         H           -2.562097189880    -0.995957745133    -0.105536598538     1.007825032230
         H           -0.363917189880     1.733828254867    -0.175634598538     1.007825032230

  Basis Set: AUG-CC-PVTZ
    Blend: AUG-CC-PVTZ
  Basis Set: (AUG-CC-PVTZ AUX)
    Blend: AUG-CC-PVTZ-JKFIT
	 Reference Energy          =    -341.2707241224261452 [Eh]
	 Singles Energy            =      -0.0000000000000000 [Eh]
	 Same-Spin Energy          =      -0.3370532713426788 [Eh]
	 Opposite-Spin Energy      =      -1.0209008394890713 [Eh]
	 Correlation Energy        =      -1.3579541108317501 [Eh]
	 Total Energy              =    -342.6286782332579151 [Eh]

	 ================> DF-SCS-MP2 Energies <==================
	-----------------------------------------------------------
	 SCS Same-Spin Scale       =       0.3333333333333333 [-]
	 SCS Opposite-Spin Scale   =       1.2000000000000000 [-]
	 SCS Same-Spin Energy      =      -0.1123510904475596 [Eh]
	 SCS Opposite-Spin Energy  =      -1.2250810073868854 [Eh]
	 SCS Correlation Energy    =      -1.3374320978344449 [Eh]
	 SCS Total Energy          =    -342.6081562202605824 [Eh]
	-----------------------------------------------------------

  Dipole Moment: [D]
     X:    -3.5911      Y:    -0.7814      Z:     0.3760     Total:     3.6943

*** Psi4 exiting successfully. Buy a developer a beer!
