                               Psi4 1.3.2 release

  ==> Input File <==

--------------------------------------------------------------------------
#psi4
#
memory 32 gb

molecule  {
-1 1
  O       -1.1345620     1.3004230     0.1446500
  O        1.3567840     1.0286670    -0.3584360
  O        1.4410930    -1.1800310     0.1828540
  C       -0.6396870    -0.0151150     0.4106200
  C       -1.4459790    -1.0465850    -0.3602330
  C        0.8594390    -0.0718910     0.0480600
  H       -0.7203517    -0.2592302     1.5870422
  H       -1.3405200    -0.8612460    -1.4337260
  H       -1.0819010    -2.0514490    -0.1379210
  H       -2.5056370    -0.9845300    -0.0954150
  H       -0.3074570     1.7452560    -0.1655130
units angstrom
no_reorient  #important for SAPT in psi4, default
symmetry c1  #important for SAPT in psi4, default
}

set PROPERTIES_ORIGIN ["COM"]
properties('MP2/aug-cc-pvtz', properties = ['dipole'])
--------------------------------------------------------------------------

    Molecular point group: c1
  Charge       = -1
  Multiplicity = 1
  Basis Set: AUG-CC-PVTZ
    Blend: AUG-CC-PVTZ
  Basis Set: (AUG-CC-PVTZ AUX)
    Blend: AUG-CC-PVTZ-JKFIT

    Orbital Energies [Eh]
    ---------------------

    Doubly Occupied:

       1A    -20.384434     2A    -20.318759     3A    -20.310424
       4A    -11.153801     5A    -11.129244     6A    -11.073465
       7A     -1.205689     8A     -1.164785     9A     -1.083650
      10A     -0.860476    11A     -0.696456    12A     -0.564318
      13A     -0.496565    14A     -0.473906    15A     -0.438103
      16A     -0.405710    17A     -0.400926    18A     -0.372568
      19A     -0.364218    20A     -0.348697    21A     -0.274999
      22A     -0.234208    23A     -0.216027    24A     -0.213624

  @DF-RHF Final Energy:  -341.27302996073695

   => Energetics <=

    Nuclear Repulsion Energy =            238.5403855597346308
    One-Electron Energy =                -951.2567237509400684
    Two-Electron Energy =                 371.4433082304684604
    Total Energy =                       -341.2730299607369489
  Basis Set: (AUG-CC-PVTZ AUX)
    Blend: AUG-CC-PVTZ-RI
    Molecular point group: c1

    Geometry (in Angstrom), charge = -1, multiplicity = 1:

       Center              X                  Y                   Z               Mass
    ------------   -----------------  -----------------  -----------------  -----------------
         O           -1.200694666737     1.274071171977     0.139716994911    15.994914619570
         O            1.290651333263     1.002315171977    -0.363369005089    15.994914619570
         O            1.374960333263    -1.206382828023     0.177920994911    15.994914619570
         C           -0.705819666737    -0.041466828023     0.405686994911    12.000000000000
         C           -1.512111666737    -1.072936828023    -0.365166005089    12.000000000000
         C            0.793306333263    -0.098242828023     0.043126994911    12.000000000000
         H           -0.786484366737    -0.285582028023     1.582109194911     1.007825032230
         H           -1.406652666737    -0.887597828023    -1.438659005089     1.007825032230
         H           -1.148033666737    -2.077800828023    -0.142854005089     1.007825032230
         H           -2.571769666737    -1.010881828023    -0.100348005089     1.007825032230
         H           -0.373589666737     1.718904171977    -0.170446005089     1.007825032230

  Basis Set: AUG-CC-PVTZ
    Blend: AUG-CC-PVTZ
  Basis Set: (AUG-CC-PVTZ AUX)
    Blend: AUG-CC-PVTZ-JKFIT
	 Reference Energy          =    -341.2730299607369489 [Eh]
	 Singles Energy            =      -0.0000000000000000 [Eh]
	 Same-Spin Energy          =      -0.3365998305140687 [Eh]
	 Opposite-Spin Energy      =      -1.0198098821034012 [Eh]
	 Correlation Energy        =      -1.3564097126174699 [Eh]
	 Total Energy              =    -342.6294396733543977 [Eh]

	 ================> DF-SCS-MP2 Energies <==================
	-----------------------------------------------------------
	 SCS Same-Spin Scale       =       0.3333333333333333 [-]
	 SCS Opposite-Spin Scale   =       1.2000000000000000 [-]
	 SCS Same-Spin Energy      =      -0.1121999435046896 [Eh]
	 SCS Opposite-Spin Energy  =      -1.2237718585240813 [Eh]
	 SCS Correlation Energy    =      -1.3359718020287710 [Eh]
	 SCS Total Energy          =    -342.6090017627657289 [Eh]
	-----------------------------------------------------------

  Dipole Moment: [D]
     X:    -3.7877      Y:    -0.4343      Z:     0.2470     Total:     3.8205

*** Psi4 exiting successfully. Buy a developer a beer!
