                               Psi4 1.3.2 release

  ==> Input File <==

--------------------------------------------------------------------------
#psi4
#
memory 32 gb

molecule  {
-1 1
  O       -1.1345620     1.3004230     0.1446500
  O        1.3567840     1.0286670    -0.3584360
  O        1.4410930    -1.1800310     0.1828540
  C       -0.5718749     0.0081472     0.3889614
  C       -1.4459790    -1.0465850    -0.3602330
  C        0.8594390    -0.0718910     0.0480600
  H       -0.7136530    -0.2389580     1.4893480
  H       -1.3405200    -0.8612460    -1.4337260
  H       -1.0819010    -2.0514490    -0.1379210
  H       -2.5056370    -0.9845300    -0.0954150
  H       -0.2823367     1.7005539    -0.1583144
units angstrom
no_reorient  #important for SAPT in psi4, default
symmetry c1  #important for SAPT in psi4, default
}

set PROPERTIES_ORIGIN ["COM"]
properties('MP2/aug-cc-pvtz', properties = ['dipole'])
--------------------------------------------------------------------------

    Molecular point group: c1
  Charge       = -1
  Multiplicity = 1
  Basis Set: AUG-CC-PVTZ
    Blend: AUG-CC-PVTZ
  Basis Set: (AUG-CC-PVTZ AUX)
    Blend: AUG-CC-PVTZ-JKFIT

    Orbital Energies [Eh]
    ---------------------

    Doubly Occupied:

       1A    -20.383394     2A    -20.319729     3A    -20.311501
       4A    -11.151683     5A    -11.119302     6A    -11.073786
       7A     -1.211459     8A     -1.166511     9A     -1.086087
      10A     -0.855623    11A     -0.714244    12A     -0.569721
      13A     -0.498057    14A     -0.476517    15A     -0.441701
      16A     -0.404056    17A     -0.394203    18A     -0.379767
      19A     -0.365246    20A     -0.348938    21A     -0.268971
      22A     -0.238710    23A     -0.224141    24A     -0.215354

  @DF-RHF Final Energy:  -341.27244812593182

   => Energetics <=

    Nuclear Repulsion Energy =            239.8840328047677701
    One-Electron Energy =                -953.8755593742484962
    Two-Electron Energy =                 372.7190784435488808
    Total Energy =                       -341.2724481259318168
  Basis Set: (AUG-CC-PVTZ AUX)
    Blend: AUG-CC-PVTZ-RI
    Molecular point group: c1

    Geometry (in Angstrom), charge = -1, multiplicity = 1:

       Center              X                  Y                   Z               Mass
    ------------   -----------------  -----------------  -----------------  -----------------
         O           -1.210195637590     1.271212103526     0.143660958871    15.994914619570
         O            1.281150362410     0.999456103526    -0.359425041129    15.994914619570
         O            1.365459362410    -1.209241896474     0.181864958871    15.994914619570
         C           -0.647508537590    -0.021063696474     0.387972358871    12.000000000000
         C           -1.521612637590    -1.075795896474    -0.361222041129    12.000000000000
         C            0.783805362410    -0.101101896474     0.047070958871    12.000000000000
         H           -0.789286637590    -0.268168896474     1.488358958871     1.007825032230
         H           -1.416153637590    -0.890456896474    -1.434715041129     1.007825032230
         H           -1.157534637590    -2.080659896474    -0.138910041129     1.007825032230
         H           -2.581270637590    -1.013740896474    -0.096404041129     1.007825032230
         H           -0.357970337590     1.671343003526    -0.159303441129     1.007825032230

  Basis Set: AUG-CC-PVTZ
    Blend: AUG-CC-PVTZ
  Basis Set: (AUG-CC-PVTZ AUX)
    Blend: AUG-CC-PVTZ-JKFIT
	 Reference Energy          =    -341.2724481259318168 [Eh]
	 Singles Energy            =      -0.0000000000000000 [Eh]
	 Same-Spin Energy          =      -0.3371324077749602 [Eh]
	 Opposite-Spin Energy      =      -1.0202202793427546 [Eh]
	 Correlation Energy        =      -1.3573526871177148 [Eh]
	 Total Energy              =    -342.6298008130495418 [Eh]

	 ================> DF-SCS-MP2 Energies <==================
	-----------------------------------------------------------
	 SCS Same-Spin Scale       =       0.3333333333333333 [-]
	 SCS Opposite-Spin Scale   =       1.2000000000000000 [-]
	 SCS Same-Spin Energy      =      -0.1123774692583201 [Eh]
	 SCS Opposite-Spin Energy  =      -1.2242643352113054 [Eh]
	 SCS Correlation Energy    =      -1.3366418044696255 [Eh]
	 SCS Total Energy          =    -342.6090899304014670 [Eh]
	-----------------------------------------------------------

  Dipole Moment: [D]
     X:    -3.7131      Y:    -0.4630      Z:     0.3592     Total:     3.7591

*** Psi4 exiting successfully. Buy a developer a beer!
