                               Psi4 1.4a3.dev225

  ==> Input File <==

--------------------------------------------------------------------------
#psi4
#
memory 32 gb

molecule  {
-1 1
  O        1.1681810     1.2683390    -0.1935740
  O       -1.3027740     1.0522020     0.4123420
  O       -1.4902400    -1.1295240    -0.2243730
  C        0.6404390    -0.0405420    -0.4184120
  C        1.4092810    -1.0711850     0.3952000
  C       -0.8457936    -0.0955651    -0.0673046
  H        0.7260590    -0.2876370    -1.4879020
  H        1.3060210    -0.8470660     1.4617500
  H        1.0158520    -2.0724200     0.2054930
  H        2.4733650    -1.0522610     0.1409170
  H        0.3572580     1.7151740     0.1591030
units angstrom
no_reorient  #important for SAPT in psi4, default
symmetry c1  #important for SAPT in psi4, default
}

set PROPERTIES_ORIGIN ["COM"]
properties('MP2/aug-cc-pvtz', properties = ['dipole'])
--------------------------------------------------------------------------

    Molecular point group: c1
  Charge       = -1
  Multiplicity = 1
  Basis Set: AUG-CC-PVTZ
    Blend: AUG-CC-PVTZ
  Basis Set: (AUG-CC-PVTZ AUX)
    Blend: AUG-CC-PVTZ-JKFIT

    Orbital Energies [Eh]
    ---------------------

    Doubly Occupied:

       1A    -20.380641     2A    -20.321237     3A    -20.307876
       4A    -11.154140     5A    -11.117611     6A    -11.074213
       7A     -1.202917     8A     -1.170454     9A     -1.068810
      10A     -0.865479    11A     -0.706093    12A     -0.568499
      13A     -0.496823    14A     -0.479401    15A     -0.436989
      16A     -0.407981    17A     -0.398801    18A     -0.373477
      19A     -0.367571    20A     -0.348539    21A     -0.277950
      22A     -0.227576    23A     -0.219303    24A     -0.211821

  @DF-RHF Final Energy:  -341.27471281353627

   => Energetics <=

    Nuclear Repulsion Energy =            238.9665958854944847
    One-Electron Energy =                -952.1142139199782832
    Two-Electron Energy =                 371.8729052209475299
    Total Energy =                       -341.2747128135362686
  Basis Set: (AUG-CC-PVTZ AUX)
    Blend: AUG-CC-PVTZ-RI
    Molecular point group: c1

    Geometry (in Angstrom), charge = -1, multiplicity = 1:

       Center              X                  Y                   Z               Mass
    ------------   -----------------  -----------------  -----------------  -----------------
         O            1.231280857213     1.245888936638    -0.185792506241    15.994914619570
         O           -1.239674142787     1.029751936638     0.420123493759    15.994914619570
         O           -1.427140142787    -1.151974063362    -0.216591506241    15.994914619570
         C            0.703538857213    -0.062992063362    -0.410630506241    12.000000000000
         C            1.472380857213    -1.093635063362     0.402981493759    12.000000000000
         C           -0.782693742787    -0.118015163362    -0.059523106241    12.000000000000
         H            0.789158857213    -0.310087063362    -1.480120506241     1.007825032230
         H            1.369120857213    -0.869516063362     1.469531493759     1.007825032230
         H            1.078951857213    -2.094870063362     0.213274493759     1.007825032230
         H            2.536464857213    -1.074711063362     0.148698493759     1.007825032230
         H            0.420357857213     1.692723936638     0.166884493759     1.007825032230

  Basis Set: AUG-CC-PVTZ
    Blend: AUG-CC-PVTZ
  Basis Set: (AUG-CC-PVTZ AUX)
    Blend: AUG-CC-PVTZ-JKFIT
	 Reference Energy          =    -341.2747128135362686 [Eh]
	 Singles Energy            =      -0.0000000000000000 [Eh]
	 Same-Spin Energy          =      -0.3370383897424163 [Eh]
	 Opposite-Spin Energy      =      -1.0201427941917425 [Eh]
	 Correlation Energy        =      -1.3571811839341588 [Eh]
	 Total Energy              =    -342.6318939974703994 [Eh]

	 ================> DF-SCS-MP2 Energies <==================
	-----------------------------------------------------------
	 SCS Same-Spin Scale       =       0.3333333333333333 [-]
	 SCS Opposite-Spin Scale   =       1.2000000000000000 [-]
	 SCS Same-Spin Energy      =      -0.1123461299141388 [Eh]
	 SCS Opposite-Spin Energy  =      -1.2241713530300908 [Eh]
	 SCS Correlation Energy    =      -1.3365174829442297 [Eh]
	 SCS Total Energy          =    -342.6112302964804712 [Eh]
	-----------------------------------------------------------

  Dipole Moment: [D]
     X:     3.8093      Y:    -1.0670      Z:    -0.4472     Total:     3.9811

*** Psi4 exiting successfully. Buy a developer a beer!
