                               Psi4 1.3.2 release

  ==> Input File <==

--------------------------------------------------------------------------
#psi4
#
memory 32 gb

molecule  {
-1 1
  O       -1.1345620     1.3004230     0.1446500
  O        1.3567840     1.0286670    -0.3584360
  O        1.4410930    -1.1800310     0.1828540
  C       -0.5943166    -0.0000038     0.3962583
  C       -1.4459790    -1.0465850    -0.3602330
  C        0.8594390    -0.0718910     0.0480600
  H       -0.7136530    -0.2389580     1.4893480
  H       -1.3405200    -0.8612460    -1.4337260
  H       -1.0819010    -2.0514490    -0.1379210
  H       -2.5056370    -0.9845300    -0.0954150
  H       -0.2904539     1.7155826    -0.1608072
units angstrom
no_reorient  #important for SAPT in psi4, default
symmetry c1  #important for SAPT in psi4, default
}

set PROPERTIES_ORIGIN ["COM"]
properties('MP2/aug-cc-pvtz', properties = ['dipole'])
--------------------------------------------------------------------------

    Molecular point group: c1
  Charge       = -1
  Multiplicity = 1
  Basis Set: AUG-CC-PVTZ
    Blend: AUG-CC-PVTZ
  Basis Set: (AUG-CC-PVTZ AUX)
    Blend: AUG-CC-PVTZ-JKFIT

    Orbital Energies [Eh]
    ---------------------

    Doubly Occupied:

       1A    -20.382823     2A    -20.319036     3A    -20.311020
       4A    -11.151974     5A    -11.118140     6A    -11.073080
       7A     -1.208970     8A     -1.165446     9A     -1.085023
      10A     -0.857560    11A     -0.709538    12A     -0.568987
      13A     -0.498443    14A     -0.476989    15A     -0.439921
      16A     -0.403927    17A     -0.396117    18A     -0.376235
      19A     -0.366893    20A     -0.349097    21A     -0.272586
      22A     -0.236859    23A     -0.221543    24A     -0.214672

  @DF-RHF Final Energy:  -341.27651318786081

   => Energetics <=

    Nuclear Repulsion Energy =            239.5946547930358292
    One-Electron Energy =                -953.3325826597671266
    Two-Electron Energy =                 372.4614146788704829
    Total Energy =                       -341.2765131878608145
  Basis Set: (AUG-CC-PVTZ AUX)
    Blend: AUG-CC-PVTZ-RI
    Molecular point group: c1

    Geometry (in Angstrom), charge = -1, multiplicity = 1:

       Center              X                  Y                   Z               Mass
    ------------   -----------------  -----------------  -----------------  -----------------
         O           -1.207078708159     1.272140682579     0.142705591567    15.994914619570
         O            1.284267291841     1.000384682579    -0.360380408433    15.994914619570
         O            1.368576291841    -1.208313317421     0.180909591567    15.994914619570
         C           -0.666833308159    -0.028286117421     0.394313891567    12.000000000000
         C           -1.518495708159    -1.074867317421    -0.362177408433    12.000000000000
         C            0.786922291841    -0.100173317421     0.046115591567    12.000000000000
         H           -0.786169708159    -0.267240317421     1.487403591567     1.007825032230
         H           -1.413036708159    -0.889528317421    -1.435670408433     1.007825032230
         H           -1.154417708159    -2.079731317421    -0.139865408433     1.007825032230
         H           -2.578153708159    -1.012812317421    -0.097359408433     1.007825032230
         H           -0.362970608159     1.687300282579    -0.162751608433     1.007825032230

  Basis Set: AUG-CC-PVTZ
    Blend: AUG-CC-PVTZ
  Basis Set: (AUG-CC-PVTZ AUX)
    Blend: AUG-CC-PVTZ-JKFIT
	 Reference Energy          =    -341.2765131878608145 [Eh]
	 Singles Energy            =      -0.0000000000000000 [Eh]
	 Same-Spin Energy          =      -0.3368341612025187 [Eh]
	 Opposite-Spin Energy      =      -1.0196705835653472 [Eh]
	 Correlation Energy        =      -1.3565047447678660 [Eh]
	 Total Energy              =    -342.6330179326286611 [Eh]

	 ================> DF-SCS-MP2 Energies <==================
	-----------------------------------------------------------
	 SCS Same-Spin Scale       =       0.3333333333333333 [-]
	 SCS Opposite-Spin Scale   =       1.2000000000000000 [-]
	 SCS Same-Spin Energy      =      -0.1122780537341729 [Eh]
	 SCS Opposite-Spin Energy  =      -1.2236047002784167 [Eh]
	 SCS Correlation Energy    =      -1.3358827540125897 [Eh]
	 SCS Total Energy          =    -342.6123959418733875 [Eh]
	-----------------------------------------------------------

  Dipole Moment: [D]
     X:    -3.7427      Y:    -0.4684      Z:     0.3627     Total:     3.7893

*** Psi4 exiting successfully. Buy a developer a beer!
