                               Psi4 1.3.2 release

  ==> Input File <==

--------------------------------------------------------------------------
#psi4
#
memory 32 gb

molecule  {
-1 1
  O       -1.1345620     1.3004230     0.1446500
  O        1.3567840     1.0286670    -0.3584360
  O        1.4410930    -1.1800310     0.1828540
  C       -0.6178416     0.0167146     0.3410757
  C       -1.4459790    -1.0465850    -0.3602330
  C        0.8594390    -0.0718910     0.0480600
  H       -0.7136530    -0.2389580     1.4893480
  H       -1.3065038    -0.8168715    -1.4211938
  H       -1.0819010    -2.0514490    -0.1379210
  H       -2.5056370    -0.9845300    -0.0954150
  H       -0.3074570     1.7452560    -0.1655130
units angstrom
no_reorient  #important for SAPT in psi4, default
symmetry c1  #important for SAPT in psi4, default
}

set PROPERTIES_ORIGIN ["COM"]
properties('MP2/aug-cc-pvtz', properties = ['dipole'])
--------------------------------------------------------------------------

    Molecular point group: c1
  Charge       = -1
  Multiplicity = 1
  Basis Set: AUG-CC-PVTZ
    Blend: AUG-CC-PVTZ
  Basis Set: (AUG-CC-PVTZ AUX)
    Blend: AUG-CC-PVTZ-JKFIT

    Orbital Energies [Eh]
    ---------------------

    Doubly Occupied:

       1A    -20.387993     2A    -20.317647     3A    -20.310452
       4A    -11.151622     5A    -11.119952     6A    -11.072056
       7A     -1.216583     8A     -1.170364     9A     -1.083925
      10A     -0.862590    11A     -0.702778    12A     -0.572834
      13A     -0.496993    14A     -0.482092    15A     -0.444111
      16A     -0.405497    17A     -0.395931    18A     -0.380348
      19A     -0.368700    20A     -0.350059    21A     -0.265469
      22A     -0.234180    23A     -0.219207    24A     -0.213601

  @DF-RHF Final Energy:  -341.27231113438006

   => Energetics <=

    Nuclear Repulsion Energy =            239.9923263405160867
    One-Electron Energy =                -954.0793056080573251
    Two-Electron Energy =                 372.8146681331611489
    Total Energy =                       -341.2723111343800610
  Basis Set: (AUG-CC-PVTZ AUX)
    Blend: AUG-CC-PVTZ-RI
    Molecular point group: c1

    Geometry (in Angstrom), charge = -1, multiplicity = 1:

       Center              X                  Y                   Z               Mass
    ------------   -----------------  -----------------  -----------------  -----------------
         O           -1.204100251091     1.269048836198     0.150055345800    15.994914619570
         O            1.287245748909     0.997292836198    -0.353030654200    15.994914619570
         O            1.371554748909    -1.211405163802     0.188259345800    15.994914619570
         C           -0.687379851091    -0.014659563802     0.346481045800    12.000000000000
         C           -1.515517251091    -1.077959163802    -0.354827654200    12.000000000000
         C            0.789900748909    -0.103265163802     0.053465345800    12.000000000000
         H           -0.783191251091    -0.270332163802     1.494753345800     1.007825032230
         H           -1.376042051091    -0.848245663802    -1.415788454200     1.007825032230
         H           -1.151439251091    -2.082823163802    -0.132515654200     1.007825032230
         H           -2.575175251091    -1.015904163802    -0.090009654200     1.007825032230
         H           -0.376995251091     1.713881836198    -0.160107654200     1.007825032230

  Basis Set: AUG-CC-PVTZ
    Blend: AUG-CC-PVTZ
  Basis Set: (AUG-CC-PVTZ AUX)
    Blend: AUG-CC-PVTZ-JKFIT
	 Reference Energy          =    -341.2723111343800610 [Eh]
	 Singles Energy            =      -0.0000000000000000 [Eh]
	 Same-Spin Energy          =      -0.3369511688444256 [Eh]
	 Opposite-Spin Energy      =      -1.0193945306155880 [Eh]
	 Correlation Energy        =      -1.3563456994600136 [Eh]
	 Total Energy              =    -342.6286568338400684 [Eh]

	 ================> DF-SCS-MP2 Energies <==================
	-----------------------------------------------------------
	 SCS Same-Spin Scale       =       0.3333333333333333 [-]
	 SCS Opposite-Spin Scale   =       1.2000000000000000 [-]
	 SCS Same-Spin Energy      =      -0.1123170562814752 [Eh]
	 SCS Opposite-Spin Energy  =      -1.2232734367387057 [Eh]
	 SCS Correlation Energy    =      -1.3355904930201810 [Eh]
	 SCS Total Energy          =    -342.6079016274002242 [Eh]
	-----------------------------------------------------------

  Dipole Moment: [D]
     X:    -3.8374      Y:    -0.3145      Z:     0.2024     Total:     3.8556

*** Psi4 exiting successfully. Buy a developer a beer!
