                               Psi4 1.3.2 release

  ==> Input File <==

--------------------------------------------------------------------------
#psi4
#
memory 32 gb

molecule  {
-1 1
  O       -1.1345620     1.3004230     0.1446500
  O        1.3567840     1.0286670    -0.3584360
  O        1.4410930    -1.1800310     0.1828540
  C       -0.6396870    -0.0151150     0.4106200
  C       -1.4459790    -1.0465850    -0.3602330
  C        1.0537031    -0.0792483     0.0010777
  H       -0.7136530    -0.2389580     1.4893480
  H       -1.3405200    -0.8612460    -1.4337260
  H       -1.0819010    -2.0514490    -0.1379210
  H       -2.5056370    -0.9845300    -0.0954150
  H       -0.3074570     1.7452560    -0.1655130
units angstrom
no_reorient  #important for SAPT in psi4, default
symmetry c1  #important for SAPT in psi4, default
}

set PROPERTIES_ORIGIN ["COM"]
properties('MP2/aug-cc-pvtz', properties = ['dipole'])
--------------------------------------------------------------------------

    Molecular point group: c1
  Charge       = -1
  Multiplicity = 1
  Basis Set: AUG-CC-PVTZ
    Blend: AUG-CC-PVTZ
  Basis Set: (AUG-CC-PVTZ AUX)
    Blend: AUG-CC-PVTZ-JKFIT

    Orbital Energies [Eh]
    ---------------------

    Doubly Occupied:

       1A    -20.367759     2A    -20.331230     3A    -20.326049
       4A    -11.157187     5A    -11.084285     6A    -11.055778
       7A     -1.235996     8A     -1.168887     9A     -1.145665
      10A     -0.834689    11A     -0.654591    12A     -0.540691
      13A     -0.516227    14A     -0.463978    15A     -0.452507
      16A     -0.416396    17A     -0.393402    18A     -0.381421
      19A     -0.377097    20A     -0.353822    21A     -0.265535
      22A     -0.261170    23A     -0.242841    24A     -0.158826

  @DF-RHF Final Energy:  -341.25726523293309

   => Energetics <=

    Nuclear Repulsion Energy =            238.6300204767306070
    One-Electron Energy =                -951.4025113583636539
    Two-Electron Energy =                 371.5152256486999818
    Total Energy =                       -341.2572652329330936
  Basis Set: (AUG-CC-PVTZ AUX)
    Blend: AUG-CC-PVTZ-RI
    Molecular point group: c1

    Geometry (in Angstrom), charge = -1, multiplicity = 1:

       Center              X                  Y                   Z               Mass
    ------------   -----------------  -----------------  -----------------  -----------------
         O           -1.226956391186     1.274833403164     0.147155969060    15.994914619570
         O            1.264389608814     1.003077403164    -0.355930030940    15.994914619570
         O            1.348698608814    -1.205620596836     0.185359969060    15.994914619570
         C           -0.732081391186    -0.040704596836     0.413125969060    12.000000000000
         C           -1.538373391186    -1.072174596836    -0.357727030940    12.000000000000
         C            0.961308708814    -0.104837896836     0.003583669060    12.000000000000
         H           -0.806047391186    -0.264547596836     1.491853969060     1.007825032230
         H           -1.432914391186    -0.886835596836    -1.431220030940     1.007825032230
         H           -1.174295391186    -2.077038596836    -0.135415030940     1.007825032230
         H           -2.598031391186    -1.010119596836    -0.092909030940     1.007825032230
         H           -0.399851391186     1.719666403164    -0.163007030940     1.007825032230

  Basis Set: AUG-CC-PVTZ
    Blend: AUG-CC-PVTZ
  Basis Set: (AUG-CC-PVTZ AUX)
    Blend: AUG-CC-PVTZ-JKFIT
	 Reference Energy          =    -341.2572652329330936 [Eh]
	 Singles Energy            =      -0.0000000000000000 [Eh]
	 Same-Spin Energy          =      -0.3353229835272916 [Eh]
	 Opposite-Spin Energy      =      -1.0155722426146041 [Eh]
	 Correlation Energy        =      -1.3508952261418956 [Eh]
	 Total Energy              =    -342.6081604590750089 [Eh]

	 ================> DF-SCS-MP2 Energies <==================
	-----------------------------------------------------------
	 SCS Same-Spin Scale       =       0.3333333333333333 [-]
	 SCS Opposite-Spin Scale   =       1.2000000000000000 [-]
	 SCS Same-Spin Energy      =      -0.1117743278424305 [Eh]
	 SCS Opposite-Spin Energy  =      -1.2186866911375249 [Eh]
	 SCS Correlation Energy    =      -1.3304610189799555 [Eh]
	 SCS Total Energy          =    -342.5877262519130682 [Eh]
	-----------------------------------------------------------

  Dipole Moment: [D]
     X:    -2.3123      Y:    -0.4603      Z:     0.1089     Total:     2.3602

*** Psi4 exiting successfully. Buy a developer a beer!
