                               Psi4 1.3.2 release

  ==> Input File <==

--------------------------------------------------------------------------
#psi4
#
memory 32 gb

molecule  {
-1 1
  O       -1.1345620     1.3004230     0.1446500
  O        1.3567840     1.0286670    -0.3584360
  O        1.4782827    -1.1613531     0.1687654
  C       -0.6399300     0.0371174     0.3974336
  C       -1.4459790    -1.0465850    -0.3602330
  C        0.8594390    -0.0718910     0.0480600
  H       -0.7136530    -0.2389580     1.4893480
  H       -1.3405200    -0.8612460    -1.4337260
  H       -1.0819010    -2.0514490    -0.1379210
  H       -2.5056370    -0.9845300    -0.0954150
  H       -0.3074570     1.7452560    -0.1655130
units angstrom
no_reorient  #important for SAPT in psi4, default
symmetry c1  #important for SAPT in psi4, default
}

set PROPERTIES_ORIGIN ["COM"]
properties('MP2/aug-cc-pvtz', properties = ['dipole'])
--------------------------------------------------------------------------

    Molecular point group: c1
  Charge       = -1
  Multiplicity = 1
  Basis Set: AUG-CC-PVTZ
    Blend: AUG-CC-PVTZ
  Basis Set: (AUG-CC-PVTZ AUX)
    Blend: AUG-CC-PVTZ-JKFIT

    Orbital Energies [Eh]
    ---------------------

    Doubly Occupied:

       1A    -20.389243     2A    -20.314794     3A    -20.309182
       4A    -11.150841     5A    -11.119927     6A    -11.072032
       7A     -1.220104     8A     -1.171423     9A     -1.079414
      10A     -0.855194    11A     -0.701255    12A     -0.575929
      13A     -0.500344    14A     -0.481182    15A     -0.440499
      16A     -0.406017    17A     -0.397410    18A     -0.381904
      19A     -0.364865    20A     -0.351145    21A     -0.271633
      22A     -0.230820    23A     -0.215354    24A     -0.211304

  @DF-RHF Final Energy:  -341.27725508620085

   => Energetics <=

    Nuclear Repulsion Energy =            239.2218281052173836
    One-Electron Energy =                -952.5745375433114077
    Two-Electron Energy =                 372.0754543518931996
    Total Energy =                       -341.2772550862008529
  Basis Set: (AUG-CC-PVTZ AUX)
    Blend: AUG-CC-PVTZ-RI
    Molecular point group: c1

    Geometry (in Angstrom), charge = -1, multiplicity = 1:

       Center              X                  Y                   Z               Mass
    ------------   -----------------  -----------------  -----------------  -----------------
         O           -1.207419618151     1.263445133625     0.145131738391    15.994914619570
         O            1.283926381849     0.991689133625    -0.357954261609    15.994914619570
         O            1.405425081849    -1.198330966375     0.169247138391    15.994914619570
         C           -0.712787618151     0.000139533625     0.397915338391    12.000000000000
         C           -1.518836618151    -1.083562866375    -0.359751261609    12.000000000000
         C            0.786581381849    -0.108868866375     0.048541738391    12.000000000000
         H           -0.786510618151    -0.275935866375     1.489829738391     1.007825032230
         H           -1.413377618151    -0.898223866375    -1.433244261609     1.007825032230
         H           -1.154758618151    -2.088426866375    -0.137439261609     1.007825032230
         H           -2.578494618151    -1.021507866375    -0.094933261609     1.007825032230
         H           -0.380314618151     1.708278133625    -0.165031261609     1.007825032230

  Basis Set: AUG-CC-PVTZ
    Blend: AUG-CC-PVTZ
  Basis Set: (AUG-CC-PVTZ AUX)
    Blend: AUG-CC-PVTZ-JKFIT
	 Reference Energy          =    -341.2772550862008529 [Eh]
	 Singles Energy            =      -0.0000000000000000 [Eh]
	 Same-Spin Energy          =      -0.3364693046255873 [Eh]
	 Opposite-Spin Energy      =      -1.0183388020559450 [Eh]
	 Correlation Energy        =      -1.3548081066815323 [Eh]
	 Total Energy              =    -342.6320631928824127 [Eh]

	 ================> DF-SCS-MP2 Energies <==================
	-----------------------------------------------------------
	 SCS Same-Spin Scale       =       0.3333333333333333 [-]
	 SCS Opposite-Spin Scale   =       1.2000000000000000 [-]
	 SCS Same-Spin Energy      =      -0.1121564348751958 [Eh]
	 SCS Opposite-Spin Energy  =      -1.2220065624671339 [Eh]
	 SCS Correlation Energy    =      -1.3341629973423297 [Eh]
	 SCS Total Energy          =    -342.6114180835431853 [Eh]
	-----------------------------------------------------------

  Dipole Moment: [D]
     X:    -3.9161      Y:    -0.2656      Z:     0.3500     Total:     3.9406

*** Psi4 exiting successfully. Buy a developer a beer!
