                               Psi4 1.3.2 release

  ==> Input File <==

--------------------------------------------------------------------------
#psi4
#
memory 32 gb

molecule  {
-1 1
  O       -1.1432001     1.2955780     0.1370512
  O        1.3567840     1.0286670    -0.3584360
  O        1.4410930    -1.1800310     0.1828540
  C       -0.6396870    -0.0151150     0.4106200
  C       -1.4534361    -1.0368721    -0.3653157
  C        0.8594390    -0.0718910     0.0480600
  H       -0.7136530    -0.2389580     1.4893480
  H       -1.3405200    -0.8612460    -1.4337260
  H       -1.0819010    -2.0514490    -0.1379210
  H       -2.5056370    -0.9845300    -0.0954150
  H       -0.3074570     1.7452560    -0.1655130
units angstrom
no_reorient  #important for SAPT in psi4, default
symmetry c1  #important for SAPT in psi4, default
}

set PROPERTIES_ORIGIN ["COM"]
properties('MP2/aug-cc-pvtz', properties = ['dipole'])
--------------------------------------------------------------------------

    Molecular point group: c1
  Charge       = -1
  Multiplicity = 1
  Basis Set: AUG-CC-PVTZ
    Blend: AUG-CC-PVTZ
  Basis Set: (AUG-CC-PVTZ AUX)
    Blend: AUG-CC-PVTZ-JKFIT

    Orbital Energies [Eh]
    ---------------------

    Doubly Occupied:

       1A    -20.381899     2A    -20.318246     3A    -20.310328
       4A    -11.152706     5A    -11.116125     6A    -11.071383
       7A     -1.203697     8A     -1.163083     9A     -1.083286
      10A     -0.861163    11A     -0.701400    12A     -0.565638
      13A     -0.499935    14A     -0.477673    15A     -0.436888
      16A     -0.403345    17A     -0.400303    18A     -0.370919
      19A     -0.366534    20A     -0.349116    21A     -0.278742
      22A     -0.233876    23A     -0.215428    24A     -0.213581

  @DF-RHF Final Energy:  -341.27901882267776

   => Energetics <=

    Nuclear Repulsion Energy =            238.9773518882854546
    One-Electron Energy =                -952.1621535201172719
    Two-Electron Energy =                 371.9057828091540046
    Total Energy =                       -341.2790188226777559
  Basis Set: (AUG-CC-PVTZ AUX)
    Blend: AUG-CC-PVTZ-RI
    Molecular point group: c1

    Geometry (in Angstrom), charge = -1, multiplicity = 1:

       Center              X                  Y                   Z               Mass
    ------------   -----------------  -----------------  -----------------  -----------------
         O           -1.206851412502     1.268557921204     0.135274575560    15.994914619570
         O            1.293132687498     1.001646921204    -0.360212624440    15.994914619570
         O            1.377441687498    -1.207051078796     0.181077375560    15.994914619570
         C           -0.703338312502    -0.042135078796     0.408843375560    12.000000000000
         C           -1.517087412502    -1.063892178796    -0.367092324440    12.000000000000
         C            0.795787687498    -0.098911078796     0.046283375560    12.000000000000
         H           -0.777304312502    -0.265978078796     1.487571375560     1.007825032230
         H           -1.404171312502    -0.888266078796    -1.435502624440     1.007825032230
         H           -1.145552312502    -2.078469078796    -0.139697624440     1.007825032230
         H           -2.569288312502    -1.011550078796    -0.097191624440     1.007825032230
         H           -0.371108312502     1.718235921204    -0.167289624440     1.007825032230

  Basis Set: AUG-CC-PVTZ
    Blend: AUG-CC-PVTZ
  Basis Set: (AUG-CC-PVTZ AUX)
    Blend: AUG-CC-PVTZ-JKFIT
	 Reference Energy          =    -341.2790188226777559 [Eh]
	 Singles Energy            =      -0.0000000000000000 [Eh]
	 Same-Spin Energy          =      -0.3366322818346963 [Eh]
	 Opposite-Spin Energy      =      -1.0192896421675484 [Eh]
	 Correlation Energy        =      -1.3559219240022446 [Eh]
	 Total Energy              =    -342.6349407466800017 [Eh]

	 ================> DF-SCS-MP2 Energies <==================
	-----------------------------------------------------------
	 SCS Same-Spin Scale       =       0.3333333333333333 [-]
	 SCS Opposite-Spin Scale   =       1.2000000000000000 [-]
	 SCS Same-Spin Energy      =      -0.1122107606115654 [Eh]
	 SCS Opposite-Spin Energy  =      -1.2231475706010579 [Eh]
	 SCS Correlation Energy    =      -1.3353583312126234 [Eh]
	 SCS Total Energy          =    -342.6143771538903593 [Eh]
	-----------------------------------------------------------

  Dipole Moment: [D]
     X:    -3.7844      Y:    -0.4569      Z:     0.3705     Total:     3.8299

*** Psi4 exiting successfully. Buy a developer a beer!
