                               Psi4 1.4a3.dev225

  ==> Input File <==

--------------------------------------------------------------------------
#psi4
#
memory 32 gb

molecule  {
-1 1
  O        1.1681810     1.2683390    -0.1935740
  O       -1.3027740     1.0522020     0.4123420
  O       -1.4902400    -1.1295240    -0.2243730
  C        0.6404390    -0.0405420    -0.4184120
  C        1.4345450    -1.1050518     0.4219352
  C       -0.8630350    -0.0522610    -0.0492080
  H        0.7260590    -0.2876370    -1.4879020
  H        1.3060210    -0.8470660     1.4617500
  H        1.0158520    -2.0724200     0.2054930
  H        2.4733650    -1.0522610     0.1409170
  H        0.3572580     1.7151740     0.1591030
units angstrom
no_reorient  #important for SAPT in psi4, default
symmetry c1  #important for SAPT in psi4, default
}

set PROPERTIES_ORIGIN ["COM"]
properties('MP2/aug-cc-pvtz', properties = ['dipole'])
--------------------------------------------------------------------------

    Molecular point group: c1
  Charge       = -1
  Multiplicity = 1
  Basis Set: AUG-CC-PVTZ
    Blend: AUG-CC-PVTZ
  Basis Set: (AUG-CC-PVTZ AUX)
    Blend: AUG-CC-PVTZ-JKFIT

    Orbital Energies [Eh]
    ---------------------

    Doubly Occupied:

       1A    -20.381126     2A    -20.318917     3A    -20.311348
       4A    -11.153558     5A    -11.118286     6A    -11.070329
       7A     -1.204067     8A     -1.163272     9A     -1.083997
      10A     -0.854320    11A     -0.703361    12A     -0.565735
      13A     -0.498230    14A     -0.475504    15A     -0.434658
      16A     -0.411568    17A     -0.401349    18A     -0.375300
      19A     -0.365932    20A     -0.350383    21A     -0.272820
      22A     -0.235181    23A     -0.215382    24A     -0.214142

  @DF-RHF Final Energy:  -341.27798056715261

   => Energetics <=

    Nuclear Repulsion Energy =            238.1917589060255409
    One-Electron Energy =                -950.5819440063590946
    Two-Electron Energy =                 371.1122045331810000
    Total Energy =                       -341.2779805671526105
  Basis Set: (AUG-CC-PVTZ AUX)
    Blend: AUG-CC-PVTZ-RI
    Molecular point group: c1

    Geometry (in Angstrom), charge = -1, multiplicity = 1:

       Center              X                  Y                   Z               Mass
    ------------   -----------------  -----------------  -----------------  -----------------
         O            1.230199448361     1.244616832861    -0.191835622609    15.994914619570
         O           -1.240755551639     1.028479832861     0.414080377391    15.994914619570
         O           -1.428221551639    -1.153246167139    -0.222634622609    15.994914619570
         C            0.702457448361    -0.064264167139    -0.416673622609    12.000000000000
         C            1.496563448361    -1.128773967139     0.423673577391    12.000000000000
         C           -0.801016551639    -0.075983167139    -0.047469622609    12.000000000000
         H            0.788077448361    -0.311359167139    -1.486163622609     1.007825032230
         H            1.368039448361    -0.870788167139     1.463488377391     1.007825032230
         H            1.077870448361    -2.096142167139     0.207231377391     1.007825032230
         H            2.535383448361    -1.075983167139     0.142655377391     1.007825032230
         H            0.419276448361     1.691451832861     0.160841377391     1.007825032230

  Basis Set: AUG-CC-PVTZ
    Blend: AUG-CC-PVTZ
  Basis Set: (AUG-CC-PVTZ AUX)
    Blend: AUG-CC-PVTZ-JKFIT
	 Reference Energy          =    -341.2779805671526105 [Eh]
	 Singles Energy            =      -0.0000000000000000 [Eh]
	 Same-Spin Energy          =      -0.3364431957860110 [Eh]
	 Opposite-Spin Energy      =      -1.0191543290062819 [Eh]
	 Correlation Energy        =      -1.3555975247922929 [Eh]
	 Total Energy              =    -342.6335780919449121 [Eh]

	 ================> DF-SCS-MP2 Energies <==================
	-----------------------------------------------------------
	 SCS Same-Spin Scale       =       0.3333333333333333 [-]
	 SCS Opposite-Spin Scale   =       1.2000000000000000 [-]
	 SCS Same-Spin Energy      =      -0.1121477319286703 [Eh]
	 SCS Opposite-Spin Energy  =      -1.2229851948075383 [Eh]
	 SCS Correlation Energy    =      -1.3351329267362086 [Eh]
	 SCS Total Energy          =    -342.6131134938888181 [Eh]
	-----------------------------------------------------------

  Dipole Moment: [D]
     X:     3.7582      Y:    -0.5955      Z:    -0.3003     Total:     3.8169

*** Psi4 exiting successfully. Buy a developer a beer!
