                               Psi4 1.3.2 release

  ==> Input File <==

--------------------------------------------------------------------------
#psi4
#
memory 32 gb

molecule  {
-1 1
  O       -1.1258862     1.3051678     0.1522690
  O        1.3567840     1.0286670    -0.3584360
  O        1.4410930    -1.1800310     0.1828540
  C       -0.6396870    -0.0151150     0.4106200
  C       -1.4384605    -1.0562193    -0.3550916
  C        0.8594390    -0.0718910     0.0480600
  H       -0.7136530    -0.2389580     1.4893480
  H       -1.3405200    -0.8612460    -1.4337260
  H       -1.0819010    -2.0514490    -0.1379210
  H       -2.5056370    -0.9845300    -0.0954150
  H       -0.3074570     1.7452560    -0.1655130
units angstrom
no_reorient  #important for SAPT in psi4, default
symmetry c1  #important for SAPT in psi4, default
}

set PROPERTIES_ORIGIN ["COM"]
properties('MP2/aug-cc-pvtz', properties = ['dipole'])
--------------------------------------------------------------------------

    Molecular point group: c1
  Charge       = -1
  Multiplicity = 1
  Basis Set: AUG-CC-PVTZ
    Blend: AUG-CC-PVTZ
  Basis Set: (AUG-CC-PVTZ AUX)
    Blend: AUG-CC-PVTZ-JKFIT

    Orbital Energies [Eh]
    ---------------------

    Doubly Occupied:

       1A    -20.381551     2A    -20.317217     3A    -20.309781
       4A    -11.151938     5A    -11.116400     6A    -11.072461
       7A     -1.205026     8A     -1.163789     9A     -1.082618
      10A     -0.862843    11A     -0.701465    12A     -0.567459
      13A     -0.500479    14A     -0.477410    15A     -0.436546
      16A     -0.406746    17A     -0.399623    18A     -0.373325
      19A     -0.365199    20A     -0.349190    21A     -0.279407
      22A     -0.233136    23A     -0.214726    24A     -0.213011

  @DF-RHF Final Energy:  -341.27993763500046

   => Energetics <=

    Nuclear Repulsion Energy =            239.0854463963119656
    One-Electron Energy =                -952.3680779868241189
    Two-Electron Energy =                 372.0026939555117451
    Total Energy =                       -341.2799376350004650
  Basis Set: (AUG-CC-PVTZ AUX)
    Blend: AUG-CC-PVTZ-RI
    Molecular point group: c1

    Geometry (in Angstrom), charge = -1, multiplicity = 1:

       Center              X                  Y                   Z               Mass
    ------------   -----------------  -----------------  -----------------  -----------------
         O           -1.194666940792     1.279032634077     0.146380033379    15.994914619570
         O            1.288003259208     1.002531834077    -0.364324966621    15.994914619570
         O            1.372312259208    -1.206166165923     0.176965033379    15.994914619570
         C           -0.708467740792    -0.041250165923     0.404731033379    12.000000000000
         C           -1.507241240792    -1.082354465923    -0.360980566621    12.000000000000
         C            0.790658259208    -0.098026165923     0.042171033379    12.000000000000
         H           -0.782433740792    -0.265093165923     1.483459033379     1.007825032230
         H           -1.409300740792    -0.887381165923    -1.439614966621     1.007825032230
         H           -1.150681740792    -2.077584165923    -0.143809966621     1.007825032230
         H           -2.574417740792    -1.010665165923    -0.101303966621     1.007825032230
         H           -0.376237740792     1.719120834077    -0.171401966621     1.007825032230

  Basis Set: AUG-CC-PVTZ
    Blend: AUG-CC-PVTZ
  Basis Set: (AUG-CC-PVTZ AUX)
    Blend: AUG-CC-PVTZ-JKFIT
	 Reference Energy          =    -341.2799376350004650 [Eh]
	 Singles Energy            =      -0.0000000000000000 [Eh]
	 Same-Spin Energy          =      -0.3363489216364375 [Eh]
	 Opposite-Spin Energy      =      -1.0187082814135047 [Eh]
	 Correlation Energy        =      -1.3550572030499421 [Eh]
	 Total Energy              =    -342.6349948380504316 [Eh]

	 ================> DF-SCS-MP2 Energies <==================
	-----------------------------------------------------------
	 SCS Same-Spin Scale       =       0.3333333333333333 [-]
	 SCS Opposite-Spin Scale   =       1.2000000000000000 [-]
	 SCS Same-Spin Energy      =      -0.1121163072121458 [Eh]
	 SCS Opposite-Spin Energy  =      -1.2224499376962055 [Eh]
	 SCS Correlation Energy    =      -1.3345662449083513 [Eh]
	 SCS Total Energy          =    -342.6145038799087956 [Eh]
	-----------------------------------------------------------

  Dipole Moment: [D]
     X:    -3.8102      Y:    -0.4903      Z:     0.3628     Total:     3.8587

*** Psi4 exiting successfully. Buy a developer a beer!
