                               Psi4 1.3.2 release

  ==> Input File <==

--------------------------------------------------------------------------
#psi4
#
memory 32 gb

molecule  {
-1 1
  O       -1.1345620     1.3004230     0.1446500
  O        1.3567840     1.0286670    -0.3584360
  O        1.4410930    -1.1800310     0.1828540
  C       -0.6248740     0.0064244     0.3644802
  C       -1.4459790    -1.0465850    -0.3602330
  C        0.8594390    -0.0718910     0.0480600
  H       -0.7136530    -0.2389580     1.4893480
  H       -1.3178047    -0.8315990    -1.4256962
  H       -1.0819010    -2.0514490    -0.1379210
  H       -2.5056370    -0.9845300    -0.0954150
  H       -0.3074570     1.7452560    -0.1655130
units angstrom
no_reorient  #important for SAPT in psi4, default
symmetry c1  #important for SAPT in psi4, default
}

set PROPERTIES_ORIGIN ["COM"]
properties('MP2/aug-cc-pvtz', properties = ['dipole'])
--------------------------------------------------------------------------

    Molecular point group: c1
  Charge       = -1
  Multiplicity = 1
  Basis Set: AUG-CC-PVTZ
    Blend: AUG-CC-PVTZ
  Basis Set: (AUG-CC-PVTZ AUX)
    Blend: AUG-CC-PVTZ-JKFIT

    Orbital Energies [Eh]
    ---------------------

    Doubly Occupied:

       1A    -20.385821     2A    -20.317621     3A    -20.310298
       4A    -11.151731     5A    -11.118472     6A    -11.071866
       7A     -1.212192     8A     -1.168294     9A     -1.083558
      10A     -0.862192    11A     -0.701981    12A     -0.570625
      13A     -0.498023    14A     -0.480376    15A     -0.441439
      16A     -0.405140    17A     -0.397229    18A     -0.377700
      19A     -0.367775    20A     -0.349612    21A     -0.270631
      22A     -0.234035    23A     -0.217983    24A     -0.213504

  @DF-RHF Final Energy:  -341.27638831749522

   => Energetics <=

    Nuclear Repulsion Energy =            239.6785060047510285
    One-Electron Energy =                -953.4935936106442114
    Two-Electron Energy =                 372.5386992883979360
    Total Energy =                       -341.2763883174952184
  Basis Set: (AUG-CC-PVTZ AUX)
    Blend: AUG-CC-PVTZ-RI
    Molecular point group: c1

    Geometry (in Angstrom), charge = -1, multiplicity = 1:

       Center              X                  Y                   Z               Mass
    ------------   -----------------  -----------------  -----------------  -----------------
         O           -1.203024380867     1.270602634575     0.146951499925    15.994914619570
         O            1.288321619133     0.998846634575    -0.356134500075    15.994914619570
         O            1.372630619133    -1.209851365425     0.185155499925    15.994914619570
         C           -0.693336380867    -0.023395965425     0.366781699925    12.000000000000
         C           -1.514441380867    -1.076405365425    -0.357931500075    12.000000000000
         C            0.790976619133    -0.101711365425     0.050361499925    12.000000000000
         H           -0.782115380867    -0.268778365425     1.491649499925     1.007825032230
         H           -1.386267080867    -0.861419365425    -1.423394700075     1.007825032230
         H           -1.150363380867    -2.081269365425    -0.135619500075     1.007825032230
         H           -2.574099380867    -1.014350365425    -0.093113500075     1.007825032230
         H           -0.375919380867     1.715435634575    -0.163211500075     1.007825032230

  Basis Set: AUG-CC-PVTZ
    Blend: AUG-CC-PVTZ
  Basis Set: (AUG-CC-PVTZ AUX)
    Blend: AUG-CC-PVTZ-JKFIT
	 Reference Energy          =    -341.2763883174952184 [Eh]
	 Singles Energy            =      -0.0000000000000000 [Eh]
	 Same-Spin Energy          =      -0.3367486497817234 [Eh]
	 Opposite-Spin Energy      =      -1.0191484079301210 [Eh]
	 Correlation Energy        =      -1.3558970577118443 [Eh]
	 Total Energy              =    -342.6322853752070614 [Eh]

	 ================> DF-SCS-MP2 Energies <==================
	-----------------------------------------------------------
	 SCS Same-Spin Scale       =       0.3333333333333333 [-]
	 SCS Opposite-Spin Scale   =       1.2000000000000000 [-]
	 SCS Same-Spin Energy      =      -0.1122495499272411 [Eh]
	 SCS Opposite-Spin Energy  =      -1.2229780895161451 [Eh]
	 SCS Correlation Energy    =      -1.3352276394433862 [Eh]
	 SCS Total Energy          =    -342.6116159569385786 [Eh]
	-----------------------------------------------------------

  Dipole Moment: [D]
     X:    -3.8251      Y:    -0.3681      Z:     0.2613     Total:     3.8516

*** Psi4 exiting successfully. Buy a developer a beer!
