                               Psi4 1.3.2 release

  ==> Input File <==

--------------------------------------------------------------------------
#psi4
#
memory 32 gb

molecule  {
-1 1
  O       -1.1345620     1.3004230     0.1446500
  O        1.3567840     1.0286670    -0.3584360
  O        1.4410930    -1.1800310     0.1828540
  C       -0.6396870    -0.0151150     0.4106200
  C       -1.3929088    -0.9786936    -0.3094954
  C        0.8594390    -0.0718910     0.0480600
  H       -0.7136530    -0.2389580     1.4893480
  H       -1.3405200    -0.8612460    -1.4337260
  H       -1.0819010    -2.0514490    -0.1379210
  H       -2.5056370    -0.9845300    -0.0954150
  H       -0.3074570     1.7452560    -0.1655130
units angstrom
no_reorient  #important for SAPT in psi4, default
symmetry c1  #important for SAPT in psi4, default
}

set PROPERTIES_ORIGIN ["COM"]
properties('MP2/aug-cc-pvtz', properties = ['dipole'])
--------------------------------------------------------------------------

    Molecular point group: c1
  Charge       = -1
  Multiplicity = 1
  Basis Set: AUG-CC-PVTZ
    Blend: AUG-CC-PVTZ
  Basis Set: (AUG-CC-PVTZ AUX)
    Blend: AUG-CC-PVTZ-JKFIT

    Orbital Energies [Eh]
    ---------------------

    Doubly Occupied:

       1A    -20.381619     2A    -20.318385     3A    -20.310666
       4A    -11.153211     5A    -11.110783     6A    -11.077615
       7A     -1.206249     8A     -1.164531     9A     -1.083824
      10A     -0.880023    11A     -0.693976    12A     -0.571174
      13A     -0.502938    14A     -0.483310    15A     -0.446226
      16A     -0.405737    17A     -0.393629    18A     -0.365684
      19A     -0.357492    20A     -0.343232    21A     -0.287217
      22A     -0.232978    23A     -0.215067    24A     -0.213837

  @DF-RHF Final Energy:  -341.26807626603551

   => Energetics <=

    Nuclear Repulsion Energy =            240.6815950194834386
    One-Electron Energy =                -955.5005326976477136
    Two-Electron Energy =                 373.5508614121287678
    Total Energy =                       -341.2680762660355072
  Basis Set: (AUG-CC-PVTZ AUX)
    Blend: AUG-CC-PVTZ-RI
    Molecular point group: c1

    Geometry (in Angstrom), charge = -1, multiplicity = 1:

       Center              X                  Y                   Z               Mass
    ------------   -----------------  -----------------  -----------------  -----------------
         O           -1.207924115700     1.264690231339     0.133983784870    15.994914619570
         O            1.283421884300     0.992934231339    -0.369102215130    15.994914619570
         O            1.367730884300    -1.215763768661     0.172187784870    15.994914619570
         C           -0.713049115700    -0.050847768661     0.399953784870    12.000000000000
         C           -1.466270915700    -1.014426368661    -0.320161615130    12.000000000000
         C            0.786076884300    -0.107623768661     0.037393784870    12.000000000000
         H           -0.787015115700    -0.274690768661     1.478681784870     1.007825032230
         H           -1.413882115700    -0.896978768661    -1.444392215130     1.007825032230
         H           -1.155263115700    -2.087181768661    -0.148587215130     1.007825032230
         H           -2.578999115700    -1.020262768661    -0.106081215130     1.007825032230
         H           -0.380819115700     1.709523231339    -0.176179215130     1.007825032230

  Basis Set: AUG-CC-PVTZ
    Blend: AUG-CC-PVTZ
  Basis Set: (AUG-CC-PVTZ AUX)
    Blend: AUG-CC-PVTZ-JKFIT
	 Reference Energy          =    -341.2680762660355072 [Eh]
	 Singles Energy            =      -0.0000000000000000 [Eh]
	 Same-Spin Energy          =      -0.3374720964514055 [Eh]
	 Opposite-Spin Energy      =      -1.0202279310017821 [Eh]
	 Correlation Energy        =      -1.3577000274531876 [Eh]
	 Total Energy              =    -342.6257762934886841 [Eh]

	 ================> DF-SCS-MP2 Energies <==================
	-----------------------------------------------------------
	 SCS Same-Spin Scale       =       0.3333333333333333 [-]
	 SCS Opposite-Spin Scale   =       1.2000000000000000 [-]
	 SCS Same-Spin Energy      =      -0.1124906988171352 [Eh]
	 SCS Opposite-Spin Energy  =      -1.2242735172021384 [Eh]
	 SCS Correlation Energy    =      -1.3367642160192736 [Eh]
	 SCS Total Energy          =    -342.6048404820547830 [Eh]
	-----------------------------------------------------------

  Dipole Moment: [D]
     X:    -3.7288      Y:    -0.4781      Z:     0.3882     Total:     3.7794

*** Psi4 exiting successfully. Buy a developer a beer!
