                               Psi4 1.3.2 release

  ==> Input File <==

--------------------------------------------------------------------------
#psi4
#
memory 32 gb

molecule  {
-1 1
  O       -1.1345620     1.3004230     0.1446500
  O        1.3567840     1.0286670    -0.3584360
  O        1.4410930    -1.1800310     0.1828540
  C       -0.6321566    -0.0041865     0.3876640
  C       -1.4459790    -1.0465850    -0.3602330
  C        0.8594390    -0.0718910     0.0480600
  H       -0.7136530    -0.2389580     1.4893480
  H       -1.3291445    -0.8463920    -1.4298740
  H       -1.0819010    -2.0514490    -0.1379210
  H       -2.5056370    -0.9845300    -0.0954150
  H       -0.3074570     1.7452560    -0.1655130
units angstrom
no_reorient  #important for SAPT in psi4, default
symmetry c1  #important for SAPT in psi4, default
}

set PROPERTIES_ORIGIN ["COM"]
properties('MP2/aug-cc-pvtz', properties = ['dipole'])
--------------------------------------------------------------------------

    Molecular point group: c1
  Charge       = -1
  Multiplicity = 1
  Basis Set: AUG-CC-PVTZ
    Blend: AUG-CC-PVTZ
  Basis Set: (AUG-CC-PVTZ AUX)
    Blend: AUG-CC-PVTZ-JKFIT

    Orbital Energies [Eh]
    ---------------------

    Doubly Occupied:

       1A    -20.383731     2A    -20.317647     3A    -20.310163
       4A    -11.151963     5A    -11.117241     6A    -11.071810
       7A     -1.208091     8A     -1.165998     9A     -1.083231
      10A     -0.861994    11A     -0.701503    12A     -0.568511
      13A     -0.499117    14A     -0.478836    15A     -0.438960
      16A     -0.404858    17A     -0.398616    18A     -0.374954
      19A     -0.366905    20A     -0.349346    21A     -0.275229
      22A     -0.233793    23A     -0.216598    24A     -0.213398

  @DF-RHF Final Energy:  -341.27890387199386

   => Energetics <=

    Nuclear Repulsion Energy =            239.3573913036958913
    One-Electron Energy =                -952.8876018584111307
    Two-Electron Energy =                 372.2513066827214061
    Total Energy =                       -341.2789038719938617
  Basis Set: (AUG-CC-PVTZ AUX)
    Blend: AUG-CC-PVTZ-RI
    Molecular point group: c1

    Geometry (in Angstrom), charge = -1, multiplicity = 1:

       Center              X                  Y                   Z               Mass
    ------------   -----------------  -----------------  -----------------  -----------------
         O           -1.201914344475     1.272200403322     0.143873728631    15.994914619570
         O            1.289431655525     1.000444403322    -0.359212271369    15.994914619570
         O            1.373740655525    -1.208253596678     0.182077728631    15.994914619570
         C           -0.699508944475    -0.032409096678     0.386887728631    12.000000000000
         C           -1.513331344475    -1.074807596678    -0.361009271369    12.000000000000
         C            0.792086655525    -0.100113596678     0.047283728631    12.000000000000
         H           -0.781005344475    -0.267180596678     1.488571728631     1.007825032230
         H           -1.396496844475    -0.874614596678    -1.430650271369     1.007825032230
         H           -1.149253344475    -2.079671596678    -0.138697271369     1.007825032230
         H           -2.572989344475    -1.012752596678    -0.096191271369     1.007825032230
         H           -0.374809344475     1.717033403322    -0.166289271369     1.007825032230

  Basis Set: AUG-CC-PVTZ
    Blend: AUG-CC-PVTZ
  Basis Set: (AUG-CC-PVTZ AUX)
    Blend: AUG-CC-PVTZ-JKFIT
	 Reference Energy          =    -341.2789038719938617 [Eh]
	 Singles Energy            =      -0.0000000000000000 [Eh]
	 Same-Spin Energy          =      -0.3365925467655434 [Eh]
	 Opposite-Spin Energy      =      -1.0190097719628297 [Eh]
	 Correlation Energy        =      -1.3556023187283732 [Eh]
	 Total Energy              =    -342.6345061907222203 [Eh]

	 ================> DF-SCS-MP2 Energies <==================
	-----------------------------------------------------------
	 SCS Same-Spin Scale       =       0.3333333333333333 [-]
	 SCS Opposite-Spin Scale   =       1.2000000000000000 [-]
	 SCS Same-Spin Energy      =      -0.1121975155885145 [Eh]
	 SCS Opposite-Spin Energy  =      -1.2228117263553957 [Eh]
	 SCS Correlation Energy    =      -1.3350092419439101 [Eh]
	 SCS Total Energy          =    -342.6139131139377696 [Eh]
	-----------------------------------------------------------

  Dipole Moment: [D]
     X:    -3.8118      Y:    -0.4213      Z:     0.3160     Total:     3.8480

*** Psi4 exiting successfully. Buy a developer a beer!
