                               Psi4 1.3.2 release

  ==> Input File <==

--------------------------------------------------------------------------
#psi4
#
memory 32 gb

molecule  {
-1 1
  O       -1.1345620     1.3004230     0.1446500
  O        1.3169129     1.0476934    -0.3532720
  O        1.4410930    -1.1800310     0.1828540
  C       -0.6399540     0.0370931     0.3973382
  C       -1.4459790    -1.0465850    -0.3602330
  C        0.8594390    -0.0718910     0.0480600
  H       -0.7136530    -0.2389580     1.4893480
  H       -1.3405200    -0.8612460    -1.4337260
  H       -1.0819010    -2.0514490    -0.1379210
  H       -2.5056370    -0.9845300    -0.0954150
  H       -0.3074570     1.7452560    -0.1655130
units angstrom
no_reorient  #important for SAPT in psi4, default
symmetry c1  #important for SAPT in psi4, default
}

set PROPERTIES_ORIGIN ["COM"]
properties('MP2/aug-cc-pvtz', properties = ['dipole'])
--------------------------------------------------------------------------

    Molecular point group: c1
  Charge       = -1
  Multiplicity = 1
  Basis Set: AUG-CC-PVTZ
    Blend: AUG-CC-PVTZ
  Basis Set: (AUG-CC-PVTZ AUX)
    Blend: AUG-CC-PVTZ-JKFIT

    Orbital Energies [Eh]
    ---------------------

    Doubly Occupied:

       1A    -20.384374     2A    -20.318979     3A    -20.313305
       4A    -11.153082     5A    -11.114766     6A    -11.069293
       7A     -1.218568     8A     -1.170178     9A     -1.087119
      10A     -0.851843    11A     -0.698178    12A     -0.572812
      13A     -0.501961    14A     -0.480130    15A     -0.439812
      16A     -0.404224    17A     -0.399033    18A     -0.380419
      19A     -0.362305    20A     -0.351267    21A     -0.268581
      22A     -0.236126    23A     -0.216479    24A     -0.213489

  @DF-RHF Final Energy:  -341.27758077355753

   => Energetics <=

    Nuclear Repulsion Energy =            239.7380117377216777
    One-Electron Energy =                -953.6185389963809484
    Two-Electron Energy =                 372.6029464851017678
    Total Energy =                       -341.2775807735575313
  Basis Set: (AUG-CC-PVTZ AUX)
    Blend: AUG-CC-PVTZ-RI
    Molecular point group: c1

    Geometry (in Angstrom), charge = -1, multiplicity = 1:

       Center              X                  Y                   Z               Mass
    ------------   -----------------  -----------------  -----------------  -----------------
         O           -1.193570872527     1.263385794172     0.141685484071    15.994914619570
         O            1.257904027473     1.010656194172    -0.356236515929    15.994914619570
         O            1.382084127473    -1.217068205828     0.179889484071    15.994914619570
         C           -0.698962872527     0.000055894172     0.394373684071    12.000000000000
         C           -1.504987872527    -1.083622205828    -0.363197515929    12.000000000000
         C            0.800430127473    -0.108928205828     0.045095484071    12.000000000000
         H           -0.772661872527    -0.275995205828     1.486383484071     1.007825032230
         H           -1.399528872527    -0.898283205828    -1.436690515929     1.007825032230
         H           -1.140909872527    -2.088486205828    -0.140885515929     1.007825032230
         H           -2.564645872527    -1.021567205828    -0.098379515929     1.007825032230
         H           -0.366465872527     1.708218794172    -0.168477515929     1.007825032230

  Basis Set: AUG-CC-PVTZ
    Blend: AUG-CC-PVTZ
  Basis Set: (AUG-CC-PVTZ AUX)
    Blend: AUG-CC-PVTZ-JKFIT
	 Reference Energy          =    -341.2775807735575313 [Eh]
	 Singles Energy            =      -0.0000000000000000 [Eh]
	 Same-Spin Energy          =      -0.3367018031854485 [Eh]
	 Opposite-Spin Energy      =      -1.0185252164979315 [Eh]
	 Correlation Energy        =      -1.3552270196833800 [Eh]
	 Total Energy              =    -342.6328077932408860 [Eh]

	 ================> DF-SCS-MP2 Energies <==================
	-----------------------------------------------------------
	 SCS Same-Spin Scale       =       0.3333333333333333 [-]
	 SCS Opposite-Spin Scale   =       1.2000000000000000 [-]
	 SCS Same-Spin Energy      =      -0.1122339343951495 [Eh]
	 SCS Opposite-Spin Energy  =      -1.2222302597975176 [Eh]
	 SCS Correlation Energy    =      -1.3344641941926672 [Eh]
	 SCS Total Energy          =    -342.6120449677501938 [Eh]
	-----------------------------------------------------------

  Dipole Moment: [D]
     X:    -3.6715      Y:    -0.2693      Z:     0.3082     Total:     3.6942

*** Psi4 exiting successfully. Buy a developer a beer!
