                               Psi4 1.3.2 release

  ==> Input File <==

--------------------------------------------------------------------------
#psi4
#
memory 32 gb

molecule  {
-1 1
  O       -1.1345620     1.3004230     0.1446500
  O        1.3666534     1.0236943    -0.3596721
  O        1.4504530    -1.1754929     0.1793242
  C       -0.6396870    -0.0151150     0.4106200
  C       -1.4459790    -1.0465850    -0.3602330
  C        0.8594390    -0.0718910     0.0480600
  H       -0.7136530    -0.2389580     1.4893480
  H       -1.3405200    -0.8612460    -1.4337260
  H       -1.0819010    -2.0514490    -0.1379210
  H       -2.5056370    -0.9845300    -0.0954150
  H       -0.3074570     1.7452560    -0.1655130
units angstrom
no_reorient  #important for SAPT in psi4, default
symmetry c1  #important for SAPT in psi4, default
}

set PROPERTIES_ORIGIN ["COM"]
properties('MP2/aug-cc-pvtz', properties = ['dipole'])
--------------------------------------------------------------------------

    Molecular point group: c1
  Charge       = -1
  Multiplicity = 1
  Basis Set: AUG-CC-PVTZ
    Blend: AUG-CC-PVTZ
  Basis Set: (AUG-CC-PVTZ AUX)
    Blend: AUG-CC-PVTZ-JKFIT

    Orbital Energies [Eh]
    ---------------------

    Doubly Occupied:

       1A    -20.382920     2A    -20.316676     3A    -20.309017
       4A    -11.151765     5A    -11.117533     6A    -11.072562
       7A     -1.204435     8A     -1.164036     9A     -1.081023
      10A     -0.862839    11A     -0.702166    12A     -0.567247
      13A     -0.499892    14A     -0.477698    15A     -0.436780
      16A     -0.405033    17A     -0.399841    18A     -0.372625
      19A     -0.366659    20A     -0.349167    21A     -0.279907
      22A     -0.232312    23A     -0.215325    24A     -0.212040

  @DF-RHF Final Energy:  -341.27958252855228

   => Energetics <=

    Nuclear Repulsion Energy =            238.9042304733755486
    One-Electron Energy =                -952.0086297269880333
    Two-Electron Energy =                 371.8248167250601455
    Total Energy =                       -341.2795825285522824
  Basis Set: (AUG-CC-PVTZ AUX)
    Blend: AUG-CC-PVTZ-RI
    Molecular point group: c1

    Geometry (in Angstrom), charge = -1, multiplicity = 1:

       Center              X                  Y                   Z               Mass
    ------------   -----------------  -----------------  -----------------  -----------------
         O           -1.204225447102     1.273919758194     0.141679264421    15.994914619570
         O            1.296989952898     0.997191058194    -0.362642835579    15.994914619570
         O            1.380789552898    -1.201996141806     0.176353464421    15.994914619570
         C           -0.709350447102    -0.041618241806     0.407649264421    12.000000000000
         C           -1.515642447102    -1.073088241806    -0.363203735579    12.000000000000
         C            0.789775552898    -0.098394241806     0.045089264421    12.000000000000
         H           -0.783316447102    -0.265461241806     1.486377264421     1.007825032230
         H           -1.410183447102    -0.887749241806    -1.436696735579     1.007825032230
         H           -1.151564447102    -2.077952241806    -0.140891735579     1.007825032230
         H           -2.575300447102    -1.011033241806    -0.098385735579     1.007825032230
         H           -0.377120447102     1.718752758194    -0.168483735579     1.007825032230

  Basis Set: AUG-CC-PVTZ
    Blend: AUG-CC-PVTZ
  Basis Set: (AUG-CC-PVTZ AUX)
    Blend: AUG-CC-PVTZ-JKFIT
	 Reference Energy          =    -341.2795825285522824 [Eh]
	 Singles Energy            =      -0.0000000000000000 [Eh]
	 Same-Spin Energy          =      -0.3364306955478731 [Eh]
	 Opposite-Spin Energy      =      -1.0189418540713100 [Eh]
	 Correlation Energy        =      -1.3553725496191831 [Eh]
	 Total Energy              =    -342.6349550781714584 [Eh]

	 ================> DF-SCS-MP2 Energies <==================
	-----------------------------------------------------------
	 SCS Same-Spin Scale       =       0.3333333333333333 [-]
	 SCS Opposite-Spin Scale   =       1.2000000000000000 [-]
	 SCS Same-Spin Energy      =      -0.1121435651826244 [Eh]
	 SCS Opposite-Spin Energy  =      -1.2227302248855720 [Eh]
	 SCS Correlation Energy    =      -1.3348737900681964 [Eh]
	 SCS Total Energy          =    -342.6144563186204550 [Eh]
	-----------------------------------------------------------

  Dipole Moment: [D]
     X:    -3.8584      Y:    -0.4724      Z:     0.3768     Total:     3.9054

*** Psi4 exiting successfully. Buy a developer a beer!
