                               Psi4 1.4a3.dev225

  ==> Input File <==

--------------------------------------------------------------------------
#psi4
#
memory 32 gb

molecule  {
-1 1
  O        1.1681810     1.2683390    -0.1935740
  O       -1.3027740     1.0522020     0.4123420
  O       -1.4902400    -1.1295240    -0.2243730
  C        0.6404390    -0.0405420    -0.4184120
  C        1.4092810    -1.0711850     0.3952000
  C       -0.8144790    -0.0518825    -0.0611318
  H        0.7260590    -0.2876370    -1.4879020
  H        1.3060210    -0.8470660     1.4617500
  H        1.0158520    -2.0724200     0.2054930
  H        2.4733650    -1.0522610     0.1409170
  H        0.3572580     1.7151740     0.1591030
units angstrom
no_reorient  #important for SAPT in psi4, default
symmetry c1  #important for SAPT in psi4, default
}

set PROPERTIES_ORIGIN ["COM"]
properties('MP2/aug-cc-pvtz', properties = ['dipole'])
--------------------------------------------------------------------------

    Molecular point group: c1
  Charge       = -1
  Multiplicity = 1
  Basis Set: AUG-CC-PVTZ
    Blend: AUG-CC-PVTZ
  Basis Set: (AUG-CC-PVTZ AUX)
    Blend: AUG-CC-PVTZ-JKFIT

    Orbital Energies [Eh]
    ---------------------

    Doubly Occupied:

       1A    -20.383630     2A    -20.318050     3A    -20.309785
       4A    -11.155739     5A    -11.120072     6A    -11.075932
       7A     -1.204121     8A     -1.155724     9A     -1.068601
      10A     -0.868704    11A     -0.714150    12A     -0.574559
      13A     -0.497978    14A     -0.478265    15A     -0.439579
      16A     -0.408286    17A     -0.397464    18A     -0.369659
      19A     -0.364640    20A     -0.341445    21A     -0.281293
      22A     -0.235029    23A     -0.218007    24A     -0.208202

  @DF-RHF Final Energy:  -341.27258719201677

   => Energetics <=

    Nuclear Repulsion Energy =            239.0745849569189829
    One-Electron Energy =                -952.3165141344258018
    Two-Electron Energy =                 371.9693419854900185
    Total Energy =                       -341.2725871920167720
  Basis Set: (AUG-CC-PVTZ AUX)
    Blend: AUG-CC-PVTZ-RI
    Molecular point group: c1

    Geometry (in Angstrom), charge = -1, multiplicity = 1:

       Center              X                  Y                   Z               Mass
    ------------   -----------------  -----------------  -----------------  -----------------
         O            1.227059796006     1.240000727040    -0.186624570729    15.994914619570
         O           -1.243895203994     1.023863727040     0.419291429271    15.994914619570
         O           -1.431361203994    -1.157862272960    -0.217423570729    15.994914619570
         C            0.699317796006    -0.068880272960    -0.411462570729    12.000000000000
         C            1.468159796006    -1.099523272960     0.402149429271    12.000000000000
         C           -0.755600203994    -0.080220772960    -0.054182370729    12.000000000000
         H            0.784937796006    -0.315975272960    -1.480952570729     1.007825032230
         H            1.364899796006    -0.875404272960     1.468699429271     1.007825032230
         H            1.074730796006    -2.100758272960     0.212442429271     1.007825032230
         H            2.532243796006    -1.080599272960     0.147866429271     1.007825032230
         H            0.416136796006     1.686835727040     0.166052429271     1.007825032230

  Basis Set: AUG-CC-PVTZ
    Blend: AUG-CC-PVTZ
  Basis Set: (AUG-CC-PVTZ AUX)
    Blend: AUG-CC-PVTZ-JKFIT
	 Reference Energy          =    -341.2725871920167720 [Eh]
	 Singles Energy            =      -0.0000000000000000 [Eh]
	 Same-Spin Energy          =      -0.3376445161059758 [Eh]
	 Opposite-Spin Energy      =      -1.0214391761192774 [Eh]
	 Correlation Energy        =      -1.3590836922252532 [Eh]
	 Total Energy              =    -342.6316708842419985 [Eh]

	 ================> DF-SCS-MP2 Energies <==================
	-----------------------------------------------------------
	 SCS Same-Spin Scale       =       0.3333333333333333 [-]
	 SCS Opposite-Spin Scale   =       1.2000000000000000 [-]
	 SCS Same-Spin Energy      =      -0.1125481720353253 [Eh]
	 SCS Opposite-Spin Energy  =      -1.2257270113431329 [Eh]
	 SCS Correlation Energy    =      -1.3382751833784581 [Eh]
	 SCS Total Energy          =    -342.6108623753952429 [Eh]
	-----------------------------------------------------------

  Dipole Moment: [D]
     X:     4.0240      Y:    -0.6224      Z:    -0.3461     Total:     4.0865

*** Psi4 exiting successfully. Buy a developer a beer!
