                               Psi4 1.4a3.dev225

  ==> Input File <==

--------------------------------------------------------------------------
#psi4
#
memory 32 gb

molecule  {
-1 1
  O        1.1681810     1.2683390    -0.1935740
  O       -1.3027740     1.0522020     0.4123420
  O       -1.4902400    -1.1295240    -0.2243730
  C        0.6404390    -0.0405420    -0.4184120
  C        1.4092810    -1.0711850     0.3952000
  C       -0.8530698    -0.0351452    -0.0464249
  H        0.7260590    -0.2876370    -1.4879020
  H        1.3060210    -0.8470660     1.4617500
  H        1.0158520    -2.0724200     0.2054930
  H        2.4733650    -1.0522610     0.1409170
  H        0.3572580     1.7151740     0.1591030
units angstrom
no_reorient  #important for SAPT in psi4, default
symmetry c1  #important for SAPT in psi4, default
}

set PROPERTIES_ORIGIN ["COM"]
properties('MP2/aug-cc-pvtz', properties = ['dipole'])
--------------------------------------------------------------------------

    Molecular point group: c1
  Charge       = -1
  Multiplicity = 1
  Basis Set: AUG-CC-PVTZ
    Blend: AUG-CC-PVTZ
  Basis Set: (AUG-CC-PVTZ AUX)
    Blend: AUG-CC-PVTZ-JKFIT

    Orbital Energies [Eh]
    ---------------------

    Doubly Occupied:

       1A    -20.381849     2A    -20.323013     3A    -20.306992
       4A    -11.153918     5A    -11.116696     6A    -11.072811
       7A     -1.206760     8A     -1.161918     9A     -1.080319
      10A     -0.861878    11A     -0.702637    12A     -0.569565
      13A     -0.499761    14A     -0.477712    15A     -0.437366
      16A     -0.405629    17A     -0.401647    18A     -0.370810
      19A     -0.364343    20A     -0.349083    21A     -0.279588
      22A     -0.236055    23A     -0.214961    24A     -0.212280

  @DF-RHF Final Energy:  -341.27833858684403

   => Energetics <=

    Nuclear Repulsion Energy =            239.0241257532026680
    One-Electron Energy =                -952.2297460354975556
    Two-Electron Energy =                 371.9272816954508016
    Total Energy =                       -341.2783385868440291
  Basis Set: (AUG-CC-PVTZ AUX)
    Blend: AUG-CC-PVTZ-RI
    Molecular point group: c1

    Geometry (in Angstrom), charge = -1, multiplicity = 1:

       Center              X                  Y                   Z               Mass
    ------------   -----------------  -----------------  -----------------  -----------------
         O            1.232261654846     1.237744617502    -0.188606991870    15.994914619570
         O           -1.238693345154     1.021607617502     0.417309008130    15.994914619570
         O           -1.426159345154    -1.160118382498    -0.219405991870    15.994914619570
         C            0.704519654846    -0.071136382498    -0.413444991870    12.000000000000
         C            1.473361654846    -1.101779382498     0.400167008130    12.000000000000
         C           -0.788989145154    -0.065739582498    -0.041457891870    12.000000000000
         H            0.790139654846    -0.318231382498    -1.482934991870     1.007825032230
         H            1.370101654846    -0.877660382498     1.466717008130     1.007825032230
         H            1.079932654846    -2.103014382498     0.210460008130     1.007825032230
         H            2.537445654846    -1.082855382498     0.145884008130     1.007825032230
         H            0.421338654846     1.684579617502     0.164070008130     1.007825032230

  Basis Set: AUG-CC-PVTZ
    Blend: AUG-CC-PVTZ
  Basis Set: (AUG-CC-PVTZ AUX)
    Blend: AUG-CC-PVTZ-JKFIT
	 Reference Energy          =    -341.2783385868440291 [Eh]
	 Singles Energy            =      -0.0000000000000000 [Eh]
	 Same-Spin Energy          =      -0.3367614705961308 [Eh]
	 Opposite-Spin Energy      =      -1.0195749750259626 [Eh]
	 Correlation Energy        =      -1.3563364456220934 [Eh]
	 Total Energy              =    -342.6346750324661343 [Eh]

	 ================> DF-SCS-MP2 Energies <==================
	-----------------------------------------------------------
	 SCS Same-Spin Scale       =       0.3333333333333333 [-]
	 SCS Opposite-Spin Scale   =       1.2000000000000000 [-]
	 SCS Same-Spin Energy      =      -0.1122538235320436 [Eh]
	 SCS Opposite-Spin Energy  =      -1.2234899700311550 [Eh]
	 SCS Correlation Energy    =      -1.3357437935631986 [Eh]
	 SCS Total Energy          =    -342.6140823804072397 [Eh]
	-----------------------------------------------------------

  Dipole Moment: [D]
     X:     3.8206      Y:    -0.4380      Z:    -0.2587     Total:     3.8543

*** Psi4 exiting successfully. Buy a developer a beer!
