                               Psi4 1.3.2 release

  ==> Input File <==

--------------------------------------------------------------------------
#psi4
#
memory 32 gb

molecule  {
-1 1
  O       -1.1345620     1.3004230     0.1446500
  O        1.3369324     1.0383606    -0.3558711
  O        1.4222408    -1.1888536     0.1898825
  C       -0.6396870    -0.0151150     0.4106200
  C       -1.4459790    -1.0465850    -0.3602330
  C        0.8594390    -0.0718910     0.0480600
  H       -0.7136530    -0.2389580     1.4893480
  H       -1.3405200    -0.8612460    -1.4337260
  H       -1.0819010    -2.0514490    -0.1379210
  H       -2.5056370    -0.9845300    -0.0954150
  H       -0.3074570     1.7452560    -0.1655130
units angstrom
no_reorient  #important for SAPT in psi4, default
symmetry c1  #important for SAPT in psi4, default
}

set PROPERTIES_ORIGIN ["COM"]
properties('MP2/aug-cc-pvtz', properties = ['dipole'])
--------------------------------------------------------------------------

    Molecular point group: c1
  Charge       = -1
  Multiplicity = 1
  Basis Set: AUG-CC-PVTZ
    Blend: AUG-CC-PVTZ
  Basis Set: (AUG-CC-PVTZ AUX)
    Blend: AUG-CC-PVTZ-JKFIT

    Orbital Energies [Eh]
    ---------------------

    Doubly Occupied:

       1A    -20.379257     2A    -20.319781     3A    -20.312082
       4A    -11.153436     5A    -11.113646     6A    -11.070524
       7A     -1.204227     8A     -1.162209     9A     -1.086682
      10A     -0.860287    11A     -0.699842    12A     -0.565076
      13A     -0.501022    14A     -0.476892    15A     -0.436675
      16A     -0.404438    17A     -0.399887    18A     -0.371586
      19A     -0.364710    20A     -0.349198    21A     -0.277487
      22A     -0.236062    23A     -0.215892    24A     -0.213991

  @DF-RHF Final Energy:  -341.27963124633624

   => Energetics <=

    Nuclear Repulsion Energy =            239.2933658226882869
    One-Electron Energy =                -952.7962133666612772
    Two-Electron Energy =                 372.2232162976367249
    Total Energy =                       -341.2796312463362369
  Basis Set: (AUG-CC-PVTZ AUX)
    Blend: AUG-CC-PVTZ-RI
    Molecular point group: c1

    Geometry (in Angstrom), charge = -1, multiplicity = 1:

       Center              X                  Y                   Z               Mass
    ------------   -----------------  -----------------  -----------------  -----------------
         O           -1.193816591614     1.273685181100     0.139099329624    15.994914619570
         O            1.277677808386     1.011622781100    -0.361421770376    15.994914619570
         O            1.362986208386    -1.215591418900     0.184331829624    15.994914619570
         C           -0.698941591614    -0.041852818900     0.405069329624    12.000000000000
         C           -1.505233591614    -1.073322818900    -0.365783670376    12.000000000000
         C            0.800184408386    -0.098628818900     0.042509329624    12.000000000000
         H           -0.772907591614    -0.265695818900     1.483797329624     1.007825032230
         H           -1.399774591614    -0.887983818900    -1.439276670376     1.007825032230
         H           -1.141155591614    -2.078186818900    -0.143471670376     1.007825032230
         H           -2.564891591614    -1.011267818900    -0.100965670376     1.007825032230
         H           -0.366711591614     1.718518181100    -0.171063670376     1.007825032230

  Basis Set: AUG-CC-PVTZ
    Blend: AUG-CC-PVTZ
  Basis Set: (AUG-CC-PVTZ AUX)
    Blend: AUG-CC-PVTZ-JKFIT
	 Reference Energy          =    -341.2796312463362369 [Eh]
	 Singles Energy            =      -0.0000000000000000 [Eh]
	 Same-Spin Energy          =      -0.3366122393523050 [Eh]
	 Opposite-Spin Energy      =      -1.0191021346163720 [Eh]
	 Correlation Energy        =      -1.3557143739686770 [Eh]
	 Total Energy              =    -342.6353456203049177 [Eh]

	 ================> DF-SCS-MP2 Energies <==================
	-----------------------------------------------------------
	 SCS Same-Spin Scale       =       0.3333333333333333 [-]
	 SCS Opposite-Spin Scale   =       1.2000000000000000 [-]
	 SCS Same-Spin Energy      =      -0.1122040797841017 [Eh]
	 SCS Opposite-Spin Energy  =      -1.2229225615396464 [Eh]
	 SCS Correlation Energy    =      -1.3351266413237481 [Eh]
	 SCS Total Energy          =    -342.6147578876600051 [Eh]
	-----------------------------------------------------------

  Dipole Moment: [D]
     X:    -3.6747      Y:    -0.4784      Z:     0.3463     Total:     3.7219

*** Psi4 exiting successfully. Buy a developer a beer!
