                               Psi4 1.3.2 release

  ==> Input File <==

--------------------------------------------------------------------------
#psi4
#
memory 32 gb

molecule  {
-1 1
  O       -1.0889230     1.3135208     0.1292031
  O        1.3567840     1.0286670    -0.3584360
  O        1.4410930    -1.1800310     0.1828540
  C       -0.6396870    -0.0151150     0.4106200
  C       -1.4459790    -1.0465850    -0.3602330
  C        0.8568663    -0.0201388     0.0333206
  H       -0.7136530    -0.2389580     1.4893480
  H       -1.3405200    -0.8612460    -1.4337260
  H       -1.0819010    -2.0514490    -0.1379210
  H       -2.5056370    -0.9845300    -0.0954150
  H       -0.3074570     1.7452560    -0.1655130
units angstrom
no_reorient  #important for SAPT in psi4, default
symmetry c1  #important for SAPT in psi4, default
}

set PROPERTIES_ORIGIN ["COM"]
properties('MP2/aug-cc-pvtz', properties = ['dipole'])
--------------------------------------------------------------------------

    Molecular point group: c1
  Charge       = -1
  Multiplicity = 1
  Basis Set: AUG-CC-PVTZ
    Blend: AUG-CC-PVTZ
  Basis Set: (AUG-CC-PVTZ AUX)
    Blend: AUG-CC-PVTZ-JKFIT

    Orbital Energies [Eh]
    ---------------------

    Doubly Occupied:

       1A    -20.379000     2A    -20.327286     3A    -20.295803
       4A    -11.149765     5A    -11.117528     6A    -11.072588
       7A     -1.219784     8A     -1.170585     9A     -1.070198
      10A     -0.863374    11A     -0.703135    12A     -0.574477
      13A     -0.507907    14A     -0.479390    15A     -0.437676
      16A     -0.407799    17A     -0.400838    18A     -0.373980
      19A     -0.363356    20A     -0.351301    21A     -0.283576
      22A     -0.234245    23A     -0.207305    24A     -0.206539

  @DF-RHF Final Energy:  -341.27528389221408

   => Energetics <=

    Nuclear Repulsion Energy =            239.7171052406423541
    One-Electron Energy =                -953.5899085057558295
    Two-Electron Energy =                 372.5975193728993986
    Total Energy =                       -341.2752838922140768
  Basis Set: (AUG-CC-PVTZ AUX)
    Blend: AUG-CC-PVTZ-RI
    Molecular point group: c1

    Geometry (in Angstrom), charge = -1, multiplicity = 1:

       Center              X                  Y                   Z               Mass
    ------------   -----------------  -----------------  -----------------  -----------------
         O           -1.162984670876     1.277610238654     0.130138221209    15.994914619570
         O            1.282722329124     0.992756438654    -0.357500878791    15.994914619570
         O            1.367031329124    -1.215941561346     0.183789121209    15.994914619570
         C           -0.713748670876    -0.051025561346     0.411555121209    12.000000000000
         C           -1.520040670876    -1.082495561346    -0.359297878791    12.000000000000
         C            0.782804629124    -0.056049361346     0.034255721209    12.000000000000
         H           -0.787714670876    -0.274868561346     1.490283121209     1.007825032230
         H           -1.414581670876    -0.897156561346    -1.432790878791     1.007825032230
         H           -1.155962670876    -2.087359561346    -0.136985878791     1.007825032230
         H           -2.579698670876    -1.020440561346    -0.094479878791     1.007825032230
         H           -0.381518670876     1.709345438654    -0.164577878791     1.007825032230

  Basis Set: AUG-CC-PVTZ
    Blend: AUG-CC-PVTZ
  Basis Set: (AUG-CC-PVTZ AUX)
    Blend: AUG-CC-PVTZ-JKFIT
	 Reference Energy          =    -341.2752838922140768 [Eh]
	 Singles Energy            =      -0.0000000000000000 [Eh]
	 Same-Spin Energy          =      -0.3356088131409368 [Eh]
	 Opposite-Spin Energy      =      -1.0172540395883924 [Eh]
	 Correlation Energy        =      -1.3528628527293292 [Eh]
	 Total Energy              =    -342.6281467449434217 [Eh]

	 ================> DF-SCS-MP2 Energies <==================
	-----------------------------------------------------------
	 SCS Same-Spin Scale       =       0.3333333333333333 [-]
	 SCS Opposite-Spin Scale   =       1.2000000000000000 [-]
	 SCS Same-Spin Energy      =      -0.1118696043803123 [Eh]
	 SCS Opposite-Spin Energy  =      -1.2207048475060709 [Eh]
	 SCS Correlation Energy    =      -1.3325744518863831 [Eh]
	 SCS Total Energy          =    -342.6078583441004639 [Eh]
	-----------------------------------------------------------

  Dipole Moment: [D]
     X:    -3.9663      Y:     0.0684      Z:     0.2591     Total:     3.9753

*** Psi4 exiting successfully. Buy a developer a beer!
