                               Psi4 1.3.2 release

  ==> Input File <==

--------------------------------------------------------------------------
#psi4
#
memory 32 gb

molecule  {
-1 1
  O       -1.1517999     1.2906332     0.1294733
  O        1.3567840     1.0286670    -0.3584360
  O        1.4410930    -1.1800310     0.1828540
  C       -0.6396870    -0.0151150     0.4106200
  C       -1.4608313    -1.0270815    -0.3703393
  C        0.8594390    -0.0718910     0.0480600
  H       -0.7136530    -0.2389580     1.4893480
  H       -1.3405200    -0.8612460    -1.4337260
  H       -1.0819010    -2.0514490    -0.1379210
  H       -2.5056370    -0.9845300    -0.0954150
  H       -0.3074570     1.7452560    -0.1655130
units angstrom
no_reorient  #important for SAPT in psi4, default
symmetry c1  #important for SAPT in psi4, default
}

set PROPERTIES_ORIGIN ["COM"]
properties('MP2/aug-cc-pvtz', properties = ['dipole'])
--------------------------------------------------------------------------

    Molecular point group: c1
  Charge       = -1
  Multiplicity = 1
  Basis Set: AUG-CC-PVTZ
    Blend: AUG-CC-PVTZ
  Basis Set: (AUG-CC-PVTZ AUX)
    Blend: AUG-CC-PVTZ-JKFIT

    Orbital Energies [Eh]
    ---------------------

    Doubly Occupied:

       1A    -20.382107     2A    -20.318780     3A    -20.310612
       4A    -11.153103     5A    -11.116037     6A    -11.070952
       7A     -1.203126     8A     -1.162721     9A     -1.083635
      10A     -0.860356    11A     -0.701487    12A     -0.564807
      13A     -0.499653    14A     -0.477992    15A     -0.437058
      16A     -0.403110    17A     -0.400067    18A     -0.369696
      19A     -0.366343    20A     -0.348890    21A     -0.278323
      22A     -0.234245    23A     -0.215795    24A     -0.213862

  @DF-RHF Final Energy:  -341.27772699483722

   => Energetics <=

    Nuclear Repulsion Energy =            238.9274752470936392
    One-Electron Energy =                -952.0648895726815226
    Two-Electron Energy =                 371.8596873307506598
    Total Energy =                       -341.2777269948372236
  Basis Set: (AUG-CC-PVTZ AUX)
    Blend: AUG-CC-PVTZ-RI
    Molecular point group: c1

    Geometry (in Angstrom), charge = -1, multiplicity = 1:

       Center              X                  Y                   Z               Mass
    ------------   -----------------  -----------------  -----------------  -----------------
         O           -1.212909248541     1.263181826242     0.129735354237    15.994914619570
         O            1.295674651459     1.001215626242    -0.358173945763    15.994914619570
         O            1.379983651459    -1.207482373758     0.183116054237    15.994914619570
         C           -0.700796348541    -0.042566373758     0.410882054237    12.000000000000
         C           -1.521940648541    -1.054532873758    -0.370077245763    12.000000000000
         C            0.798329651459    -0.099342373758     0.048322054237    12.000000000000
         H           -0.774762348541    -0.266409373758     1.489610054237     1.007825032230
         H           -1.401629348541    -0.888697373758    -1.433463945763     1.007825032230
         H           -1.143010348541    -2.078900373758    -0.137658945763     1.007825032230
         H           -2.566746348541    -1.011981373758    -0.095152945763     1.007825032230
         H           -0.368566348541     1.717804626242    -0.165250945763     1.007825032230

  Basis Set: AUG-CC-PVTZ
    Blend: AUG-CC-PVTZ
  Basis Set: (AUG-CC-PVTZ AUX)
    Blend: AUG-CC-PVTZ-JKFIT
	 Reference Energy          =    -341.2777269948372236 [Eh]
	 Singles Energy            =      -0.0000000000000000 [Eh]
	 Same-Spin Energy          =      -0.3367931537733574 [Eh]
	 Opposite-Spin Energy      =      -1.0196275922117466 [Eh]
	 Correlation Energy        =      -1.3564207459851039 [Eh]
	 Total Energy              =    -342.6341477408223000 [Eh]

	 ================> DF-SCS-MP2 Energies <==================
	-----------------------------------------------------------
	 SCS Same-Spin Scale       =       0.3333333333333333 [-]
	 SCS Opposite-Spin Scale   =       1.2000000000000000 [-]
	 SCS Same-Spin Energy      =      -0.1122643845911191 [Eh]
	 SCS Opposite-Spin Energy  =      -1.2235531106540958 [Eh]
	 SCS Correlation Energy    =      -1.3358174952452149 [Eh]
	 SCS Total Energy          =    -342.6135444900824609 [Eh]
	-----------------------------------------------------------

  Dipole Moment: [D]
     X:    -3.7707      Y:    -0.4381      Z:     0.3746     Total:     3.8145

*** Psi4 exiting successfully. Buy a developer a beer!
