                               Psi4 1.3.2 release

  ==> Input File <==

--------------------------------------------------------------------------
#psi4
#
memory 32 gb

molecule  {
-1 1
  O       -1.1370209     1.3018952     0.1567998
  O        1.3567840     1.0286670    -0.3584360
  O        1.4410930    -1.1800310     0.1828540
  C       -0.6396870    -0.0151150     0.4106200
  C       -1.4459790    -1.0465850    -0.3602330
  C        0.8594390    -0.0718910     0.0480600
  H       -0.7174388    -0.2302265     1.4908572
  H       -1.3405200    -0.8612460    -1.4337260
  H       -1.0819010    -2.0514490    -0.1379210
  H       -2.5056370    -0.9845300    -0.0954150
  H       -0.3074570     1.7452560    -0.1655130
units angstrom
no_reorient  #important for SAPT in psi4, default
symmetry c1  #important for SAPT in psi4, default
}

set PROPERTIES_ORIGIN ["COM"]
properties('MP2/aug-cc-pvtz', properties = ['dipole'])
--------------------------------------------------------------------------

    Molecular point group: c1
  Charge       = -1
  Multiplicity = 1
  Basis Set: AUG-CC-PVTZ
    Blend: AUG-CC-PVTZ
  Basis Set: (AUG-CC-PVTZ AUX)
    Blend: AUG-CC-PVTZ-JKFIT

    Orbital Energies [Eh]
    ---------------------

    Doubly Occupied:

       1A    -20.381827     2A    -20.318087     3A    -20.310258
       4A    -11.152588     5A    -11.116093     6A    -11.072053
       7A     -1.203770     8A     -1.163115     9A     -1.083189
      10A     -0.861734    11A     -0.701232    12A     -0.566374
      13A     -0.499186    14A     -0.477324    15A     -0.436818
      16A     -0.404876    17A     -0.400287    18A     -0.372009
      19A     -0.365743    20A     -0.349467    21A     -0.278617
      22A     -0.233773    23A     -0.215307    24A     -0.213553

  @DF-RHF Final Energy:  -341.27949076224581

   => Energetics <=

    Nuclear Repulsion Energy =            238.9410587560637964
    One-Electron Energy =                -952.0865378795230072
    Two-Electron Energy =                 371.8659883612133399
    Total Energy =                       -341.2794907622458140
  Basis Set: (AUG-CC-PVTZ AUX)
    Blend: AUG-CC-PVTZ-RI
    Molecular point group: c1

    Geometry (in Angstrom), charge = -1, multiplicity = 1:

       Center              X                  Y                   Z               Mass
    ------------   -----------------  -----------------  -----------------  -----------------
         O           -1.202744752760     1.274950515602     0.150772735936    15.994914619570
         O            1.291060147240     1.001722315602    -0.364463064064    15.994914619570
         O            1.375369147240    -1.206975684398     0.176826935936    15.994914619570
         C           -0.705410852760    -0.042059684398     0.404592935936    12.000000000000
         C           -1.511702852760    -1.073529684398    -0.366260064064    12.000000000000
         C            0.793715147240    -0.098835684398     0.042032935936    12.000000000000
         H           -0.783162652760    -0.257171184398     1.484830135936     1.007825032230
         H           -1.406243852760    -0.888190684398    -1.439753064064     1.007825032230
         H           -1.147624852760    -2.078393684398    -0.143948064064     1.007825032230
         H           -2.571360852760    -1.011474684398    -0.101442064064     1.007825032230
         H           -0.373180852760     1.718311315602    -0.171540064064     1.007825032230

  Basis Set: AUG-CC-PVTZ
    Blend: AUG-CC-PVTZ
  Basis Set: (AUG-CC-PVTZ AUX)
    Blend: AUG-CC-PVTZ-JKFIT
	 Reference Energy          =    -341.2794907622458140 [Eh]
	 Singles Energy            =      -0.0000000000000000 [Eh]
	 Same-Spin Energy          =      -0.3365628378637630 [Eh]
	 Opposite-Spin Energy      =      -1.0191719860985895 [Eh]
	 Correlation Energy        =      -1.3557348239623526 [Eh]
	 Total Energy              =    -342.6352255862081506 [Eh]

	 ================> DF-SCS-MP2 Energies <==================
	-----------------------------------------------------------
	 SCS Same-Spin Scale       =       0.3333333333333333 [-]
	 SCS Opposite-Spin Scale   =       1.2000000000000000 [-]
	 SCS Same-Spin Energy      =      -0.1121876126212543 [Eh]
	 SCS Opposite-Spin Energy  =      -1.2230063833183074 [Eh]
	 SCS Correlation Energy    =      -1.3351939959395618 [Eh]
	 SCS Total Energy          =    -342.6146847581853763 [Eh]
	-----------------------------------------------------------

  Dipole Moment: [D]
     X:    -3.7887      Y:    -0.4825      Z:     0.3504     Total:     3.8353

*** Psi4 exiting successfully. Buy a developer a beer!
