                               Psi4 1.3.2 release

  ==> Input File <==

--------------------------------------------------------------------------
#psi4
#
memory 32 gb

molecule  {
-1 1
  O       -1.1345620     1.3004230     0.1446500
  O        1.3567840     1.0286670    -0.3584360
  O        1.4410930    -1.1800310     0.1828540
  C       -0.6511260    -0.0186431     0.4141605
  C       -1.4459790    -1.0465850    -0.3602330
  C        0.8594390    -0.0718910     0.0480600
  H       -0.7136530    -0.2389580     1.4893480
  H       -1.3405200    -0.8612460    -1.4337260
  H       -1.0819010    -2.0514490    -0.1379210
  H       -2.5056370    -0.9845300    -0.0954150
  H       -0.3118661     1.7525911    -0.1666306
units angstrom
no_reorient  #important for SAPT in psi4, default
symmetry c1  #important for SAPT in psi4, default
}

set PROPERTIES_ORIGIN ["COM"]
properties('MP2/aug-cc-pvtz', properties = ['dipole'])
--------------------------------------------------------------------------

    Molecular point group: c1
  Charge       = -1
  Multiplicity = 1
  Basis Set: AUG-CC-PVTZ
    Blend: AUG-CC-PVTZ
  Basis Set: (AUG-CC-PVTZ AUX)
    Blend: AUG-CC-PVTZ-JKFIT

    Orbital Energies [Eh]
    ---------------------

    Doubly Occupied:

       1A    -20.381444     2A    -20.317417     3A    -20.309814
       4A    -11.152359     5A    -11.115866     6A    -11.071634
       7A     -1.203240     8A     -1.162965     9A     -1.082442
      10A     -0.863190    11A     -0.699637    12A     -0.565724
      13A     -0.500846    14A     -0.477492    15A     -0.436004
      16A     -0.405440    17A     -0.400580    18A     -0.372307
      19A     -0.364675    20A     -0.349169    21A     -0.280571
      22A     -0.232750    23A     -0.213335    24A     -0.212807

  @DF-RHF Final Energy:  -341.27960848476187

   => Energetics <=

    Nuclear Repulsion Energy =            238.8915291758926855
    One-Electron Energy =                -951.9988608739332676
    Two-Electron Energy =                 371.8277232132786594
    Total Energy =                       -341.2796084847618658
  Basis Set: (AUG-CC-PVTZ AUX)
    Blend: AUG-CC-PVTZ-RI
    Molecular point group: c1

    Geometry (in Angstrom), charge = -1, multiplicity = 1:

       Center              X                  Y                   Z               Mass
    ------------   -----------------  -----------------  -----------------  -----------------
         O           -1.199178663386     1.274234205466     0.140358384756    15.994914619570
         O            1.292167336614     1.002478205466    -0.362727615244    15.994914619570
         O            1.376476336614    -1.206219794534     0.178562384756    15.994914619570
         C           -0.715742663386    -0.044831894534     0.409868884756    12.000000000000
         C           -1.510595663386    -1.072773794534    -0.364524615244    12.000000000000
         C            0.794822336614    -0.098079794534     0.043768384756    12.000000000000
         H           -0.778269663386    -0.265146794534     1.485056384756     1.007825032230
         H           -1.405136663386    -0.887434794534    -1.438017615244     1.007825032230
         H           -1.146517663386    -2.077637794534    -0.142212615244     1.007825032230
         H           -2.570253663386    -1.010718794534    -0.099706615244     1.007825032230
         H           -0.376482763386     1.726402305466    -0.170922215244     1.007825032230

  Basis Set: AUG-CC-PVTZ
    Blend: AUG-CC-PVTZ
  Basis Set: (AUG-CC-PVTZ AUX)
    Blend: AUG-CC-PVTZ-JKFIT
	 Reference Energy          =    -341.2796084847618658 [Eh]
	 Singles Energy            =      -0.0000000000000000 [Eh]
	 Same-Spin Energy          =      -0.3364469784985920 [Eh]
	 Opposite-Spin Energy      =      -1.0188965405820141 [Eh]
	 Correlation Energy        =      -1.3553435190806060 [Eh]
	 Total Energy              =    -342.6349520038424998 [Eh]

	 ================> DF-SCS-MP2 Energies <==================
	-----------------------------------------------------------
	 SCS Same-Spin Scale       =       0.3333333333333333 [-]
	 SCS Opposite-Spin Scale   =       1.2000000000000000 [-]
	 SCS Same-Spin Energy      =      -0.1121489928328640 [Eh]
	 SCS Opposite-Spin Energy  =      -1.2226758486984168 [Eh]
	 SCS Correlation Energy    =      -1.3348248415312809 [Eh]
	 SCS Total Energy          =    -342.6144333262931241 [Eh]
	-----------------------------------------------------------

  Dipole Moment: [D]
     X:    -3.8100      Y:    -0.4747      Z:     0.3670     Total:     3.8570

*** Psi4 exiting successfully. Buy a developer a beer!
