                               Psi4 1.3.2 release

  ==> Input File <==

--------------------------------------------------------------------------
#psi4
#
memory 32 gb

molecule  {
-1 1
  O       -1.1345620     1.3004230     0.1446500
  O        1.3169353     1.0477161    -0.3531832
  O        1.4032172    -1.1973361     0.1968678
  C       -0.6396870    -0.0151150     0.4106200
  C       -1.4459790    -1.0465850    -0.3602330
  C        0.8594390    -0.0718910     0.0480600
  H       -0.7136530    -0.2389580     1.4893480
  H       -1.3405200    -0.8612460    -1.4337260
  H       -1.0819010    -2.0514490    -0.1379210
  H       -2.5056370    -0.9845300    -0.0954150
  H       -0.3074570     1.7452560    -0.1655130
units angstrom
no_reorient  #important for SAPT in psi4, default
symmetry c1  #important for SAPT in psi4, default
}

set PROPERTIES_ORIGIN ["COM"]
properties('MP2/aug-cc-pvtz', properties = ['dipole'])
--------------------------------------------------------------------------

    Molecular point group: c1
  Charge       = -1
  Multiplicity = 1
  Basis Set: AUG-CC-PVTZ
    Blend: AUG-CC-PVTZ
  Basis Set: (AUG-CC-PVTZ AUX)
    Blend: AUG-CC-PVTZ-JKFIT

    Orbital Energies [Eh]
    ---------------------

    Doubly Occupied:

       1A    -20.376743     2A    -20.321783     3A    -20.314067
       4A    -11.154570     5A    -11.111012     6A    -11.069145
       7A     -1.204267     8A     -1.160929     9A     -1.090263
      10A     -0.858565    11A     -0.698294    12A     -0.563627
      13A     -0.502044    14A     -0.476142    15A     -0.436772
      16A     -0.404756    17A     -0.399095    18A     -0.370834
      19A     -0.363390    20A     -0.349093    21A     -0.275877
      22A     -0.238659    23A     -0.218247    24A     -0.212665

  @DF-RHF Final Energy:  -341.27886186191000

   => Energetics <=

    Nuclear Repulsion Energy =            239.5723723310404694
    One-Electron Energy =                -953.3607896406236932
    Two-Electron Energy =                 372.5095554476732218
    Total Energy =                       -341.2788618619100021
  Basis Set: (AUG-CC-PVTZ AUX)
    Blend: AUG-CC-PVTZ-RI
    Molecular point group: c1

    Geometry (in Angstrom), charge = -1, multiplicity = 1:

       Center              X                  Y                   Z               Mass
    ------------   -----------------  -----------------  -----------------  -----------------
         O           -1.186805744166     1.273528329228     0.137361346206    15.994914619570
         O            1.264691555834     1.020821429228    -0.360471853794    15.994914619570
         O            1.350973455834    -1.224230770772     0.189579146206    15.994914619570
         C           -0.691930744166    -0.042009670772     0.403331346206    12.000000000000
         C           -1.498222744166    -1.073479670772    -0.367521653794    12.000000000000
         C            0.807195255834    -0.098785670772     0.040771346206    12.000000000000
         H           -0.765896744166    -0.265852670772     1.482059346206     1.007825032230
         H           -1.392763744166    -0.888140670772    -1.441014653794     1.007825032230
         H           -1.134144744166    -2.078343670772    -0.145209653794     1.007825032230
         H           -2.557880744166    -1.011424670772    -0.102703653794     1.007825032230
         H           -0.359700744166     1.718361329228    -0.172801653794     1.007825032230

  Basis Set: AUG-CC-PVTZ
    Blend: AUG-CC-PVTZ
  Basis Set: (AUG-CC-PVTZ AUX)
    Blend: AUG-CC-PVTZ-JKFIT
	 Reference Energy          =    -341.2788618619100021 [Eh]
	 Singles Energy            =      -0.0000000000000000 [Eh]
	 Same-Spin Energy          =      -0.3367680775249935 [Eh]
	 Opposite-Spin Energy      =      -1.0192685755193893 [Eh]
	 Correlation Energy        =      -1.3560366530443828 [Eh]
	 Total Energy              =    -342.6348985149543864 [Eh]

	 ================> DF-SCS-MP2 Energies <==================
	-----------------------------------------------------------
	 SCS Same-Spin Scale       =       0.3333333333333333 [-]
	 SCS Opposite-Spin Scale   =       1.2000000000000000 [-]
	 SCS Same-Spin Energy      =      -0.1122560258416645 [Eh]
	 SCS Opposite-Spin Energy  =      -1.2231222906232670 [Eh]
	 SCS Correlation Energy    =      -1.3353783164649315 [Eh]
	 SCS Total Energy          =    -342.6142401783749278 [Eh]
	-----------------------------------------------------------

  Dipole Moment: [D]
     X:    -3.5504      Y:    -0.4829      Z:     0.3257     Total:     3.5978

*** Psi4 exiting successfully. Buy a developer a beer!
