                               Psi4 1.3.2 release

  ==> Input File <==

--------------------------------------------------------------------------
#psi4
#
memory 32 gb

molecule  {
-1 1
  O       -1.1345620     1.3004230     0.1446500
  O        1.3567840     1.0286670    -0.3584360
  O        1.4410930    -1.1800310     0.1828540
  C       -0.6626018    -0.0220707     0.4176804
  C       -1.4459790    -1.0465850    -0.3602330
  C        0.8594390    -0.0718910     0.0480600
  H       -0.7136530    -0.2389580     1.4893480
  H       -1.3405200    -0.8612460    -1.4337260
  H       -1.0819010    -2.0514490    -0.1379210
  H       -2.5056370    -0.9845300    -0.0954150
  H       -0.3163378     1.7598917    -0.1677245
units angstrom
no_reorient  #important for SAPT in psi4, default
symmetry c1  #important for SAPT in psi4, default
}

set PROPERTIES_ORIGIN ["COM"]
properties('MP2/aug-cc-pvtz', properties = ['dipole'])
--------------------------------------------------------------------------

    Molecular point group: c1
  Charge       = -1
  Multiplicity = 1
  Basis Set: AUG-CC-PVTZ
    Blend: AUG-CC-PVTZ
  Basis Set: (AUG-CC-PVTZ AUX)
    Blend: AUG-CC-PVTZ-JKFIT

    Orbital Energies [Eh]
    ---------------------

    Doubly Occupied:

       1A    -20.381179     2A    -20.317118     3A    -20.309581
       4A    -11.152383     5A    -11.115525     6A    -11.071400
       7A     -1.202176     8A     -1.162502     9A     -1.081945
      10A     -0.864415    11A     -0.697996    12A     -0.564861
      13A     -0.501547    14A     -0.477465    15A     -0.435346
      16A     -0.406483    17A     -0.400871    18A     -0.372461
      19A     -0.363181    20A     -0.349107    21A     -0.281975
      22A     -0.232026    23A     -0.212728    24A     -0.211086

  @DF-RHF Final Energy:  -341.27909053571000

   => Energetics <=

    Nuclear Repulsion Energy =            238.7540188120025846
    One-Electron Energy =                -951.7355063991644784
    Two-Electron Energy =                 371.7023970514518396
    Total Energy =                       -341.2790905357099973
  Basis Set: (AUG-CC-PVTZ AUX)
    Blend: AUG-CC-PVTZ-RI
    Molecular point group: c1

    Geometry (in Angstrom), charge = -1, multiplicity = 1:

       Center              X                  Y                   Z               Mass
    ------------   -----------------  -----------------  -----------------  -----------------
         O           -1.197581155967     1.274613580940     0.139896302612    15.994914619570
         O            1.293764844033     1.002857580940    -0.363189697388    15.994914619570
         O            1.378073844033    -1.205840419060     0.178100302612    15.994914619570
         C           -0.725620955967    -0.047880119060     0.412926702612    12.000000000000
         C           -1.508998155967    -1.072394419060    -0.364986697388    12.000000000000
         C            0.796419844033    -0.097700419060     0.043306302612    12.000000000000
         H           -0.776672155967    -0.264767419060     1.484594302612     1.007825032230
         H           -1.403539155967    -0.887055419060    -1.438479697388     1.007825032230
         H           -1.144920155967    -2.077258419060    -0.142674697388     1.007825032230
         H           -2.568656155967    -1.010339419060    -0.100168697388     1.007825032230
         H           -0.379356955967     1.734082280940    -0.172478197388     1.007825032230

  Basis Set: AUG-CC-PVTZ
    Blend: AUG-CC-PVTZ
  Basis Set: (AUG-CC-PVTZ AUX)
    Blend: AUG-CC-PVTZ-JKFIT
	 Reference Energy          =    -341.2790905357099973 [Eh]
	 Singles Energy            =      -0.0000000000000000 [Eh]
	 Same-Spin Energy          =      -0.3364294586629238 [Eh]
	 Opposite-Spin Energy      =      -1.0188436442185707 [Eh]
	 Correlation Energy        =      -1.3552731028814944 [Eh]
	 Total Energy              =    -342.6343636385914806 [Eh]

	 ================> DF-SCS-MP2 Energies <==================
	-----------------------------------------------------------
	 SCS Same-Spin Scale       =       0.3333333333333333 [-]
	 SCS Opposite-Spin Scale   =       1.2000000000000000 [-]
	 SCS Same-Spin Energy      =      -0.1121431528876413 [Eh]
	 SCS Opposite-Spin Energy  =      -1.2226123730622847 [Eh]
	 SCS Correlation Energy    =      -1.3347555259499260 [Eh]
	 SCS Total Energy          =    -342.6138460616598991 [Eh]
	-----------------------------------------------------------

  Dipole Moment: [D]
     X:    -3.8219      Y:    -0.4746      Z:     0.3671     Total:     3.8687

*** Psi4 exiting successfully. Buy a developer a beer!
