                               Psi4 1.3.2 release

  ==> Input File <==

--------------------------------------------------------------------------
#psi4
#
memory 32 gb

molecule  {
-1 1
  O       -1.1345620     1.3004230     0.1446500
  O        1.3567840     1.0286670    -0.3584360
  O        1.4410930    -1.1800310     0.1828540
  C       -0.6396870    -0.0151150     0.4106200
  C       -1.4459790    -1.0465850    -0.3602330
  C        0.8204099    -0.1582573     0.0799598
  H       -0.7136530    -0.2389580     1.4893480
  H       -1.3405200    -0.8612460    -1.4337260
  H       -1.0819010    -2.0514490    -0.1379210
  H       -2.5056370    -0.9845300    -0.0954150
  H       -0.3074570     1.7452560    -0.1655130
units angstrom
no_reorient  #important for SAPT in psi4, default
symmetry c1  #important for SAPT in psi4, default
}

set PROPERTIES_ORIGIN ["COM"]
properties('MP2/aug-cc-pvtz', properties = ['dipole'])
--------------------------------------------------------------------------

    Molecular point group: c1
  Charge       = -1
  Multiplicity = 1
  Basis Set: AUG-CC-PVTZ
    Blend: AUG-CC-PVTZ
  Basis Set: (AUG-CC-PVTZ AUX)
    Blend: AUG-CC-PVTZ-JKFIT

    Orbital Energies [Eh]
    ---------------------

    Doubly Occupied:

       1A    -20.381704     2A    -20.329389     3A    -20.295756
       4A    -11.152875     5A    -11.119956     6A    -11.075787
       7A     -1.209624     8A     -1.179256     9A     -1.044358
      10A     -0.871406    11A     -0.713046    12A     -0.569524
      13A     -0.499500    14A     -0.483223    15A     -0.437959
      16A     -0.408179    17A     -0.395514    18A     -0.376575
      19A     -0.371584    20A     -0.350913    21A     -0.278818
      22A     -0.219816    23A     -0.215874    24A     -0.204429

  @DF-RHF Final Energy:  -341.26362298970423

   => Energetics <=

    Nuclear Repulsion Energy =            239.0767611955467942
    One-Electron Energy =                -952.3106416517741764
    Two-Electron Energy =                 371.9702574665230941
    Total Energy =                       -341.2636229897042313
  Basis Set: (AUG-CC-PVTZ AUX)
    Blend: AUG-CC-PVTZ-RI
    Molecular point group: c1

    Geometry (in Angstrom), charge = -1, multiplicity = 1:

       Center              X                  Y                   Z               Mass
    ------------   -----------------  -----------------  -----------------  -----------------
         O           -1.195509562029     1.285483445792     0.136523031956    15.994914619570
         O            1.295836437971     1.013727445792    -0.366562968044    15.994914619570
         O            1.380145437971    -1.194970554208     0.174727031956    15.994914619570
         C           -0.700634562029    -0.030054554208     0.402493031956    12.000000000000
         C           -1.506926562029    -1.061524554208    -0.368359968044    12.000000000000
         C            0.759462337971    -0.173196854208     0.071832831956    12.000000000000
         H           -0.774600562029    -0.253897554208     1.481221031956     1.007825032230
         H           -1.401467562029    -0.876185554208    -1.441852968044     1.007825032230
         H           -1.142848562029    -2.066388554208    -0.146047968044     1.007825032230
         H           -2.566584562029    -0.999469554208    -0.103541968044     1.007825032230
         H           -0.368404562029     1.730316445792    -0.173639968044     1.007825032230

  Basis Set: AUG-CC-PVTZ
    Blend: AUG-CC-PVTZ
  Basis Set: (AUG-CC-PVTZ AUX)
    Blend: AUG-CC-PVTZ-JKFIT
	 Reference Energy          =    -341.2636229897042313 [Eh]
	 Singles Energy            =      -0.0000000000000000 [Eh]
	 Same-Spin Energy          =      -0.3373907416791638 [Eh]
	 Opposite-Spin Energy      =      -1.0209682936113680 [Eh]
	 Correlation Energy        =      -1.3583590352905319 [Eh]
	 Total Energy              =    -342.6219820249947361 [Eh]

	 ================> DF-SCS-MP2 Energies <==================
	-----------------------------------------------------------
	 SCS Same-Spin Scale       =       0.3333333333333333 [-]
	 SCS Opposite-Spin Scale   =       1.2000000000000000 [-]
	 SCS Same-Spin Energy      =      -0.1124635805597213 [Eh]
	 SCS Opposite-Spin Energy  =      -1.2251619523336414 [Eh]
	 SCS Correlation Energy    =      -1.3376255328933628 [Eh]
	 SCS Total Energy          =    -342.6012485225975865 [Eh]
	-----------------------------------------------------------

  Dipole Moment: [D]
     X:    -3.9835      Y:    -1.3852      Z:     0.6250     Total:     4.2635

*** Psi4 exiting successfully. Buy a developer a beer!
