                               Psi4 1.3.2 release

  ==> Input File <==

--------------------------------------------------------------------------
#psi4
#
memory 32 gb

molecule  {
-1 1
  O       -1.1345620     1.3004230     0.1446500
  O        1.3567840     1.0286670    -0.3584360
  O        1.4410930    -1.1800310     0.1828540
  C       -0.6396870    -0.0151150     0.4106200
  C       -1.4459790    -1.0465850    -0.3602330
  C        0.8984681     0.0144753     0.0161602
  H       -0.7136530    -0.2389580     1.4893480
  H       -1.3405200    -0.8612460    -1.4337260
  H       -1.0819010    -2.0514490    -0.1379210
  H       -2.5056370    -0.9845300    -0.0954150
  H       -0.3074570     1.7452560    -0.1655130
units angstrom
no_reorient  #important for SAPT in psi4, default
symmetry c1  #important for SAPT in psi4, default
}

set PROPERTIES_ORIGIN ["COM"]
properties('MP2/aug-cc-pvtz', properties = ['dipole'])
--------------------------------------------------------------------------

    Molecular point group: c1
  Charge       = -1
  Multiplicity = 1
  Basis Set: AUG-CC-PVTZ
    Blend: AUG-CC-PVTZ
  Basis Set: (AUG-CC-PVTZ AUX)
    Blend: AUG-CC-PVTZ-JKFIT

    Orbital Energies [Eh]
    ---------------------

    Doubly Occupied:

       1A    -20.382074     2A    -20.340640     3A    -20.290695
       4A    -11.149556     5A    -11.111905     6A    -11.067733
       7A     -1.239207     8A     -1.175322     9A     -1.067561
      10A     -0.853263    11A     -0.689634    12A     -0.565624
      13A     -0.514425    14A     -0.478648    15A     -0.436640
      16A     -0.407162    17A     -0.399888    18A     -0.376624
      19A     -0.367472    20A     -0.361796    21A     -0.279448
      22A     -0.236446    23A     -0.208333    24A     -0.197528

  @DF-RHF Final Energy:  -341.26735897566186

   => Energetics <=

    Nuclear Repulsion Energy =            239.2087097051650346
    One-Electron Energy =                -952.5568893715307013
    Two-Electron Energy =                 372.0808206907038311
    Total Energy =                       -341.2673589756618640
  Basis Set: (AUG-CC-PVTZ AUX)
    Blend: AUG-CC-PVTZ-RI
    Molecular point group: c1

    Geometry (in Angstrom), charge = -1, multiplicity = 1:

       Center              X                  Y                   Z               Mass
    ------------   -----------------  -----------------  -----------------  -----------------
         O           -1.206031441276     1.262199901471     0.145122918800    15.994914619570
         O            1.285314558724     0.990443901471    -0.357963081200    15.994914619570
         O            1.369623558724    -1.218254098529     0.183326918800    15.994914619570
         C           -0.711156441276    -0.053338098529     0.411092918800    12.000000000000
         C           -1.517448441276    -1.084808098529    -0.359760081200    12.000000000000
         C            0.826998658724    -0.023747798529     0.016633118800    12.000000000000
         H           -0.785122441276    -0.277181098529     1.489820918800     1.007825032230
         H           -1.411989441276    -0.899469098529    -1.433253081200     1.007825032230
         H           -1.153370441276    -2.089672098529    -0.137448081200     1.007825032230
         H           -2.577106441276    -1.022753098529    -0.094942081200     1.007825032230
         H           -0.378926441276     1.707032901471    -0.165040081200     1.007825032230

  Basis Set: AUG-CC-PVTZ
    Blend: AUG-CC-PVTZ
  Basis Set: (AUG-CC-PVTZ AUX)
    Blend: AUG-CC-PVTZ-JKFIT
	 Reference Energy          =    -341.2673589756618640 [Eh]
	 Singles Energy            =      -0.0000000000000000 [Eh]
	 Same-Spin Energy          =      -0.3356882096315928 [Eh]
	 Opposite-Spin Energy      =      -1.0174449407267869 [Eh]
	 Correlation Energy        =      -1.3531331503583797 [Eh]
	 Total Energy              =    -342.6204921260202241 [Eh]

	 ================> DF-SCS-MP2 Energies <==================
	-----------------------------------------------------------
	 SCS Same-Spin Scale       =       0.3333333333333333 [-]
	 SCS Opposite-Spin Scale   =       1.2000000000000000 [-]
	 SCS Same-Spin Energy      =      -0.1118960698771976 [Eh]
	 SCS Opposite-Spin Energy  =      -1.2209339288721444 [Eh]
	 SCS Correlation Energy    =      -1.3328299987493419 [Eh]
	 SCS Total Energy          =    -342.6001889744111963 [Eh]
	-----------------------------------------------------------

  Dipole Moment: [D]
     X:    -3.6304      Y:     0.4733      Z:     0.1033     Total:     3.6626

*** Psi4 exiting successfully. Buy a developer a beer!
