                               Psi4 1.3.2 release

  ==> Input File <==

--------------------------------------------------------------------------
#psi4
#
memory 32 gb

molecule  {
-1 1
  O       -1.1345620     1.3004230     0.1446500
  O        1.3567840     1.0286670    -0.3584360
  O        1.4504586    -1.1754872     0.1793466
  C       -0.6399190    -0.0020479     0.4073642
  C       -1.4459790    -1.0465850    -0.3602330
  C        0.8594390    -0.0718910     0.0480600
  H       -0.7136530    -0.2389580     1.4893480
  H       -1.3405200    -0.8612460    -1.4337260
  H       -1.0819010    -2.0514490    -0.1379210
  H       -2.5056370    -0.9845300    -0.0954150
  H       -0.3074570     1.7452560    -0.1655130
units angstrom
no_reorient  #important for SAPT in psi4, default
symmetry c1  #important for SAPT in psi4, default
}

set PROPERTIES_ORIGIN ["COM"]
properties('MP2/aug-cc-pvtz', properties = ['dipole'])
--------------------------------------------------------------------------

    Molecular point group: c1
  Charge       = -1
  Multiplicity = 1
  Basis Set: AUG-CC-PVTZ
    Blend: AUG-CC-PVTZ
  Basis Set: (AUG-CC-PVTZ AUX)
    Blend: AUG-CC-PVTZ-JKFIT

    Orbital Energies [Eh]
    ---------------------

    Doubly Occupied:

       1A    -20.383613     2A    -20.316974     3A    -20.309809
       4A    -11.151905     5A    -11.117049     6A    -11.071935
       7A     -1.207530     8A     -1.165888     9A     -1.082038
      10A     -0.860296    11A     -0.701342    12A     -0.568566
      13A     -0.500340    14A     -0.478234    15A     -0.437388
      16A     -0.404960    17A     -0.399208    18A     -0.374912
      19A     -0.365928    20A     -0.349639    21A     -0.277565
      22A     -0.232821    23A     -0.215232    24A     -0.212781

  @DF-RHF Final Energy:  -341.27981718629218

   => Energetics <=

    Nuclear Repulsion Energy =            239.0715882625492270
    One-Electron Energy =                -952.3309064646125535
    Two-Electron Energy =                 371.9795010157711772
    Total Energy =                       -341.2798171862921777
  Basis Set: (AUG-CC-PVTZ AUX)
    Blend: AUG-CC-PVTZ-RI
    Molecular point group: c1

    Geometry (in Angstrom), charge = -1, multiplicity = 1:

       Center              X                  Y                   Z               Mass
    ------------   -----------------  -----------------  -----------------  -----------------
         O           -1.202421946079     1.271263905494     0.141892016351    15.994914619570
         O            1.288924053921     0.999507905494    -0.361193983649    15.994914619570
         O            1.382598653921    -1.204646294506     0.176588616351    15.994914619570
         C           -0.707778946079    -0.031206994506     0.404606216351    12.000000000000
         C           -1.513838946079    -1.075744094506    -0.362990983649    12.000000000000
         C            0.791579053921    -0.101050094506     0.045302016351    12.000000000000
         H           -0.781512946079    -0.268117094506     1.486590016351     1.007825032230
         H           -1.408379946079    -0.890405094506    -1.436483983649     1.007825032230
         H           -1.149760946079    -2.080608094506    -0.140678983649     1.007825032230
         H           -2.573496946079    -1.013689094506    -0.098172983649     1.007825032230
         H           -0.375316946079     1.716096905494    -0.168270983649     1.007825032230

  Basis Set: AUG-CC-PVTZ
    Blend: AUG-CC-PVTZ
  Basis Set: (AUG-CC-PVTZ AUX)
    Blend: AUG-CC-PVTZ-JKFIT
	 Reference Energy          =    -341.2798171862921777 [Eh]
	 Singles Energy            =      -0.0000000000000000 [Eh]
	 Same-Spin Energy          =      -0.3364528398631872 [Eh]
	 Opposite-Spin Energy      =      -1.0187722654348881 [Eh]
	 Correlation Energy        =      -1.3552251052980753 [Eh]
	 Total Energy              =    -342.6350422915902527 [Eh]

	 ================> DF-SCS-MP2 Energies <==================
	-----------------------------------------------------------
	 SCS Same-Spin Scale       =       0.3333333333333333 [-]
	 SCS Opposite-Spin Scale   =       1.2000000000000000 [-]
	 SCS Same-Spin Energy      =      -0.1121509466210624 [Eh]
	 SCS Opposite-Spin Energy  =      -1.2225267185218656 [Eh]
	 SCS Correlation Energy    =      -1.3346776651429280 [Eh]
	 SCS Total Energy          =    -342.6144948514350972 [Eh]
	-----------------------------------------------------------

  Dipole Moment: [D]
     X:    -3.8286      Y:    -0.4228      Z:     0.3634     Total:     3.8689

*** Psi4 exiting successfully. Buy a developer a beer!
