                               Psi4 1.3.2 release

  ==> Input File <==

--------------------------------------------------------------------------
#psi4
#
memory 32 gb

molecule  {
-1 1
  O       -1.1345620     1.3004230     0.1446500
  O        1.3567840     1.0286670    -0.3584360
  O        1.4410930    -1.1800310     0.1828540
  C       -0.6396870    -0.0151150     0.4106200
  C       -1.4459790    -1.0465850    -0.3602330
  C        0.8594390    -0.0718910     0.0480600
  H       -0.7136530    -0.2389580     1.4893480
  H       -1.3405200    -0.8612460    -1.4337260
  H       -1.0819010    -2.0514490    -0.1379210
  H       -2.5056370    -0.9845300    -0.0954150
  H       -0.2238291     1.7902327    -0.1968733
units angstrom
no_reorient  #important for SAPT in psi4, default
symmetry c1  #important for SAPT in psi4, default
}

set PROPERTIES_ORIGIN ["COM"]
properties('MP2/aug-cc-pvtz', properties = ['dipole'])
--------------------------------------------------------------------------

    Molecular point group: c1
  Charge       = -1
  Multiplicity = 1
  Basis Set: AUG-CC-PVTZ
    Blend: AUG-CC-PVTZ
  Basis Set: (AUG-CC-PVTZ AUX)
    Blend: AUG-CC-PVTZ-JKFIT

    Orbital Energies [Eh]
    ---------------------

    Doubly Occupied:

       1A    -20.380826     2A    -20.323156     3A    -20.311810
       4A    -11.153866     5A    -11.114063     6A    -11.070507
       7A     -1.198121     8A     -1.150415     9A     -1.085985
      10A     -0.857216    11A     -0.698464    12A     -0.555288
      13A     -0.497215    14A     -0.475364    15A     -0.435515
      16A     -0.403144    17A     -0.396811    18A     -0.369320
      19A     -0.354774    20A     -0.349258    21A     -0.273271
      22A     -0.236594    23A     -0.216724    24A     -0.215188

  @DF-RHF Final Energy:  -341.26797335218589

   => Energetics <=

    Nuclear Repulsion Energy =            238.6204744306497219
    One-Electron Energy =                -951.5311071347121015
    Two-Electron Energy =                 371.6426593518765458
    Total Energy =                       -341.2679733521858907
  Basis Set: (AUG-CC-PVTZ AUX)
    Blend: AUG-CC-PVTZ-RI
    Molecular point group: c1

    Geometry (in Angstrom), charge = -1, multiplicity = 1:

       Center              X                  Y                   Z               Mass
    ------------   -----------------  -----------------  -----------------  -----------------
         O           -1.201717239779     1.273332499579     0.141178000336    15.994914619570
         O            1.289628760221     1.001576499579    -0.361907999664    15.994914619570
         O            1.373937760221    -1.207121500421     0.179382000336    15.994914619570
         C           -0.706842239779    -0.042205500421     0.407148000336    12.000000000000
         C           -1.513134239779    -1.073675500421    -0.363704999664    12.000000000000
         C            0.792283760221    -0.098981500421     0.044588000336    12.000000000000
         H           -0.780808239779    -0.266048500421     1.485876000336     1.007825032230
         H           -1.407675239779    -0.888336500421    -1.437197999664     1.007825032230
         H           -1.149056239779    -2.078539500421    -0.141392999664     1.007825032230
         H           -2.572792239779    -1.011620500421    -0.098886999664     1.007825032230
         H           -0.290984339779     1.763142199579    -0.200345299664     1.007825032230

  Basis Set: AUG-CC-PVTZ
    Blend: AUG-CC-PVTZ
  Basis Set: (AUG-CC-PVTZ AUX)
    Blend: AUG-CC-PVTZ-JKFIT
	 Reference Energy          =    -341.2679733521858907 [Eh]
	 Singles Energy            =      -0.0000000000000000 [Eh]
	 Same-Spin Energy          =      -0.3382383721976762 [Eh]
	 Opposite-Spin Energy      =      -1.0223402539675379 [Eh]
	 Correlation Energy        =      -1.3605786261652142 [Eh]
	 Total Energy              =    -342.6285519783510836 [Eh]

	 ================> DF-SCS-MP2 Energies <==================
	-----------------------------------------------------------
	 SCS Same-Spin Scale       =       0.3333333333333333 [-]
	 SCS Opposite-Spin Scale   =       1.2000000000000000 [-]
	 SCS Same-Spin Energy      =      -0.1127461240658921 [Eh]
	 SCS Opposite-Spin Energy  =      -1.2268083047610454 [Eh]
	 SCS Correlation Energy    =      -1.3395544288269374 [Eh]
	 SCS Total Energy          =    -342.6075277810128341 [Eh]
	-----------------------------------------------------------

  Dipole Moment: [D]
     X:    -3.5210      Y:    -0.4811      Z:     0.3093     Total:     3.5671

*** Psi4 exiting successfully. Buy a developer a beer!
