                               Psi4 1.3.2 release

  ==> Input File <==

--------------------------------------------------------------------------
#psi4
#
memory 32 gb

molecule  {
-1 1
  O       -1.1345620     1.3004230     0.1446500
  O        1.3567840     1.0286670    -0.3584360
  O        1.4410930    -1.1800310     0.1828540
  C       -0.6396870    -0.0151150     0.4106200
  C       -1.5521194    -1.1823679    -0.4617082
  C        0.8594390    -0.0718910     0.0480600
  H       -0.7136530    -0.2389580     1.4893480
  H       -1.3405200    -0.8612460    -1.4337260
  H       -1.0819010    -2.0514490    -0.1379210
  H       -2.5056370    -0.9845300    -0.0954150
  H       -0.3074570     1.7452560    -0.1655130
units angstrom
no_reorient  #important for SAPT in psi4, default
symmetry c1  #important for SAPT in psi4, default
}

set PROPERTIES_ORIGIN ["COM"]
properties('MP2/aug-cc-pvtz', properties = ['dipole'])
--------------------------------------------------------------------------

    Molecular point group: c1
  Charge       = -1
  Multiplicity = 1
  Basis Set: AUG-CC-PVTZ
    Blend: AUG-CC-PVTZ
  Basis Set: (AUG-CC-PVTZ AUX)
    Blend: AUG-CC-PVTZ-JKFIT

    Orbital Energies [Eh]
    ---------------------

    Doubly Occupied:

       1A    -20.384250     2A    -20.318034     3A    -20.310126
       4A    -11.152843     5A    -11.126304     6A    -11.068747
       7A     -1.203585     8A     -1.163486     9A     -1.082847
      10A     -0.841042    11A     -0.712221    12A     -0.562085
      13A     -0.498728    14A     -0.474809    15A     -0.442374
      16A     -0.421696    17A     -0.409445    18A     -0.376938
      19A     -0.362936    20A     -0.347112    21A     -0.251878
      22A     -0.233983    23A     -0.214903    24A     -0.212917

  @DF-RHF Final Energy:  -341.25306419326500

   => Energetics <=

    Nuclear Repulsion Energy =            236.0074054231124023
    One-Electron Energy =                -946.1743669792274432
    Two-Electron Energy =                 368.9138973628499798
    Total Energy =                       -341.2530641932650042
  Basis Set: (AUG-CC-PVTZ AUX)
    Blend: AUG-CC-PVTZ-RI
    Molecular point group: c1

    Geometry (in Angstrom), charge = -1, multiplicity = 1:

       Center              X                  Y                   Z               Mass
    ------------   -----------------  -----------------  -----------------  -----------------
         O           -1.186463273557     1.292144571696     0.154501356395    15.994914619570
         O            1.304882726443     1.020388571696    -0.348584643605    15.994914619570
         O            1.389191726443    -1.188309428304     0.192705356395    15.994914619570
         C           -0.691588273557    -0.023393428304     0.420471356395    12.000000000000
         C           -1.604020673557    -1.190646328304    -0.451856843605    12.000000000000
         C            0.807537726443    -0.080169428304     0.057911356395    12.000000000000
         H           -0.765554273557    -0.247236428304     1.499199356395     1.007825032230
         H           -1.392421273557    -0.869524428304    -1.423874643605     1.007825032230
         H           -1.133802273557    -2.059727428304    -0.128069643605     1.007825032230
         H           -2.557538273557    -0.992808428304    -0.085563643605     1.007825032230
         H           -0.359358273557     1.736977571696    -0.155661643605     1.007825032230

  Basis Set: AUG-CC-PVTZ
    Blend: AUG-CC-PVTZ
  Basis Set: (AUG-CC-PVTZ AUX)
    Blend: AUG-CC-PVTZ-JKFIT
	 Reference Energy          =    -341.2530641932650042 [Eh]
	 Singles Energy            =      -0.0000000000000000 [Eh]
	 Same-Spin Energy          =      -0.3368305454357707 [Eh]
	 Opposite-Spin Energy      =      -1.0205585087023410 [Eh]
	 Correlation Energy        =      -1.3573890541381117 [Eh]
	 Total Energy              =    -342.6104532474031430 [Eh]

	 ================> DF-SCS-MP2 Energies <==================
	-----------------------------------------------------------
	 SCS Same-Spin Scale       =       0.3333333333333333 [-]
	 SCS Opposite-Spin Scale   =       1.2000000000000000 [-]
	 SCS Same-Spin Energy      =      -0.1122768484785902 [Eh]
	 SCS Opposite-Spin Energy  =      -1.2246702104428091 [Eh]
	 SCS Correlation Energy    =      -1.3369470589213994 [Eh]
	 SCS Total Energy          =    -342.5900112521864003 [Eh]
	-----------------------------------------------------------

  Dipole Moment: [D]
     X:    -3.7697      Y:    -0.3310      Z:     0.4152     Total:     3.8069

*** Psi4 exiting successfully. Buy a developer a beer!
