                               Psi4 1.3.2 release

  ==> Input File <==

--------------------------------------------------------------------------
#psi4
#
memory 32 gb

molecule  {
-1 1
  O       -1.1345620     1.3004230     0.1446500
  O        1.3567840     1.0286670    -0.3584360
  O        1.4965976    -1.1515150     0.1616648
  C       -0.6393663     0.0631878     0.3906798
  C       -1.4459790    -1.0465850    -0.3602330
  C        0.8594390    -0.0718910     0.0480600
  H       -0.7136530    -0.2389580     1.4893480
  H       -1.3405200    -0.8612460    -1.4337260
  H       -1.0819010    -2.0514490    -0.1379210
  H       -2.5056370    -0.9845300    -0.0954150
  H       -0.3074570     1.7452560    -0.1655130
units angstrom
no_reorient  #important for SAPT in psi4, default
symmetry c1  #important for SAPT in psi4, default
}

set PROPERTIES_ORIGIN ["COM"]
properties('MP2/aug-cc-pvtz', properties = ['dipole'])
--------------------------------------------------------------------------

    Molecular point group: c1
  Charge       = -1
  Multiplicity = 1
  Basis Set: AUG-CC-PVTZ
    Blend: AUG-CC-PVTZ
  Basis Set: (AUG-CC-PVTZ AUX)
    Blend: AUG-CC-PVTZ-JKFIT

    Orbital Energies [Eh]
    ---------------------

    Doubly Occupied:

       1A    -20.393000     2A    -20.313409     3A    -20.308841
       4A    -11.150278     5A    -11.122232     6A    -11.072032
       7A     -1.230680     8A     -1.173938     9A     -1.077755
      10A     -0.851788    11A     -0.701250    12A     -0.581805
      13A     -0.500153    14A     -0.483790    15A     -0.443580
      16A     -0.406746    17A     -0.397014    18A     -0.385219
      19A     -0.363782    20A     -0.352250    21A     -0.266710
      22A     -0.229522    23A     -0.215141    24A     -0.210389

  @DF-RHF Final Energy:  -341.27314425524634

   => Energetics <=

    Nuclear Repulsion Energy =            239.3437420257658914
    One-Electron Energy =                -952.7711694468342785
    Two-Electron Energy =                 372.1542831658220507
    Total Energy =                       -341.2731442552463363
  Basis Set: (AUG-CC-PVTZ AUX)
    Blend: AUG-CC-PVTZ-RI
    Molecular point group: c1

    Geometry (in Angstrom), charge = -1, multiplicity = 1:

       Center              X                  Y                   Z               Mass
    ------------   -----------------  -----------------  -----------------  -----------------
         O           -1.210786239542     1.258163354989     0.147317883443    15.994914619570
         O            1.280559760458     0.986407354989    -0.355768116557    15.994914619570
         O            1.420373360458    -1.193774645011     0.164332683443    15.994914619570
         C           -0.715590539542     0.020928154989     0.393347683443    12.000000000000
         C           -1.522203239542    -1.088844645011    -0.357565116557    12.000000000000
         C            0.783214760458    -0.114150645011     0.050727883443    12.000000000000
         H           -0.789877239542    -0.281217645011     1.492015883443     1.007825032230
         H           -1.416744239542    -0.903505645011    -1.431058116557     1.007825032230
         H           -1.158125239542    -2.093708645011    -0.135253116557     1.007825032230
         H           -2.581861239542    -1.026789645011    -0.092747116557     1.007825032230
         H           -0.383681239542     1.702996354989    -0.162845116557     1.007825032230

  Basis Set: AUG-CC-PVTZ
    Blend: AUG-CC-PVTZ
  Basis Set: (AUG-CC-PVTZ AUX)
    Blend: AUG-CC-PVTZ-JKFIT
	 Reference Energy          =    -341.2731442552463363 [Eh]
	 Singles Energy            =      -0.0000000000000000 [Eh]
	 Same-Spin Energy          =      -0.3365727913630382 [Eh]
	 Opposite-Spin Energy      =      -1.0182195176974329 [Eh]
	 Correlation Energy        =      -1.3547923090604712 [Eh]
	 Total Energy              =    -342.6279365643068218 [Eh]

	 ================> DF-SCS-MP2 Energies <==================
	-----------------------------------------------------------
	 SCS Same-Spin Scale       =       0.3333333333333333 [-]
	 SCS Opposite-Spin Scale   =       1.2000000000000000 [-]
	 SCS Same-Spin Energy      =      -0.1121909304543461 [Eh]
	 SCS Opposite-Spin Energy  =      -1.2218634212369195 [Eh]
	 SCS Correlation Energy    =      -1.3340543516912655 [Eh]
	 SCS Total Energy          =    -342.6071986069376294 [Eh]
	-----------------------------------------------------------

  Dipole Moment: [D]
     X:    -3.9698      Y:    -0.1575      Z:     0.3379     Total:     3.9873

*** Psi4 exiting successfully. Buy a developer a beer!
