                               Psi4 1.4a3.dev225

  ==> Input File <==

--------------------------------------------------------------------------
#psi4
#
memory 32 gb

molecule  {
-1 1
  O        1.1681810     1.2683390    -0.1935740
  O       -1.3027740     1.0522020     0.4123420
  O       -1.4902400    -1.1295240    -0.2243730
  C        0.6404390    -0.0405420    -0.4184120
  C        1.4092810    -1.0711850     0.3952000
  C       -0.8879479    -0.0950505    -0.0561656
  H        0.7260590    -0.2876370    -1.4879020
  H        1.3060210    -0.8470660     1.4617500
  H        1.0158520    -2.0724200     0.2054930
  H        2.4733650    -1.0522610     0.1409170
  H        0.3572580     1.7151740     0.1591030
units angstrom
no_reorient  #important for SAPT in psi4, default
symmetry c1  #important for SAPT in psi4, default
}

set PROPERTIES_ORIGIN ["COM"]
properties('MP2/aug-cc-pvtz', properties = ['dipole'])
--------------------------------------------------------------------------

    Molecular point group: c1
  Charge       = -1
  Multiplicity = 1
  Basis Set: AUG-CC-PVTZ
    Blend: AUG-CC-PVTZ
  Basis Set: (AUG-CC-PVTZ AUX)
    Blend: AUG-CC-PVTZ-JKFIT

    Orbital Energies [Eh]
    ---------------------

    Doubly Occupied:

       1A    -20.377974     2A    -20.322895     3A    -20.309216
       4A    -11.152707     5A    -11.113170     6A    -11.071017
       7A     -1.207867     8A     -1.174157     9A     -1.081423
      10A     -0.858899    11A     -0.694458    12A     -0.562323
      13A     -0.498934    14A     -0.477249    15A     -0.435280
      16A     -0.408454    17A     -0.400751    18A     -0.374817
      19A     -0.368443    20A     -0.355223    21A     -0.275100
      22A     -0.232468    23A     -0.217458    24A     -0.210932

  @DF-RHF Final Energy:  -341.27757878628074

   => Energetics <=

    Nuclear Repulsion Energy =            238.8946726910114364
    One-Electron Energy =                -951.9820721272548099
    Two-Electron Energy =                 371.8098206499626031
    Total Energy =                       -341.2775787862807420
  Basis Set: (AUG-CC-PVTZ AUX)
    Blend: AUG-CC-PVTZ-RI
    Molecular point group: c1

    Geometry (in Angstrom), charge = -1, multiplicity = 1:

       Center              X                  Y                   Z               Mass
    ------------   -----------------  -----------------  -----------------  -----------------
         O            1.236963059139     1.245819570972    -0.187293991196    15.994914619570
         O           -1.233991940861     1.029682570972     0.418622008804    15.994914619570
         O           -1.421457940861    -1.152043429028    -0.218092991196    15.994914619570
         C            0.709221059139    -0.063061429028    -0.412131991196    12.000000000000
         C            1.478063059139    -1.093704429028     0.401480008804    12.000000000000
         C           -0.819165840861    -0.117569929028    -0.049885591196    12.000000000000
         H            0.794841059139    -0.310156429028    -1.481621991196     1.007825032230
         H            1.374803059139    -0.869585429028     1.468030008804     1.007825032230
         H            1.084634059139    -2.094939429028     0.211773008804     1.007825032230
         H            2.542147059139    -1.074780429028     0.147197008804     1.007825032230
         H            0.426040059139     1.692654570972     0.165383008804     1.007825032230

  Basis Set: AUG-CC-PVTZ
    Blend: AUG-CC-PVTZ
  Basis Set: (AUG-CC-PVTZ AUX)
    Blend: AUG-CC-PVTZ-JKFIT
	 Reference Energy          =    -341.2775787862807420 [Eh]
	 Singles Energy            =      -0.0000000000000000 [Eh]
	 Same-Spin Energy          =      -0.3362753258031160 [Eh]
	 Opposite-Spin Energy      =      -1.0184687716972589 [Eh]
	 Correlation Energy        =      -1.3547440975003748 [Eh]
	 Total Energy              =    -342.6323228837811143 [Eh]

	 ================> DF-SCS-MP2 Energies <==================
	-----------------------------------------------------------
	 SCS Same-Spin Scale       =       0.3333333333333333 [-]
	 SCS Opposite-Spin Scale   =       1.2000000000000000 [-]
	 SCS Same-Spin Energy      =      -0.1120917752677053 [Eh]
	 SCS Opposite-Spin Energy  =      -1.2221625260367106 [Eh]
	 SCS Correlation Energy    =      -1.3342543013044159 [Eh]
	 SCS Total Energy          =    -342.6118330875851825 [Eh]
	-----------------------------------------------------------

  Dipole Moment: [D]
     X:     3.5484      Y:    -1.0584      Z:    -0.4031     Total:     3.7247

*** Psi4 exiting successfully. Buy a developer a beer!
