                               Psi4 1.3.2 release

  ==> Input File <==

--------------------------------------------------------------------------
#psi4
#
memory 32 gb

molecule  {
-1 1
  O       -1.1571589     1.2932720     0.1524961
  O        1.3567840     1.0286670    -0.3584360
  O        1.4410930    -1.1800310     0.1828540
  C       -0.6396870    -0.0151150     0.4106200
  C       -1.4459790    -1.0465850    -0.3602330
  C        0.8600405    -0.0977451     0.0555965
  H       -0.7136530    -0.2389580     1.4893480
  H       -1.3405200    -0.8612460    -1.4337260
  H       -1.0819010    -2.0514490    -0.1379210
  H       -2.5056370    -0.9845300    -0.0954150
  H       -0.3074570     1.7452560    -0.1655130
units angstrom
no_reorient  #important for SAPT in psi4, default
symmetry c1  #important for SAPT in psi4, default
}

set PROPERTIES_ORIGIN ["COM"]
properties('MP2/aug-cc-pvtz', properties = ['dipole'])
--------------------------------------------------------------------------

    Molecular point group: c1
  Charge       = -1
  Multiplicity = 1
  Basis Set: AUG-CC-PVTZ
    Blend: AUG-CC-PVTZ
  Basis Set: (AUG-CC-PVTZ AUX)
    Blend: AUG-CC-PVTZ-JKFIT

    Orbital Energies [Eh]
    ---------------------

    Doubly Occupied:

       1A    -20.382786     2A    -20.317158     3A    -20.313014
       4A    -11.153219     5A    -11.115770     6A    -11.071561
       7A     -1.201378     8A     -1.166388     9A     -1.080236
      10A     -0.861438    11A     -0.700882    12A     -0.563054
      13A     -0.497599    14A     -0.477957    15A     -0.436309
      16A     -0.404531    17A     -0.398474    18A     -0.373862
      19A     -0.366198    20A     -0.350468    21A     -0.276939
      22A     -0.231439    23A     -0.216985    24A     -0.214846

  @DF-RHF Final Energy:  -341.27671930916051

   => Energetics <=

    Nuclear Repulsion Energy =            238.7416510714463698
    One-Electron Energy =                -951.6917609857364369
    Two-Electron Energy =                 371.6733906051296117
    Total Energy =                       -341.2767193091605122
  Basis Set: (AUG-CC-PVTZ AUX)
    Blend: AUG-CC-PVTZ-RI
    Molecular point group: c1

    Geometry (in Angstrom), charge = -1, multiplicity = 1:

       Center              X                  Y                   Z               Mass
    ------------   -----------------  -----------------  -----------------  -----------------
         O           -1.219388497005     1.271460504904     0.146243482086    15.994914619570
         O            1.294554402995     1.006855504904    -0.364688617914    15.994914619570
         O            1.378863402995    -1.201842495096     0.176601382086    15.994914619570
         C           -0.701916597005    -0.036926495096     0.404367382086    12.000000000000
         C           -1.508208597005    -1.068396495096    -0.366485617914    12.000000000000
         C            0.797810902995    -0.119556595096     0.049343882086    12.000000000000
         H           -0.775882597005    -0.260769495096     1.483095382086     1.007825032230
         H           -1.402749597005    -0.883057495096    -1.439978617914     1.007825032230
         H           -1.144130597005    -2.073260495096    -0.144173617914     1.007825032230
         H           -2.567866597005    -1.006341495096    -0.101667617914     1.007825032230
         H           -0.369686597005     1.723444504904    -0.171765617914     1.007825032230

  Basis Set: AUG-CC-PVTZ
    Blend: AUG-CC-PVTZ
  Basis Set: (AUG-CC-PVTZ AUX)
    Blend: AUG-CC-PVTZ-JKFIT
	 Reference Energy          =    -341.2767193091605122 [Eh]
	 Singles Energy            =      -0.0000000000000000 [Eh]
	 Same-Spin Energy          =      -0.3369527509109585 [Eh]
	 Opposite-Spin Energy      =      -1.0199553874366463 [Eh]
	 Correlation Energy        =      -1.3569081383476047 [Eh]
	 Total Energy              =    -342.6336274475081041 [Eh]

	 ================> DF-SCS-MP2 Energies <==================
	-----------------------------------------------------------
	 SCS Same-Spin Scale       =       0.3333333333333333 [-]
	 SCS Opposite-Spin Scale   =       1.2000000000000000 [-]
	 SCS Same-Spin Energy      =      -0.1123175836369862 [Eh]
	 SCS Opposite-Spin Energy  =      -1.2239464649239755 [Eh]
	 SCS Correlation Energy    =      -1.3362640485609616 [Eh]
	 SCS Total Energy          =    -342.6129833577214754 [Eh]
	-----------------------------------------------------------

  Dipole Moment: [D]
     X:    -3.7170      Y:    -0.7462      Z:     0.4211     Total:     3.8144

*** Psi4 exiting successfully. Buy a developer a beer!
