                               Psi4 1.3.2 release

  ==> Input File <==

--------------------------------------------------------------------------
#psi4
#
memory 32 gb

molecule  {
-1 1
  O       -1.1345620     1.3004230     0.1446500
  O        1.3468768     1.0335559    -0.3571690
  O        1.4316887    -1.1844847     0.1863735
  C       -0.6396870    -0.0151150     0.4106200
  C       -1.4459790    -1.0465850    -0.3602330
  C        0.8594390    -0.0718910     0.0480600
  H       -0.7136530    -0.2389580     1.4893480
  H       -1.3405200    -0.8612460    -1.4337260
  H       -1.0819010    -2.0514490    -0.1379210
  H       -2.5056370    -0.9845300    -0.0954150
  H       -0.3074570     1.7452560    -0.1655130
units angstrom
no_reorient  #important for SAPT in psi4, default
symmetry c1  #important for SAPT in psi4, default
}

set PROPERTIES_ORIGIN ["COM"]
properties('MP2/aug-cc-pvtz', properties = ['dipole'])
--------------------------------------------------------------------------

    Molecular point group: c1
  Charge       = -1
  Multiplicity = 1
  Basis Set: AUG-CC-PVTZ
    Blend: AUG-CC-PVTZ
  Basis Set: (AUG-CC-PVTZ AUX)
    Blend: AUG-CC-PVTZ-JKFIT

    Orbital Energies [Eh]
    ---------------------

    Doubly Occupied:

       1A    -20.380493     2A    -20.318760     3A    -20.311073
       4A    -11.152875     5A    -11.114950     6A    -11.071208
       7A     -1.204261     8A     -1.162831     9A     -1.084833
      10A     -0.861141    11A     -0.700617    12A     -0.565800
      13A     -0.500589    14A     -0.477208    15A     -0.436677
      16A     -0.404474    17A     -0.400054    18A     -0.371948
      19A     -0.365364    20A     -0.349211    21A     -0.278294
      22A     -0.234767    23A     -0.214901    24A     -0.214297

  @DF-RHF Final Energy:  -341.27977616765941

   => Energetics <=

    Nuclear Repulsion Energy =            239.1597261348322832
    One-Electron Energy =                -952.5257577344068523
    Two-Electron Energy =                 372.0862554319152196
    Total Energy =                       -341.2797761676594064
  Basis Set: (AUG-CC-PVTZ AUX)
    Blend: AUG-CC-PVTZ-RI
    Molecular point group: c1

    Geometry (in Angstrom), charge = -1, multiplicity = 1:

       Center              X                  Y                   Z               Mass
    ------------   -----------------  -----------------  -----------------  -----------------
         O           -1.197300805299     1.273763481267     0.139962985135    15.994914619570
         O            1.284137994701     1.006896381267    -0.361856014865    15.994914619570
         O            1.368949894701    -1.211144218733     0.181686485135    15.994914619570
         C           -0.702425805299    -0.041774518733     0.405932985135    12.000000000000
         C           -1.508717805299    -1.073244518733    -0.364920014865    12.000000000000
         C            0.796700194701    -0.098550518733     0.043372985135    12.000000000000
         H           -0.776391805299    -0.265617518733     1.484660985135     1.007825032230
         H           -1.403258805299    -0.887905518733    -1.438413014865     1.007825032230
         H           -1.144639805299    -2.078108518733    -0.142608014865     1.007825032230
         H           -2.568375805299    -1.011189518733    -0.100102014865     1.007825032230
         H           -0.370195805299     1.718596481267    -0.170200014865     1.007825032230

  Basis Set: AUG-CC-PVTZ
    Blend: AUG-CC-PVTZ
  Basis Set: (AUG-CC-PVTZ AUX)
    Blend: AUG-CC-PVTZ-JKFIT
	 Reference Energy          =    -341.2797761676594064 [Eh]
	 Singles Energy            =      -0.0000000000000000 [Eh]
	 Same-Spin Energy          =      -0.3365447375035375 [Eh]
	 Opposite-Spin Energy      =      -1.0190366782160289 [Eh]
	 Correlation Energy        =      -1.3555814157195665 [Eh]
	 Total Energy              =    -342.6353575833789478 [Eh]

	 ================> DF-SCS-MP2 Energies <==================
	-----------------------------------------------------------
	 SCS Same-Spin Scale       =       0.3333333333333333 [-]
	 SCS Opposite-Spin Scale   =       1.2000000000000000 [-]
	 SCS Same-Spin Energy      =      -0.1121815791678458 [Eh]
	 SCS Opposite-Spin Energy  =      -1.2228440138592347 [Eh]
	 SCS Correlation Energy    =      -1.3350255930270805 [Eh]
	 SCS Total Energy          =    -342.6148017606864755 [Eh]
	-----------------------------------------------------------

  Dipole Moment: [D]
     X:    -3.7363      Y:    -0.4763      Z:     0.3565     Total:     3.7834

*** Psi4 exiting successfully. Buy a developer a beer!
