                               Psi4 1.3.2 release

  ==> Input File <==

--------------------------------------------------------------------------
#psi4
#
memory 32 gb

molecule  {
-1 1
  O       -1.1345620     1.3004230     0.1446500
  O        1.3764953     1.0186495    -0.3608327
  O        1.4410930    -1.1800310     0.1828540
  C       -0.6388685    -0.0412490     0.4170962
  C       -1.4459790    -1.0465850    -0.3602330
  C        0.8594390    -0.0718910     0.0480600
  H       -0.7136530    -0.2389580     1.4893480
  H       -1.3405200    -0.8612460    -1.4337260
  H       -1.0819010    -2.0514490    -0.1379210
  H       -2.5056370    -0.9845300    -0.0954150
  H       -0.3074570     1.7452560    -0.1655130
units angstrom
no_reorient  #important for SAPT in psi4, default
symmetry c1  #important for SAPT in psi4, default
}

set PROPERTIES_ORIGIN ["COM"]
properties('MP2/aug-cc-pvtz', properties = ['dipole'])
--------------------------------------------------------------------------

    Molecular point group: c1
  Charge       = -1
  Multiplicity = 1
  Basis Set: AUG-CC-PVTZ
    Blend: AUG-CC-PVTZ
  Basis Set: (AUG-CC-PVTZ AUX)
    Blend: AUG-CC-PVTZ-JKFIT

    Orbital Energies [Eh]
    ---------------------

    Doubly Occupied:

       1A    -20.380275     2A    -20.317180     3A    -20.308537
       4A    -11.152122     5A    -11.117453     6A    -11.073131
       7A     -1.199304     8A     -1.159088     9A     -1.081022
      10A     -0.867068    11A     -0.703082    12A     -0.564458
      13A     -0.499084    14A     -0.476745    15A     -0.435865
      16A     -0.404703    17A     -0.401784    18A     -0.369566
      19A     -0.365114    20A     -0.348361    21A     -0.283108
      22A     -0.232530    23A     -0.215156    24A     -0.211884

  @DF-RHF Final Energy:  -341.27815970733946

   => Energetics <=

    Nuclear Repulsion Energy =            238.7042255741639281
    One-Electron Energy =                -951.6315343082121672
    Two-Electron Energy =                 371.6491490267087556
    Total Energy =                       -341.2781597073394551
  Basis Set: (AUG-CC-PVTZ AUX)
    Blend: AUG-CC-PVTZ-RI
    Molecular point group: c1

    Geometry (in Angstrom), charge = -1, multiplicity = 1:

       Center              X                  Y                   Z               Mass
    ------------   -----------------  -----------------  -----------------  -----------------
         O           -1.204422360015     1.279164258040     0.140380628977    15.994914619570
         O            1.306634939985     0.997390758040    -0.365102071023    15.994914619570
         O            1.371232639985    -1.201289741960     0.178584628977    15.994914619570
         C           -0.708728860015    -0.062507741960     0.412826828977    12.000000000000
         C           -1.515839360015    -1.067843741960    -0.364502371023    12.000000000000
         C            0.789578639985    -0.093149741960     0.043790628977    12.000000000000
         H           -0.783513360015    -0.260216741960     1.485078628977     1.007825032230
         H           -1.410380360015    -0.882504741960    -1.437995371023     1.007825032230
         H           -1.151761360015    -2.072707741960    -0.142190371023     1.007825032230
         H           -2.575497360015    -1.005788741960    -0.099684371023     1.007825032230
         H           -0.377317360015     1.723997258040    -0.169782371023     1.007825032230

  Basis Set: AUG-CC-PVTZ
    Blend: AUG-CC-PVTZ
  Basis Set: (AUG-CC-PVTZ AUX)
    Blend: AUG-CC-PVTZ-JKFIT
	 Reference Energy          =    -341.2781597073394551 [Eh]
	 Singles Energy            =      -0.0000000000000000 [Eh]
	 Same-Spin Energy          =      -0.3364879262743510 [Eh]
	 Opposite-Spin Energy      =      -1.0194057923779456 [Eh]
	 Correlation Energy        =      -1.3558937186522966 [Eh]
	 Total Energy              =    -342.6340534259917376 [Eh]

	 ================> DF-SCS-MP2 Energies <==================
	-----------------------------------------------------------
	 SCS Same-Spin Scale       =       0.3333333333333333 [-]
	 SCS Opposite-Spin Scale   =       1.2000000000000000 [-]
	 SCS Same-Spin Energy      =      -0.1121626420914503 [Eh]
	 SCS Opposite-Spin Energy  =      -1.2232869508535347 [Eh]
	 SCS Correlation Energy    =      -1.3354495929449850 [Eh]
	 SCS Total Energy          =    -342.6136093002844518 [Eh]
	-----------------------------------------------------------

  Dipole Moment: [D]
     X:    -3.8547      Y:    -0.5715      Z:     0.3916     Total:     3.9165

*** Psi4 exiting successfully. Buy a developer a beer!
