                               Psi4 1.3.2 release

  ==> Input File <==

--------------------------------------------------------------------------
#psi4
#
memory 32 gb

molecule  {
-1 1
  O       -1.1345620     1.3004230     0.1446500
  O        1.4154395     0.9976210    -0.3652516
  O        1.4410930    -1.1800310     0.1828540
  C       -0.6358627    -0.0935370     0.4297095
  C       -1.4459790    -1.0465850    -0.3602330
  C        0.8594390    -0.0718910     0.0480600
  H       -0.7136530    -0.2389580     1.4893480
  H       -1.3405200    -0.8612460    -1.4337260
  H       -1.0819010    -2.0514490    -0.1379210
  H       -2.5056370    -0.9845300    -0.0954150
  H       -0.3074570     1.7452560    -0.1655130
units angstrom
no_reorient  #important for SAPT in psi4, default
symmetry c1  #important for SAPT in psi4, default
}

set PROPERTIES_ORIGIN ["COM"]
properties('MP2/aug-cc-pvtz', properties = ['dipole'])
--------------------------------------------------------------------------

    Molecular point group: c1
  Charge       = -1
  Multiplicity = 1
  Basis Set: AUG-CC-PVTZ
    Blend: AUG-CC-PVTZ
  Basis Set: (AUG-CC-PVTZ AUX)
    Blend: AUG-CC-PVTZ-JKFIT

    Orbital Energies [Eh]
    ---------------------

    Doubly Occupied:

       1A    -20.376991     2A    -20.316231     3A    -20.305758
       4A    -11.152096     5A    -11.120773     6A    -11.075606
       7A     -1.192915     8A     -1.148667     9A     -1.077477
      10A     -0.877173    11A     -0.706611    12A     -0.562376
      13A     -0.496209    14A     -0.476335    15A     -0.435763
      16A     -0.406925    17A     -0.403669    18A     -0.371861
      19A     -0.355199    20A     -0.346074    21A     -0.288362
      22A     -0.231218    23A     -0.214257    24A     -0.209197

  @DF-RHF Final Energy:  -341.27019425380973

   => Energetics <=

    Nuclear Repulsion Energy =            238.1044590288296945
    One-Electron Energy =                -950.4538247401200124
    Two-Electron Energy =                 371.0791714574806406
    Total Energy =                       -341.2701942538097342
  Basis Set: (AUG-CC-PVTZ AUX)
    Blend: AUG-CC-PVTZ-RI
    Molecular point group: c1

    Geometry (in Angstrom), charge = -1, multiplicity = 1:

       Center              X                  Y                   Z               Mass
    ------------   -----------------  -----------------  -----------------  -----------------
         O           -1.211824630453     1.289990624863     0.139474358864    15.994914619570
         O            1.338176869547     0.987188624863    -0.370427241136    15.994914619570
         O            1.363830369547    -1.190463375137     0.177678358864    15.994914619570
         C           -0.713125330453    -0.103969375137     0.424533858864    12.000000000000
         C           -1.523241630453    -1.057017375137    -0.365408641136    12.000000000000
         C            0.782176369547    -0.082323375137     0.042884358864    12.000000000000
         H           -0.790915630453    -0.249390375137     1.484172358864     1.007825032230
         H           -1.417782630453    -0.871678375137    -1.438901641136     1.007825032230
         H           -1.159163630453    -2.061881375137    -0.143096641136     1.007825032230
         H           -2.582899630453    -0.994962375137    -0.100590641136     1.007825032230
         H           -0.384719630453     1.734823624863    -0.170688641136     1.007825032230

  Basis Set: AUG-CC-PVTZ
    Blend: AUG-CC-PVTZ
  Basis Set: (AUG-CC-PVTZ AUX)
    Blend: AUG-CC-PVTZ-JKFIT
	 Reference Energy          =    -341.2701942538097342 [Eh]
	 Singles Energy            =      -0.0000000000000000 [Eh]
	 Same-Spin Energy          =      -0.3367109990695311 [Eh]
	 Opposite-Spin Energy      =      -1.0206144312418162 [Eh]
	 Correlation Energy        =      -1.3573254303113473 [Eh]
	 Total Energy              =    -342.6275196841210686 [Eh]

	 ================> DF-SCS-MP2 Energies <==================
	-----------------------------------------------------------
	 SCS Same-Spin Scale       =       0.3333333333333333 [-]
	 SCS Opposite-Spin Scale   =       1.2000000000000000 [-]
	 SCS Same-Spin Energy      =      -0.1122369996898437 [Eh]
	 SCS Opposite-Spin Energy  =      -1.2247373174901794 [Eh]
	 SCS Correlation Energy    =      -1.3369743171800232 [Eh]
	 SCS Total Energy          =    -342.6071685709897565 [Eh]
	-----------------------------------------------------------

  Dipole Moment: [D]
     X:    -3.9569      Y:    -0.7592      Z:     0.4341     Total:     4.0524

*** Psi4 exiting successfully. Buy a developer a beer!
