                               Psi4 1.3.2 release

  ==> Input File <==

--------------------------------------------------------------------------
#psi4
#
memory 32 gb

molecule  {
-1 1
  O       -1.1441695     1.3057096     0.1933617
  O        1.3567840     1.0286670    -0.3584360
  O        1.4410930    -1.1800310     0.1828540
  C       -0.6396870    -0.0151150     0.4106200
  C       -1.4459790    -1.0465850    -0.3602330
  C        0.8594390    -0.0718910     0.0480600
  H       -0.7287593    -0.2039363     1.4948909
  H       -1.3405200    -0.8612460    -1.4337260
  H       -1.0819010    -2.0514490    -0.1379210
  H       -2.5056370    -0.9845300    -0.0954150
  H       -0.3074570     1.7452560    -0.1655130
units angstrom
no_reorient  #important for SAPT in psi4, default
symmetry c1  #important for SAPT in psi4, default
}

set PROPERTIES_ORIGIN ["COM"]
properties('MP2/aug-cc-pvtz', properties = ['dipole'])
--------------------------------------------------------------------------

    Molecular point group: c1
  Charge       = -1
  Multiplicity = 1
  Basis Set: AUG-CC-PVTZ
    Blend: AUG-CC-PVTZ
  Basis Set: (AUG-CC-PVTZ AUX)
    Blend: AUG-CC-PVTZ-JKFIT

    Orbital Energies [Eh]
    ---------------------

    Doubly Occupied:

       1A    -20.382225     2A    -20.319196     3A    -20.310874
       4A    -11.153385     5A    -11.115624     6A    -11.072537
       7A     -1.202236     8A     -1.162017     9A     -1.083920
      10A     -0.860960    11A     -0.700721    12A     -0.565959
      13A     -0.496440    14A     -0.476592    15A     -0.437151
      16A     -0.405402    17A     -0.401043    18A     -0.371256
      19A     -0.364589    20A     -0.350164    21A     -0.277061
      22A     -0.234576    23A     -0.216017    24A     -0.214268

  @DF-RHF Final Energy:  -341.27782053195591

   => Energetics <=

    Nuclear Repulsion Energy =            238.6782072423568479
    One-Electron Energy =                -951.5636323079984322
    Two-Electron Energy =                 371.6076045336856737
    Total Energy =                       -341.2778205319559106
  Basis Set: (AUG-CC-PVTZ AUX)
    Blend: AUG-CC-PVTZ-RI
    Molecular point group: c1

    Geometry (in Angstrom), charge = -1, multiplicity = 1:

       Center              X                  Y                   Z               Mass
    ------------   -----------------  -----------------  -----------------  -----------------
         O           -1.208480806537     1.277781955359     0.180719896101    15.994914619570
         O            1.292472693463     1.000739355359    -0.371077803899    15.994914619570
         O            1.376781693463    -1.207958644641     0.170212196101    15.994914619570
         C           -0.703998306537    -0.043042644641     0.397978196101    12.000000000000
         C           -1.510290306537    -1.074512644641    -0.372874803899    12.000000000000
         C            0.795127693463    -0.099818644641     0.035418196101    12.000000000000
         H           -0.793070606537    -0.231863944641     1.482249096101     1.007825032230
         H           -1.404831306537    -0.889173644641    -1.446367803899     1.007825032230
         H           -1.146212306537    -2.079376644641    -0.150562803899     1.007825032230
         H           -2.569948306537    -1.012457644641    -0.108056803899     1.007825032230
         H           -0.371768306537     1.717328355359    -0.178154803899     1.007825032230

  Basis Set: AUG-CC-PVTZ
    Blend: AUG-CC-PVTZ
  Basis Set: (AUG-CC-PVTZ AUX)
    Blend: AUG-CC-PVTZ-JKFIT
	 Reference Energy          =    -341.2778205319559106 [Eh]
	 Singles Energy            =      -0.0000000000000000 [Eh]
	 Same-Spin Energy          =      -0.3368407079080802 [Eh]
	 Opposite-Spin Energy      =      -1.0198156666389075 [Eh]
	 Correlation Energy        =      -1.3566563745469877 [Eh]
	 Total Energy              =    -342.6344769065029254 [Eh]

	 ================> DF-SCS-MP2 Energies <==================
	-----------------------------------------------------------
	 SCS Same-Spin Scale       =       0.3333333333333333 [-]
	 SCS Opposite-Spin Scale   =       1.2000000000000000 [-]
	 SCS Same-Spin Energy      =      -0.1122802359693601 [Eh]
	 SCS Opposite-Spin Energy  =      -1.2237787999666889 [Eh]
	 SCS Correlation Energy    =      -1.3360590359360489 [Eh]
	 SCS Total Energy          =    -342.6138795678919564 [Eh]
	-----------------------------------------------------------

  Dipole Moment: [D]
     X:    -3.7618      Y:    -0.5059      Z:     0.3012     Total:     3.8076

*** Psi4 exiting successfully. Buy a developer a beer!
