                               Psi4 1.3.2 release

  ==> Input File <==

--------------------------------------------------------------------------
#psi4
#
memory 32 gb

molecule  {
-1 1
  O       -1.1345620     1.3004230     0.1446500
  O        1.3567840     1.0286670    -0.3584360
  O        1.4410930    -1.1800310     0.1828540
  C       -0.6396870    -0.0151150     0.4106200
  C       -1.4459790    -1.0465850    -0.3602330
  C        0.8594390    -0.0718910     0.0480600
  H       -0.7270504    -0.2795024     1.6847365
  H       -1.3405200    -0.8612460    -1.4337260
  H       -1.0819010    -2.0514490    -0.1379210
  H       -2.5056370    -0.9845300    -0.0954150
  H       -0.3074570     1.7452560    -0.1655130
units angstrom
no_reorient  #important for SAPT in psi4, default
symmetry c1  #important for SAPT in psi4, default
}

set PROPERTIES_ORIGIN ["COM"]
properties('MP2/aug-cc-pvtz', properties = ['dipole'])
--------------------------------------------------------------------------

    Molecular point group: c1
  Charge       = -1
  Multiplicity = 1
  Basis Set: AUG-CC-PVTZ
    Blend: AUG-CC-PVTZ
  Basis Set: (AUG-CC-PVTZ AUX)
    Blend: AUG-CC-PVTZ-JKFIT

    Orbital Energies [Eh]
    ---------------------

    Doubly Occupied:

       1A    -20.387799     2A    -20.320106     3A    -20.311108
       4A    -11.155679     5A    -11.141597     6A    -11.075431
       7A     -1.207604     8A     -1.166528     9A     -1.084661
      10A     -0.860341    11A     -0.693843    12A     -0.563913
      13A     -0.495072    14A     -0.469490    15A     -0.439920
      16A     -0.407095    17A     -0.402160    18A     -0.373943
      19A     -0.362905    20A     -0.347915    21A     -0.269812
      22A     -0.235045    23A     -0.217259    24A     -0.214079

  @DF-RHF Final Energy:  -341.25999616112517

   => Energetics <=

    Nuclear Repulsion Energy =            238.0956162236062710
    One-Electron Energy =                -950.3046161564905105
    Two-Electron Energy =                 370.9490037717590667
    Total Energy =                       -341.2599961611251729
  Basis Set: (AUG-CC-PVTZ AUX)
    Blend: AUG-CC-PVTZ-RI
    Molecular point group: c1

    Geometry (in Angstrom), charge = -1, multiplicity = 1:

       Center              X                  Y                   Z               Mass
    ------------   -----------------  -----------------  -----------------  -----------------
         O           -1.200618831822     1.274300670322     0.138611013312    15.994914619570
         O            1.290727168178     1.002544670322    -0.364474986688    15.994914619570
         O            1.375036168178    -1.206153329678     0.176815013312    15.994914619570
         C           -0.705743831822    -0.041237329678     0.404581013312    12.000000000000
         C           -1.512035831822    -1.072707329678    -0.366271986688    12.000000000000
         C            0.793382168178    -0.098013329678     0.042021013312    12.000000000000
         H           -0.793107231822    -0.305624729678     1.678697513312     1.007825032230
         H           -1.406576831822    -0.887368329678    -1.439764986688     1.007825032230
         H           -1.147957831822    -2.077571329678    -0.143959986688     1.007825032230
         H           -2.571693831822    -1.010652329678    -0.101453986688     1.007825032230
         H           -0.373513831822     1.719133670322    -0.171551986688     1.007825032230

  Basis Set: AUG-CC-PVTZ
    Blend: AUG-CC-PVTZ
  Basis Set: (AUG-CC-PVTZ AUX)
    Blend: AUG-CC-PVTZ-JKFIT
	 Reference Energy          =    -341.2599961611251729 [Eh]
	 Singles Energy            =      -0.0000000000000000 [Eh]
	 Same-Spin Energy          =      -0.3367343246842834 [Eh]
	 Opposite-Spin Energy      =      -1.0208292647499744 [Eh]
	 Correlation Energy        =      -1.3575635894342577 [Eh]
	 Total Energy              =    -342.6175597505594510 [Eh]

	 ================> DF-SCS-MP2 Energies <==================
	-----------------------------------------------------------
	 SCS Same-Spin Scale       =       0.3333333333333333 [-]
	 SCS Opposite-Spin Scale   =       1.2000000000000000 [-]
	 SCS Same-Spin Energy      =      -0.1122447748947611 [Eh]
	 SCS Opposite-Spin Energy  =      -1.2249951176999692 [Eh]
	 SCS Correlation Energy    =      -1.3372398925947304 [Eh]
	 SCS Total Energy          =    -342.5972360537198824 [Eh]
	-----------------------------------------------------------

  Dipole Moment: [D]
     X:    -3.7723      Y:    -0.3872      Z:     0.0901     Total:     3.7932

*** Psi4 exiting successfully. Buy a developer a beer!
