                               Psi4 1.3.2 release

  ==> Input File <==

--------------------------------------------------------------------------
#psi4
#
memory 32 gb

molecule  {
-1 1
  O       -1.1345620     1.3004230     0.1446500
  O        1.3567840     1.0286670    -0.3584360
  O        1.4410930    -1.1800310     0.1828540
  C       -0.6396870    -0.0151150     0.4106200
  C       -1.4459790    -1.0465850    -0.3602330
  C        0.8594390    -0.0718910     0.0480600
  H       -0.7136530    -0.2389580     1.4893480
  H       -1.3405200    -0.8612460    -1.4337260
  H       -1.0819010    -2.0514490    -0.1379210
  H       -2.5056370    -0.9845300    -0.0954150
  H       -0.4747128     1.6553026    -0.1027923
units angstrom
no_reorient  #important for SAPT in psi4, default
symmetry c1  #important for SAPT in psi4, default
}

set PROPERTIES_ORIGIN ["COM"]
properties('MP2/aug-cc-pvtz', properties = ['dipole'])
--------------------------------------------------------------------------

    Molecular point group: c1
  Charge       = -1
  Multiplicity = 1
  Basis Set: AUG-CC-PVTZ
    Blend: AUG-CC-PVTZ
  Basis Set: (AUG-CC-PVTZ AUX)
    Blend: AUG-CC-PVTZ-JKFIT

    Orbital Energies [Eh]
    ---------------------

    Doubly Occupied:

       1A    -20.372319     2A    -20.310909     3A    -20.308094
       4A    -11.150818     5A    -11.120053     6A    -11.074202
       7A     -1.254258     8A     -1.174125     9A     -1.078789
      10A     -0.873647    11A     -0.709644    12A     -0.598157
      13A     -0.508718    14A     -0.479067    15A     -0.440636
      16A     -0.416928    17A     -0.399506    18A     -0.380696
      19A     -0.376461    20A     -0.349733    21A     -0.289149
      22A     -0.228654    23A     -0.214356    24A     -0.208825

  @DF-RHF Final Energy:  -341.24057338824866

   => Energetics <=

    Nuclear Repulsion Energy =            240.1460581834374182
    One-Electron Energy =                -954.1377742964240269
    Two-Electron Energy =                 372.7511427247379743
    Total Energy =                       -341.2405733882486629
  Basis Set: (AUG-CC-PVTZ AUX)
    Blend: AUG-CC-PVTZ-RI
    Molecular point group: c1

    Geometry (in Angstrom), charge = -1, multiplicity = 1:

       Center              X                  Y                   Z               Mass
    ------------   -----------------  -----------------  -----------------  -----------------
         O           -1.198877025398     1.274860021736     0.140112924330    15.994914619570
         O            1.292468974602     1.003104021736    -0.362973075670    15.994914619570
         O            1.376777974602    -1.205593978264     0.178316924330    15.994914619570
         C           -0.704002025398    -0.040677978264     0.406082924330    12.000000000000
         C           -1.510294025398    -1.072147978264    -0.364770075670    12.000000000000
         C            0.795123974602    -0.097453978264     0.043522924330    12.000000000000
         H           -0.777968025398    -0.264520978264     1.484810924330     1.007825032230
         H           -1.404835025398    -0.886808978264    -1.438263075670     1.007825032230
         H           -1.146216025398    -2.077011978264    -0.142458075670     1.007825032230
         H           -2.569952025398    -1.010092978264    -0.099952075670     1.007825032230
         H           -0.539027825398     1.629739621736    -0.107329375670     1.007825032230

  Basis Set: AUG-CC-PVTZ
    Blend: AUG-CC-PVTZ
  Basis Set: (AUG-CC-PVTZ AUX)
    Blend: AUG-CC-PVTZ-JKFIT
	 Reference Energy          =    -341.2405733882486629 [Eh]
	 Singles Energy            =      -0.0000000000000000 [Eh]
	 Same-Spin Energy          =      -0.3333394044186486 [Eh]
	 Opposite-Spin Energy      =      -1.0132581317630911 [Eh]
	 Correlation Energy        =      -1.3465975361817397 [Eh]
	 Total Energy              =    -342.5871709244303815 [Eh]

	 ================> DF-SCS-MP2 Energies <==================
	-----------------------------------------------------------
	 SCS Same-Spin Scale       =       0.3333333333333333 [-]
	 SCS Opposite-Spin Scale   =       1.2000000000000000 [-]
	 SCS Same-Spin Energy      =      -0.1111131348062162 [Eh]
	 SCS Opposite-Spin Energy  =      -1.2159097581157092 [Eh]
	 SCS Correlation Energy    =      -1.3270228929219254 [Eh]
	 SCS Total Energy          =    -342.5675962811706086 [Eh]
	-----------------------------------------------------------

  Dipole Moment: [D]
     X:    -4.1959      Y:    -0.5237      Z:     0.4636     Total:     4.2538

*** Psi4 exiting successfully. Buy a developer a beer!
