                               Psi4 1.3.2 release

  ==> Input File <==

--------------------------------------------------------------------------
#psi4
#
memory 32 gb

molecule  {
-1 1
  O       -1.1171733     1.3098120     0.1599077
  O        1.3567840     1.0286670    -0.3584360
  O        1.4410930    -1.1800310     0.1828540
  C       -0.6396870    -0.0151150     0.4106200
  C       -1.4308811    -1.0657743    -0.3498919
  C        0.8594390    -0.0718910     0.0480600
  H       -0.7136530    -0.2389580     1.4893480
  H       -1.3405200    -0.8612460    -1.4337260
  H       -1.0819010    -2.0514490    -0.1379210
  H       -2.5056370    -0.9845300    -0.0954150
  H       -0.3074570     1.7452560    -0.1655130
units angstrom
no_reorient  #important for SAPT in psi4, default
symmetry c1  #important for SAPT in psi4, default
}

set PROPERTIES_ORIGIN ["COM"]
properties('MP2/aug-cc-pvtz', properties = ['dipole'])
--------------------------------------------------------------------------

    Molecular point group: c1
  Charge       = -1
  Multiplicity = 1
  Basis Set: AUG-CC-PVTZ
    Blend: AUG-CC-PVTZ
  Basis Set: (AUG-CC-PVTZ AUX)
    Blend: AUG-CC-PVTZ-JKFIT

    Orbital Energies [Eh]
    ---------------------

    Doubly Occupied:

       1A    -20.381410     2A    -20.316721     3A    -20.309519
       4A    -11.151567     5A    -11.116588     6A    -11.073105
       7A     -1.205781     8A     -1.164127     9A     -1.082299
      10A     -0.863716    11A     -0.701626    12A     -0.568438
      13A     -0.500737    14A     -0.477475    15A     -0.436410
      16A     -0.409309    17A     -0.399238    18A     -0.373930
      19A     -0.364185    20A     -0.349113    21A     -0.279664
      22A     -0.232768    23A     -0.214395    24A     -0.212718

  @DF-RHF Final Energy:  -341.27953773000587

   => Energetics <=

    Nuclear Repulsion Energy =            239.1436354604224732
    One-Electron Energy =                -952.4766653498370488
    Two-Electron Energy =                 372.0534921594086768
    Total Energy =                       -341.2795377300058703
  Basis Set: (AUG-CC-PVTZ AUX)
    Blend: AUG-CC-PVTZ-RI
    Molecular point group: c1

    Geometry (in Angstrom), charge = -1, multiplicity = 1:

       Center              X                  Y                   Z               Mass
    ------------   -----------------  -----------------  -----------------  -----------------
         O           -1.188541154721     1.284130380053     0.151945393315    15.994914619570
         O            1.285416145279     1.002985380053    -0.366398306685    15.994914619570
         O            1.369725145279    -1.205712619947     0.174891693315    15.994914619570
         C           -0.711054854721    -0.040796619947     0.402657693315    12.000000000000
         C           -1.502248954721    -1.091455919947    -0.357854206685    12.000000000000
         C            0.788071145279    -0.097572619947     0.040097693315    12.000000000000
         H           -0.785020854721    -0.264639619947     1.481385693315     1.007825032230
         H           -1.411887854721    -0.886927619947    -1.441688306685     1.007825032230
         H           -1.153268854721    -2.077130619947    -0.145883306685     1.007825032230
         H           -2.577004854721    -1.010211619947    -0.103377306685     1.007825032230
         H           -0.378824854721     1.719574380053    -0.173475306685     1.007825032230

  Basis Set: AUG-CC-PVTZ
    Blend: AUG-CC-PVTZ
  Basis Set: (AUG-CC-PVTZ AUX)
    Blend: AUG-CC-PVTZ-JKFIT
	 Reference Energy          =    -341.2795377300058703 [Eh]
	 Singles Energy            =      -0.0000000000000000 [Eh]
	 Same-Spin Energy          =      -0.3362264114566397 [Eh]
	 Opposite-Spin Energy      =      -1.0184649279110347 [Eh]
	 Correlation Energy        =      -1.3546913393676743 [Eh]
	 Total Energy              =    -342.6342290693735322 [Eh]

	 ================> DF-SCS-MP2 Energies <==================
	-----------------------------------------------------------
	 SCS Same-Spin Scale       =       0.3333333333333333 [-]
	 SCS Opposite-Spin Scale   =       1.2000000000000000 [-]
	 SCS Same-Spin Energy      =      -0.1120754704855466 [Eh]
	 SCS Opposite-Spin Energy  =      -1.2221579134932417 [Eh]
	 SCS Correlation Energy    =      -1.3342333839787881 [Eh]
	 SCS Total Energy          =    -342.6137711139846829 [Eh]
	-----------------------------------------------------------

  Dipole Moment: [D]
     X:    -3.8222      Y:    -0.5050      Z:     0.3592     Total:     3.8721

*** Psi4 exiting successfully. Buy a developer a beer!
