                               Psi4 1.3.2 release

  ==> Input File <==

--------------------------------------------------------------------------
#psi4
#
memory 32 gb

molecule  {
-1 1
  O       -1.1487435     1.3077498     0.2178205
  O        1.3567840     1.0286670    -0.3584360
  O        1.4410930    -1.1800310     0.1828540
  C       -0.6396870    -0.0151150     0.4106200
  C       -1.4459790    -1.0465850    -0.3602330
  C        0.8594390    -0.0718910     0.0480600
  H       -0.7362730    -0.1863365     1.4971673
  H       -1.3405200    -0.8612460    -1.4337260
  H       -1.0819010    -2.0514490    -0.1379210
  H       -2.5056370    -0.9845300    -0.0954150
  H       -0.3074570     1.7452560    -0.1655130
units angstrom
no_reorient  #important for SAPT in psi4, default
symmetry c1  #important for SAPT in psi4, default
}

set PROPERTIES_ORIGIN ["COM"]
properties('MP2/aug-cc-pvtz', properties = ['dipole'])
--------------------------------------------------------------------------

    Molecular point group: c1
  Charge       = -1
  Multiplicity = 1
  Basis Set: AUG-CC-PVTZ
    Blend: AUG-CC-PVTZ
  Basis Set: (AUG-CC-PVTZ AUX)
    Blend: AUG-CC-PVTZ-JKFIT

    Orbital Energies [Eh]
    ---------------------

    Doubly Occupied:

       1A    -20.382538     2A    -20.319953     3A    -20.311280
       4A    -11.153906     5A    -11.115300     6A    -11.072850
       7A     -1.201349     8A     -1.161192     9A     -1.084412
      10A     -0.860447    11A     -0.700354    12A     -0.565712
      13A     -0.494946    14A     -0.475852    15A     -0.437385
      16A     -0.405699    17A     -0.401542    18A     -0.370881
      19A     -0.363518    20A     -0.350509    21A     -0.275929
      22A     -0.235113    23A     -0.216487    24A     -0.214708

  @DF-RHF Final Energy:  -341.27596626834128

   => Energetics <=

    Nuclear Repulsion Energy =            238.5066582306012037
    One-Electron Energy =                -951.2215222410645765
    Two-Electron Energy =                 371.4388977421220375
    Total Energy =                       -341.2759662683412785
  Basis Set: (AUG-CC-PVTZ AUX)
    Blend: AUG-CC-PVTZ-RI
    Molecular point group: c1

    Geometry (in Angstrom), charge = -1, multiplicity = 1:

       Center              X                  Y                   Z               Mass
    ------------   -----------------  -----------------  -----------------  -----------------
         O           -1.212147934758     1.279256348184     0.200758413822    15.994914619570
         O            1.293379565242     1.000173548184    -0.375498086178    15.994914619570
         O            1.377688565242    -1.208524451816     0.165791913822    15.994914619570
         C           -0.703091434758    -0.043608451816     0.393557913822    12.000000000000
         C           -1.509383434758    -1.075078451816    -0.377295086178    12.000000000000
         C            0.796034565242    -0.100384451816     0.030997913822    12.000000000000
         H           -0.799677434758    -0.214829951816     1.480105213822     1.007825032230
         H           -1.403924434758    -0.889739451816    -1.450788086178     1.007825032230
         H           -1.145305434758    -2.079942451816    -0.154983086178     1.007825032230
         H           -2.569041434758    -1.013023451816    -0.112477086178     1.007825032230
         H           -0.370861434758     1.716762548184    -0.182575086178     1.007825032230

  Basis Set: AUG-CC-PVTZ
    Blend: AUG-CC-PVTZ
  Basis Set: (AUG-CC-PVTZ AUX)
    Blend: AUG-CC-PVTZ-JKFIT
	 Reference Energy          =    -341.2759662683412785 [Eh]
	 Singles Energy            =      -0.0000000000000000 [Eh]
	 Same-Spin Energy          =      -0.3370614141823147 [Eh]
	 Opposite-Spin Energy      =      -1.0203100035750283 [Eh]
	 Correlation Energy        =      -1.3573714177573430 [Eh]
	 Total Energy              =    -342.6333376860986277 [Eh]

	 ================> DF-SCS-MP2 Energies <==================
	-----------------------------------------------------------
	 SCS Same-Spin Scale       =       0.3333333333333333 [-]
	 SCS Opposite-Spin Scale   =       1.2000000000000000 [-]
	 SCS Same-Spin Energy      =      -0.1123538047274382 [Eh]
	 SCS Opposite-Spin Energy  =      -1.2243720042900339 [Eh]
	 SCS Correlation Energy    =      -1.3367258090174721 [Eh]
	 SCS Total Energy          =    -342.6126920773587585 [Eh]
	-----------------------------------------------------------

  Dipole Moment: [D]
     X:    -3.7436      Y:    -0.5203      Z:     0.2681     Total:     3.7891

*** Psi4 exiting successfully. Buy a developer a beer!
