                               Psi4 1.4a3.dev225

  ==> Input File <==

--------------------------------------------------------------------------
#psi4
#
memory 32 gb

molecule  {
-1 1
  O        1.1681810     1.2683390    -0.1935740
  O       -1.3027740     1.0522020     0.4123420
  O       -1.4902400    -1.1295240    -0.2243730
  C        0.6404390    -0.0405420    -0.4184120
  C        1.4092810    -1.0711850     0.3952000
  C       -0.8802764    -0.0089569    -0.0311114
  H        0.7260590    -0.2876370    -1.4879020
  H        1.3060210    -0.8470660     1.4617500
  H        1.0158520    -2.0724200     0.2054930
  H        2.4733650    -1.0522610     0.1409170
  H        0.3572580     1.7151740     0.1591030
units angstrom
no_reorient  #important for SAPT in psi4, default
symmetry c1  #important for SAPT in psi4, default
}

set PROPERTIES_ORIGIN ["COM"]
properties('MP2/aug-cc-pvtz', properties = ['dipole'])
--------------------------------------------------------------------------

    Molecular point group: c1
  Charge       = -1
  Multiplicity = 1
  Basis Set: AUG-CC-PVTZ
    Blend: AUG-CC-PVTZ
  Basis Set: (AUG-CC-PVTZ AUX)
    Blend: AUG-CC-PVTZ-JKFIT

    Orbital Energies [Eh]
    ---------------------

    Doubly Occupied:

       1A    -20.380995     2A    -20.330460     3A    -20.301737
       4A    -11.152671     5A    -11.113716     6A    -11.070340
       7A     -1.215554     8A     -1.167713     9A     -1.082808
      10A     -0.856804    11A     -0.694465    12A     -0.566775
      13A     -0.504561    14A     -0.476751    15A     -0.436597
      16A     -0.405204    17A     -0.403316    18A     -0.371240
      19A     -0.364672    20A     -0.356096    21A     -0.278616
      22A     -0.238890    23A     -0.213621    24A     -0.207720

  @DF-RHF Final Energy:  -341.27763619977037

   => Energetics <=

    Nuclear Repulsion Energy =            239.0362585910368978
    One-Electron Energy =                -952.2451472789815625
    Two-Electron Energy =                 371.9312524881742661
    Total Energy =                       -341.2776361997703702
  Basis Set: (AUG-CC-PVTZ AUX)
    Blend: AUG-CC-PVTZ-RI
    Molecular point group: c1

    Geometry (in Angstrom), charge = -1, multiplicity = 1:

       Center              X                  Y                   Z               Mass
    ------------   -----------------  -----------------  -----------------  -----------------
         O            1.235928976920     1.234214557492    -0.190671179846    15.994914619570
         O           -1.235026023080     1.018077557492     0.415244820154    15.994914619570
         O           -1.422492023080    -1.163648442508    -0.221470179846    15.994914619570
         C            0.708186976920    -0.074666442508    -0.415509179846    12.000000000000
         C            1.477028976920    -1.105309442508     0.398102820154    12.000000000000
         C           -0.812528423080    -0.043081342508    -0.028208579846    12.000000000000
         H            0.793806976920    -0.321761442508    -1.484999179846     1.007825032230
         H            1.373768976920    -0.881190442508     1.464652820154     1.007825032230
         H            1.083599976920    -2.106544442508     0.208395820154     1.007825032230
         H            2.541112976920    -1.086385442508     0.143819820154     1.007825032230
         H            0.425005976920     1.681049557492     0.162005820154     1.007825032230

  Basis Set: AUG-CC-PVTZ
    Blend: AUG-CC-PVTZ
  Basis Set: (AUG-CC-PVTZ AUX)
    Blend: AUG-CC-PVTZ-JKFIT
	 Reference Energy          =    -341.2776361997703702 [Eh]
	 Singles Energy            =      -0.0000000000000000 [Eh]
	 Same-Spin Energy          =      -0.3362231289289989 [Eh]
	 Opposite-Spin Energy      =      -1.0184383533620527 [Eh]
	 Correlation Energy        =      -1.3546614822910517 [Eh]
	 Total Energy              =    -342.6322976820614485 [Eh]

	 ================> DF-SCS-MP2 Energies <==================
	-----------------------------------------------------------
	 SCS Same-Spin Scale       =       0.3333333333333333 [-]
	 SCS Opposite-Spin Scale   =       1.2000000000000000 [-]
	 SCS Same-Spin Energy      =      -0.1120743763096663 [Eh]
	 SCS Opposite-Spin Energy  =      -1.2221260240344631 [Eh]
	 SCS Correlation Energy    =      -1.3342004003441295 [Eh]
	 SCS Total Energy          =    -342.6118366001144864 [Eh]
	-----------------------------------------------------------

  Dipole Moment: [D]
     X:     3.6825      Y:    -0.1494      Z:    -0.1496     Total:     3.6886

*** Psi4 exiting successfully. Buy a developer a beer!
