                               Psi4 1.3.2 release

  ==> Input File <==

--------------------------------------------------------------------------
#psi4
#
memory 32 gb

molecule  {
-1 1
  O       -1.1345620     1.3004230     0.1446500
  O        1.3567840     1.0286670    -0.3584360
  O        1.4410930    -1.1800310     0.1828540
  C       -0.6856603    -0.0286235     0.4246577
  C       -1.4459790    -1.0465850    -0.3602330
  C        0.8594390    -0.0718910     0.0480600
  H       -0.7136530    -0.2389580     1.4893480
  H       -1.3405200    -0.8612460    -1.4337260
  H       -1.0819010    -2.0514490    -0.1379210
  H       -2.5056370    -0.9845300    -0.0954150
  H       -0.3254678     1.7743874    -0.1698409
units angstrom
no_reorient  #important for SAPT in psi4, default
symmetry c1  #important for SAPT in psi4, default
}

set PROPERTIES_ORIGIN ["COM"]
properties('MP2/aug-cc-pvtz', properties = ['dipole'])
--------------------------------------------------------------------------

    Molecular point group: c1
  Charge       = -1
  Multiplicity = 1
  Basis Set: AUG-CC-PVTZ
    Blend: AUG-CC-PVTZ
  Basis Set: (AUG-CC-PVTZ AUX)
    Blend: AUG-CC-PVTZ-JKFIT

    Orbital Energies [Eh]
    ---------------------

    Doubly Occupied:

       1A    -20.380658     2A    -20.316550     3A    -20.309135
       4A    -11.152387     5A    -11.114963     6A    -11.070983
       7A     -1.200127     8A     -1.161612     9A     -1.080976
      10A     -0.866934    11A     -0.695048    12A     -0.562974
      13A     -0.503115    14A     -0.477297    15A     -0.434222
      16A     -0.409037    17A     -0.400979    18A     -0.372881
      19A     -0.360109    20A     -0.348862    21A     -0.284587
      22A     -0.230669    23A     -0.212076    24A     -0.206797

  @DF-RHF Final Energy:  -341.27699608137510

   => Energetics <=

    Nuclear Repulsion Energy =            238.4817042562540337
    One-Electron Energy =                -951.2114444557403203
    Two-Electron Energy =                 371.4527441181111840
    Total Energy =                       -341.2769960813751027
  Basis Set: (AUG-CC-PVTZ AUX)
    Blend: AUG-CC-PVTZ-RI
    Molecular point group: c1

    Geometry (in Angstrom), charge = -1, multiplicity = 1:

       Center              X                  Y                   Z               Mass
    ------------   -----------------  -----------------  -----------------  -----------------
         O           -1.194369619042     1.275332764137     0.138979754725    15.994914619570
         O            1.296976380958     1.003576764137    -0.364106245275    15.994914619570
         O            1.381285380958    -1.205121235863     0.177183754725    15.994914619570
         C           -0.745467919042    -0.053713735863     0.418987454725    12.000000000000
         C           -1.505786619042    -1.071675235863    -0.365903245275    12.000000000000
         C            0.799631380958    -0.096981235863     0.042389754725    12.000000000000
         H           -0.773460619042    -0.264048235863     1.483677754725     1.007825032230
         H           -1.400327619042    -0.886336235863    -1.439396245275     1.007825032230
         H           -1.141708619042    -2.076539235863    -0.143591245275     1.007825032230
         H           -2.565444619042    -1.009620235863    -0.101085245275     1.007825032230
         H           -0.385275419042     1.749297164137    -0.175511145275     1.007825032230

  Basis Set: AUG-CC-PVTZ
    Blend: AUG-CC-PVTZ
  Basis Set: (AUG-CC-PVTZ AUX)
    Blend: AUG-CC-PVTZ-JKFIT
	 Reference Energy          =    -341.2769960813751027 [Eh]
	 Singles Energy            =      -0.0000000000000000 [Eh]
	 Same-Spin Energy          =      -0.3364527549209774 [Eh]
	 Opposite-Spin Energy      =      -1.0188384428595740 [Eh]
	 Correlation Energy        =      -1.3552911977805513 [Eh]
	 Total Energy              =    -342.6322872791556620 [Eh]

	 ================> DF-SCS-MP2 Energies <==================
	-----------------------------------------------------------
	 SCS Same-Spin Scale       =       0.3333333333333333 [-]
	 SCS Opposite-Spin Scale   =       1.2000000000000000 [-]
	 SCS Same-Spin Energy      =      -0.1121509183069924 [Eh]
	 SCS Opposite-Spin Energy  =      -1.2226061314314889 [Eh]
	 SCS Correlation Energy    =      -1.3347570497384813 [Eh]
	 SCS Total Energy          =    -342.6117531311135735 [Eh]
	-----------------------------------------------------------

  Dipole Moment: [D]
     X:    -3.8435      Y:    -0.4731      Z:     0.3666     Total:     3.8899

*** Psi4 exiting successfully. Buy a developer a beer!
