                               Psi4 1.3.2 release

  ==> Input File <==

--------------------------------------------------------------------------
#psi4
#
memory 32 gb

molecule  {
-1 1
  O       -1.1345620     1.3004230     0.1446500
  O        1.3567840     1.0286670    -0.3584360
  O        1.4410930    -1.1800310     0.1828540
  C       -0.7088556    -0.0347714     0.4315496
  C       -1.4459790    -1.0465850    -0.3602330
  C        0.8594390    -0.0718910     0.0480600
  H       -0.7136530    -0.2389580     1.4893480
  H       -1.3405200    -0.8612460    -1.4337260
  H       -1.0819010    -2.0514490    -0.1379210
  H       -2.5056370    -0.9845300    -0.0954150
  H       -0.3348443     1.7887388    -0.1718614
units angstrom
no_reorient  #important for SAPT in psi4, default
symmetry c1  #important for SAPT in psi4, default
}

set PROPERTIES_ORIGIN ["COM"]
properties('MP2/aug-cc-pvtz', properties = ['dipole'])
--------------------------------------------------------------------------

    Molecular point group: c1
  Charge       = -1
  Multiplicity = 1
  Basis Set: AUG-CC-PVTZ
    Blend: AUG-CC-PVTZ
  Basis Set: (AUG-CC-PVTZ AUX)
    Blend: AUG-CC-PVTZ-JKFIT

    Orbital Energies [Eh]
    ---------------------

    Doubly Occupied:

       1A    -20.380153     2A    -20.316027     3A    -20.308720
       4A    -11.152337     5A    -11.114563     6A    -11.070635
       7A     -1.198183     8A     -1.160770     9A     -1.080047
      10A     -0.869521    11A     -0.692524    12A     -0.560924
      13A     -0.504849    14A     -0.477000    15A     -0.433467
      16A     -0.411701    17A     -0.400807    18A     -0.373282
      19A     -0.357239    20A     -0.348374    21A     -0.286937
      22A     -0.229420    23A     -0.211479    24A     -0.202105

  @DF-RHF Final Energy:  -341.27355854925423

   => Energetics <=

    Nuclear Repulsion Energy =            238.2126353658884739
    One-Electron Energy =                -950.6902586761585781
    Two-Electron Energy =                 371.2040647610158999
    Total Energy =                       -341.2735585492542327
  Basis Set: (AUG-CC-PVTZ AUX)
    Blend: AUG-CC-PVTZ-RI
    Molecular point group: c1

    Geometry (in Angstrom), charge = -1, multiplicity = 1:

       Center              X                  Y                   Z               Mass
    ------------   -----------------  -----------------  -----------------  -----------------
         O           -1.191136851532     1.275999002310     0.138073632688    15.994914619570
         O            1.300209148468     1.004243002310    -0.365012367312    15.994914619570
         O            1.384518148468    -1.204454997690     0.176277632688    15.994914619570
         C           -0.765430451532    -0.059195397690     0.424973232688    12.000000000000
         C           -1.502553851532    -1.071008997690    -0.366809367312    12.000000000000
         C            0.802864148468    -0.096314997690     0.041483632688    12.000000000000
         H           -0.770227851532    -0.263381997690     1.482771632688     1.007825032230
         H           -1.397094851532    -0.885669997690    -1.440302367312     1.007825032230
         H           -1.138475851532    -2.075872997690    -0.144497367312     1.007825032230
         H           -2.562211851532    -1.008953997690    -0.101991367312     1.007825032230
         H           -0.391419151532     1.764314802310    -0.178437767312     1.007825032230

  Basis Set: AUG-CC-PVTZ
    Blend: AUG-CC-PVTZ
  Basis Set: (AUG-CC-PVTZ AUX)
    Blend: AUG-CC-PVTZ-JKFIT
	 Reference Energy          =    -341.2735585492542327 [Eh]
	 Singles Energy            =      -0.0000000000000000 [Eh]
	 Same-Spin Energy          =      -0.3365524875969470 [Eh]
	 Opposite-Spin Energy      =      -1.0189661008263906 [Eh]
	 Correlation Energy        =      -1.3555185884233376 [Eh]
	 Total Energy              =    -342.6290771376775979 [Eh]

	 ================> DF-SCS-MP2 Energies <==================
	-----------------------------------------------------------
	 SCS Same-Spin Scale       =       0.3333333333333333 [-]
	 SCS Opposite-Spin Scale   =       1.2000000000000000 [-]
	 SCS Same-Spin Energy      =      -0.1121841625323157 [Eh]
	 SCS Opposite-Spin Energy  =      -1.2227593209916687 [Eh]
	 SCS Correlation Energy    =      -1.3349434835239844 [Eh]
	 SCS Total Energy          =    -342.6085020327782331 [Eh]
	-----------------------------------------------------------

  Dipole Moment: [D]
     X:    -3.8620      Y:    -0.4696      Z:     0.3650     Total:     3.9075

*** Psi4 exiting successfully. Buy a developer a beer!
