                               Psi4 1.3.2 release

  ==> Input File <==

--------------------------------------------------------------------------
#psi4
#
memory 32 gb

molecule  {
-1 1
  O       -1.1345620     1.3004230     0.1446500
  O        1.3567840     1.0286670    -0.3584360
  O        1.4410930    -1.1800310     0.1828540
  C       -0.6396870    -0.0151150     0.4106200
  C       -1.4990492    -1.1144764    -0.4109706
  C        0.8594390    -0.0718910     0.0480600
  H       -0.7136530    -0.2389580     1.4893480
  H       -1.3405200    -0.8612460    -1.4337260
  H       -1.0819010    -2.0514490    -0.1379210
  H       -2.5056370    -0.9845300    -0.0954150
  H       -0.3074570     1.7452560    -0.1655130
units angstrom
no_reorient  #important for SAPT in psi4, default
symmetry c1  #important for SAPT in psi4, default
}

set PROPERTIES_ORIGIN ["COM"]
properties('MP2/aug-cc-pvtz', properties = ['dipole'])
--------------------------------------------------------------------------

    Molecular point group: c1
  Charge       = -1
  Multiplicity = 1
  Basis Set: AUG-CC-PVTZ
    Blend: AUG-CC-PVTZ
  Basis Set: (AUG-CC-PVTZ AUX)
    Blend: AUG-CC-PVTZ-JKFIT

    Orbital Energies [Eh]
    ---------------------

    Doubly Occupied:

       1A    -20.382544     2A    -20.317597     3A    -20.309854
       4A    -11.152202     5A    -11.121245     6A    -11.068870
       7A     -1.203459     8A     -1.163073     9A     -1.082613
      10A     -0.849556    11A     -0.707287    12A     -0.563525
      13A     -0.498960    14A     -0.475034    15A     -0.435190
      16A     -0.415434    17A     -0.402349    18A     -0.376689
      19A     -0.365754    20A     -0.349236    21A     -0.267038
      22A     -0.233890    23A     -0.214934    24A     -0.213083

  @DF-RHF Final Energy:  -341.27245201880197

   => Energetics <=

    Nuclear Repulsion Energy =            237.4840342308609138
    One-Electron Energy =                -949.1741385364221060
    Two-Electron Energy =                 370.4176522867591643
    Total Energy =                       -341.2724520188019710
  Basis Set: (AUG-CC-PVTZ AUX)
    Blend: AUG-CC-PVTZ-RI
    Molecular point group: c1

    Geometry (in Angstrom), charge = -1, multiplicity = 1:

       Center              X                  Y                   Z               Mass
    ------------   -----------------  -----------------  -----------------  -----------------
         O           -1.193616887605     1.282993115924     0.147662165887    15.994914619570
         O            1.297729112395     1.011237115924    -0.355423834113    15.994914619570
         O            1.382038112395    -1.197460884076     0.185866165887    15.994914619570
         C           -0.698741887605    -0.032544884076     0.413632165887    12.000000000000
         C           -1.558104087605    -1.131906284076    -0.407958434113    12.000000000000
         C            0.800384112395    -0.089320884076     0.051072165887    12.000000000000
         H           -0.772707887605    -0.256387884076     1.492360165887     1.007825032230
         H           -1.399574887605    -0.878675884076    -1.430713834113     1.007825032230
         H           -1.140955887605    -2.068878884076    -0.134908834113     1.007825032230
         H           -2.564691887605    -1.001959884076    -0.092402834113     1.007825032230
         H           -0.366511887605     1.727826115924    -0.162500834113     1.007825032230

  Basis Set: AUG-CC-PVTZ
    Blend: AUG-CC-PVTZ
  Basis Set: (AUG-CC-PVTZ AUX)
    Blend: AUG-CC-PVTZ-JKFIT
	 Reference Energy          =    -341.2724520188019710 [Eh]
	 Singles Energy            =      -0.0000000000000000 [Eh]
	 Same-Spin Energy          =      -0.3363162406778650 [Eh]
	 Opposite-Spin Energy      =      -1.0191388995652537 [Eh]
	 Correlation Energy        =      -1.3554551402431188 [Eh]
	 Total Energy              =    -342.6279071590450940 [Eh]

	 ================> DF-SCS-MP2 Energies <==================
	-----------------------------------------------------------
	 SCS Same-Spin Scale       =       0.3333333333333333 [-]
	 SCS Opposite-Spin Scale   =       1.2000000000000000 [-]
	 SCS Same-Spin Energy      =      -0.1121054135592883 [Eh]
	 SCS Opposite-Spin Energy  =      -1.2229666794783045 [Eh]
	 SCS Correlation Energy    =      -1.3350720930375928 [Eh]
	 SCS Total Energy          =    -342.6075241118395525 [Eh]
	-----------------------------------------------------------

  Dipole Moment: [D]
     X:    -3.8128      Y:    -0.4291      Z:     0.3736     Total:     3.8550

*** Psi4 exiting successfully. Buy a developer a beer!
