                               Psi4 1.3.2 release

  ==> Input File <==

--------------------------------------------------------------------------
#psi4
#
memory 32 gb

molecule  {
-1 1
  O       -1.1345620     1.3004230     0.1446500
  O        1.2967653     1.0566965    -0.3505062
  O        1.4410930    -1.1800310     0.1828540
  C       -0.6394023     0.0631513     0.3905367
  C       -1.4459790    -1.0465850    -0.3602330
  C        0.8594390    -0.0718910     0.0480600
  H       -0.7136530    -0.2389580     1.4893480
  H       -1.3405200    -0.8612460    -1.4337260
  H       -1.0819010    -2.0514490    -0.1379210
  H       -2.5056370    -0.9845300    -0.0954150
  H       -0.3074570     1.7452560    -0.1655130
units angstrom
no_reorient  #important for SAPT in psi4, default
symmetry c1  #important for SAPT in psi4, default
}

set PROPERTIES_ORIGIN ["COM"]
properties('MP2/aug-cc-pvtz', properties = ['dipole'])
--------------------------------------------------------------------------

    Molecular point group: c1
  Charge       = -1
  Multiplicity = 1
  Basis Set: AUG-CC-PVTZ
    Blend: AUG-CC-PVTZ
  Basis Set: (AUG-CC-PVTZ AUX)
    Blend: AUG-CC-PVTZ-JKFIT

    Orbital Energies [Eh]
    ---------------------

    Doubly Occupied:

       1A    -20.385679     2A    -20.319701     3A    -20.315040
       4A    -11.153658     5A    -11.114509     6A    -11.067903
       7A     -1.227675     8A     -1.172778     9A     -1.089378
      10A     -0.846788    11A     -0.696662    12A     -0.577002
      13A     -0.502731    14A     -0.482100    15A     -0.442015
      16A     -0.403921    17A     -0.400426    18A     -0.382624
      19A     -0.360100    20A     -0.352442    21A     -0.262275
      22A     -0.237733    23A     -0.218041    24A     -0.212166

  @DF-RHF Final Energy:  -341.27354897346214

   => Energetics <=

    Nuclear Repulsion Energy =            240.1219935483417487
    One-Electron Energy =                -954.3443852819428912
    Two-Electron Energy =                 372.9488427601390299
    Total Energy =                       -341.2735489734621410
  Basis Set: (AUG-CC-PVTZ AUX)
    Blend: AUG-CC-PVTZ-RI
    Molecular point group: c1

    Geometry (in Angstrom), charge = -1, multiplicity = 1:

       Center              X                  Y                   Z               Mass
    ------------   -----------------  -----------------  -----------------  -----------------
         O           -1.190025320696     1.258255684451     0.142105363207    15.994914619570
         O            1.241301979304     1.014529184451    -0.353050836793    15.994914619570
         O            1.385629679304    -1.222198315549     0.180309363207    15.994914619570
         C           -0.694865620696     0.020983984451     0.387992063207    12.000000000000
         C           -1.501442320696    -1.088752315549    -0.362777636793    12.000000000000
         C            0.803975679304    -0.114058315549     0.045515363207    12.000000000000
         H           -0.769116320696    -0.281125315549     1.486803363207     1.007825032230
         H           -1.395983320696    -0.903413315549    -1.436270636793     1.007825032230
         H           -1.137364320696    -2.093616315549    -0.140465636793     1.007825032230
         H           -2.561100320696    -1.026697315549    -0.097959636793     1.007825032230
         H           -0.362920320696     1.703088684451    -0.168057636793     1.007825032230

  Basis Set: AUG-CC-PVTZ
    Blend: AUG-CC-PVTZ
  Basis Set: (AUG-CC-PVTZ AUX)
    Blend: AUG-CC-PVTZ-JKFIT
	 Reference Energy          =    -341.2735489734621410 [Eh]
	 Singles Energy            =      -0.0000000000000000 [Eh]
	 Same-Spin Energy          =      -0.3369257912335689 [Eh]
	 Opposite-Spin Energy      =      -1.0184955565544944 [Eh]
	 Correlation Energy        =      -1.3554213477880634 [Eh]
	 Total Energy              =    -342.6289703212502218 [Eh]

	 ================> DF-SCS-MP2 Energies <==================
	-----------------------------------------------------------
	 SCS Same-Spin Scale       =       0.3333333333333333 [-]
	 SCS Opposite-Spin Scale   =       1.2000000000000000 [-]
	 SCS Same-Spin Energy      =      -0.1123085970778563 [Eh]
	 SCS Opposite-Spin Energy  =      -1.2221946678653932 [Eh]
	 SCS Correlation Energy    =      -1.3345032649432496 [Eh]
	 SCS Total Energy          =    -342.6080522384053779 [Eh]
	-----------------------------------------------------------

  Dipole Moment: [D]
     X:    -3.6025      Y:    -0.1599      Z:     0.2744     Total:     3.6165

*** Psi4 exiting successfully. Buy a developer a beer!
