                               Psi4 1.3.2 release

  ==> Input File <==

--------------------------------------------------------------------------
#psi4
#
memory 32 gb

molecule  {
-1 1
  O       -1.1345620     1.3004230     0.1446500
  O        1.3468712     1.0335502    -0.3571912
  O        1.4410930    -1.1800310     0.1828540
  C       -0.6399250    -0.0020540     0.4073403
  C       -1.4459790    -1.0465850    -0.3602330
  C        0.8594390    -0.0718910     0.0480600
  H       -0.7136530    -0.2389580     1.4893480
  H       -1.3405200    -0.8612460    -1.4337260
  H       -1.0819010    -2.0514490    -0.1379210
  H       -2.5056370    -0.9845300    -0.0954150
  H       -0.3074570     1.7452560    -0.1655130
units angstrom
no_reorient  #important for SAPT in psi4, default
symmetry c1  #important for SAPT in psi4, default
}

set PROPERTIES_ORIGIN ["COM"]
properties('MP2/aug-cc-pvtz', properties = ['dipole'])
--------------------------------------------------------------------------

    Molecular point group: c1
  Charge       = -1
  Multiplicity = 1
  Basis Set: AUG-CC-PVTZ
    Blend: AUG-CC-PVTZ
  Basis Set: (AUG-CC-PVTZ AUX)
    Blend: AUG-CC-PVTZ-JKFIT

    Orbital Energies [Eh]
    ---------------------

    Doubly Occupied:

       1A    -20.382398     2A    -20.318017     3A    -20.310837
       4A    -11.152462     5A    -11.115758     6A    -11.071255
       7A     -1.207367     8A     -1.165360     9A     -1.083949
      10A     -0.859453    11A     -0.700567    12A     -0.567827
      13A     -0.500702    14A     -0.477987    15A     -0.437318
      16A     -0.404621    17A     -0.399387    18A     -0.374580
      19A     -0.365273    20A     -0.349664    21A     -0.276769
      22A     -0.234079    23A     -0.214939    24A     -0.213965

  @DF-RHF Final Energy:  -341.27991133887537

   => Energetics <=

    Nuclear Repulsion Energy =            239.1997905881606528
    One-Electron Energy =                -952.5903441346379168
    Two-Electron Energy =                 372.1106422076018703
    Total Energy =                       -341.2799113388753653
  Basis Set: (AUG-CC-PVTZ AUX)
    Blend: AUG-CC-PVTZ-RI
    Molecular point group: c1

    Geometry (in Angstrom), charge = -1, multiplicity = 1:

       Center              X                  Y                   Z               Mass
    ------------   -----------------  -----------------  -----------------  -----------------
         O           -1.198957388030     1.271203747762     0.141041410395    15.994914619570
         O            1.282475811970     1.004330947762    -0.360799789605    15.994914619570
         O            1.376697611970    -1.209250252238     0.179245410395    15.994914619570
         C           -0.704320388030    -0.031273252238     0.403731710395    12.000000000000
         C           -1.510374388030    -1.075804252238    -0.363841589605    12.000000000000
         C            0.795043611970    -0.101110252238     0.044451410395    12.000000000000
         H           -0.778048388030    -0.268177252238     1.485739410395     1.007825032230
         H           -1.404915388030    -0.890465252238    -1.437334589605     1.007825032230
         H           -1.146296388030    -2.080668252238    -0.141529589605     1.007825032230
         H           -2.570032388030    -1.013749252238    -0.099023589605     1.007825032230
         H           -0.371852388030     1.716036747762    -0.169121589605     1.007825032230

  Basis Set: AUG-CC-PVTZ
    Blend: AUG-CC-PVTZ
  Basis Set: (AUG-CC-PVTZ AUX)
    Blend: AUG-CC-PVTZ-JKFIT
	 Reference Energy          =    -341.2799113388753653 [Eh]
	 Singles Energy            =      -0.0000000000000000 [Eh]
	 Same-Spin Energy          =      -0.3365101849217547 [Eh]
	 Opposite-Spin Energy      =      -1.0188196317704348 [Eh]
	 Correlation Energy        =      -1.3553298166921894 [Eh]
	 Total Energy              =    -342.6352411555675417 [Eh]

	 ================> DF-SCS-MP2 Energies <==================
	-----------------------------------------------------------
	 SCS Same-Spin Scale       =       0.3333333333333333 [-]
	 SCS Opposite-Spin Scale   =       1.2000000000000000 [-]
	 SCS Same-Spin Energy      =      -0.1121700616405849 [Eh]
	 SCS Opposite-Spin Energy  =      -1.2225835581245217 [Eh]
	 SCS Correlation Energy    =      -1.3347536197651066 [Eh]
	 SCS Total Energy          =    -342.6146649586404465 [Eh]
	-----------------------------------------------------------

  Dipole Moment: [D]
     X:    -3.7675      Y:    -0.4245      Z:     0.3531     Total:     3.8078

*** Psi4 exiting successfully. Buy a developer a beer!
