                               Psi4 1.3.2 release

  ==> Input File <==

--------------------------------------------------------------------------
#psi4
#
memory 32 gb

molecule  {
-1 1
  O       -1.1345620     1.3004230     0.1446500
  O        1.3567840     1.0286670    -0.3584360
  O        1.4410930    -1.1800310     0.1828540
  C       -0.6396870    -0.0151150     0.4106200
  C       -1.4459790    -1.0465850    -0.3602330
  C        0.8594390    -0.0718910     0.0480600
  H       -0.7136530    -0.2389580     1.4893480
  H       -1.3405200    -0.8612460    -1.4337260
  H       -1.0819010    -2.0514490    -0.1379210
  H       -2.5056370    -0.9845300    -0.0954150
  H       -0.3910849     1.7002793    -0.1341527
units angstrom
no_reorient  #important for SAPT in psi4, default
symmetry c1  #important for SAPT in psi4, default
}

set PROPERTIES_ORIGIN ["COM"]
properties('MP2/aug-cc-pvtz', properties = ['dipole'])
--------------------------------------------------------------------------

    Molecular point group: c1
  Charge       = -1
  Multiplicity = 1
  Basis Set: AUG-CC-PVTZ
    Blend: AUG-CC-PVTZ
  Basis Set: (AUG-CC-PVTZ AUX)
    Blend: AUG-CC-PVTZ-JKFIT

    Orbital Energies [Eh]
    ---------------------

    Doubly Occupied:

       1A    -20.378796     2A    -20.313737     3A    -20.308841
       4A    -11.151327     5A    -11.118226     6A    -11.073105
       7A     -1.222499     8A     -1.171156     9A     -1.080564
      10A     -0.867419    11A     -0.705010    12A     -0.581252
      13A     -0.504467    14A     -0.478432    15A     -0.438488
      16A     -0.410539    17A     -0.399943    18A     -0.375631
      19A     -0.373540    20A     -0.349272    21A     -0.284356
      22A     -0.230819    23A     -0.214691    24A     -0.210751

  @DF-RHF Final Energy:  -341.27606211862980

   => Energetics <=

    Nuclear Repulsion Energy =            239.5272657781129340
    One-Electron Energy =                -953.1209329483848478
    Two-Electron Energy =                 372.3176050516421469
    Total Energy =                       -341.2760621186297953
  Basis Set: (AUG-CC-PVTZ AUX)
    Blend: AUG-CC-PVTZ-RI
    Molecular point group: c1

    Geometry (in Angstrom), charge = -1, multiplicity = 1:

       Center              X                  Y                   Z               Mass
    ------------   -----------------  -----------------  -----------------  -----------------
         O           -1.199823763525     1.274350847684     0.140467950420    15.994914619570
         O            1.291522236475     1.002594847684    -0.362618049580    15.994914619570
         O            1.375831236475    -1.206103152316     0.178671950420    15.994914619570
         C           -0.704948763525    -0.041187152316     0.406437950420    12.000000000000
         C           -1.511240763525    -1.072657152316    -0.364415049580    12.000000000000
         C            0.794177236475    -0.097963152316     0.043877950420    12.000000000000
         H           -0.778914763525    -0.265030152316     1.485165950420     1.007825032230
         H           -1.405781763525    -0.887318152316    -1.437908049580     1.007825032230
         H           -1.147162763525    -2.077521152316    -0.142103049580     1.007825032230
         H           -2.570898763525    -1.010602152316    -0.099597049580     1.007825032230
         H           -0.456346663525     1.674207147684    -0.138334749580     1.007825032230

  Basis Set: AUG-CC-PVTZ
    Blend: AUG-CC-PVTZ
  Basis Set: (AUG-CC-PVTZ AUX)
    Blend: AUG-CC-PVTZ-JKFIT
	 Reference Energy          =    -341.2760621186297953 [Eh]
	 Singles Energy            =      -0.0000000000000000 [Eh]
	 Same-Spin Energy          =      -0.3348238534880333 [Eh]
	 Opposite-Spin Energy      =      -1.0159223064474439 [Eh]
	 Correlation Energy        =      -1.3507461599354771 [Eh]
	 Total Energy              =    -342.6268082785652496 [Eh]

	 ================> DF-SCS-MP2 Energies <==================
	-----------------------------------------------------------
	 SCS Same-Spin Scale       =       0.3333333333333333 [-]
	 SCS Opposite-Spin Scale   =       1.2000000000000000 [-]
	 SCS Same-Spin Energy      =      -0.1116079511626778 [Eh]
	 SCS Opposite-Spin Energy  =      -1.2191067677369325 [Eh]
	 SCS Correlation Energy    =      -1.3307147188996102 [Eh]
	 SCS Total Energy          =    -342.6067768375294236 [Eh]
	-----------------------------------------------------------

  Dipole Moment: [D]
     X:    -4.0210      Y:    -0.4895      Z:     0.4181     Total:     4.0722

*** Psi4 exiting successfully. Buy a developer a beer!
