                               Psi4 1.3.2 release

  ==> Input File <==

--------------------------------------------------------------------------
#psi4
#
memory 32 gb

molecule  {
-1 1
  O       -1.1345620     1.3004230     0.1446500
  O        1.2967989     1.0567304    -0.3503730
  O        1.3840280    -1.2054756     0.2038077
  C       -0.6396870    -0.0151150     0.4106200
  C       -1.4459790    -1.0465850    -0.3602330
  C        0.8594390    -0.0718910     0.0480600
  H       -0.7136530    -0.2389580     1.4893480
  H       -1.3405200    -0.8612460    -1.4337260
  H       -1.0819010    -2.0514490    -0.1379210
  H       -2.5056370    -0.9845300    -0.0954150
  H       -0.3074570     1.7452560    -0.1655130
units angstrom
no_reorient  #important for SAPT in psi4, default
symmetry c1  #important for SAPT in psi4, default
}

set PROPERTIES_ORIGIN ["COM"]
properties('MP2/aug-cc-pvtz', properties = ['dipole'])
--------------------------------------------------------------------------

    Molecular point group: c1
  Charge       = -1
  Multiplicity = 1
  Basis Set: AUG-CC-PVTZ
    Blend: AUG-CC-PVTZ
  Basis Set: (AUG-CC-PVTZ AUX)
    Blend: AUG-CC-PVTZ-JKFIT

    Orbital Energies [Eh]
    ---------------------

    Doubly Occupied:

       1A    -20.374171     2A    -20.323730     3A    -20.316006
       4A    -11.155717     5A    -11.108347     6A    -11.067750
       7A     -1.204451     8A     -1.159606     9A     -1.093684
      10A     -0.856830    11A     -0.696751    12A     -0.562176
      13A     -0.503251    14A     -0.475258    15A     -0.437004
      16A     -0.405318    17A     -0.397959    18A     -0.370060
      19A     -0.362055    20A     -0.348875    21A     -0.274283
      22A     -0.241168    23A     -0.220517    24A     -0.211052

  @DF-RHF Final Energy:  -341.27745655437826

   => Energetics <=

    Nuclear Repulsion Energy =            239.8669979239310521
    One-Electron Energy =                -953.9568704957453065
    Two-Electron Energy =                 372.8124160174359645
    Total Energy =                       -341.2774565543782614
  Basis Set: (AUG-CC-PVTZ AUX)
    Blend: AUG-CC-PVTZ-RI
    Molecular point group: c1

    Geometry (in Angstrom), charge = -1, multiplicity = 1:

       Center              X                  Y                   Z               Mass
    ------------   -----------------  -----------------  -----------------  -----------------
         O           -1.179740115349     1.273371153951     0.135609546169    15.994914619570
         O            1.251620784651     1.029678553951    -0.359413453831    15.994914619570
         O            1.338849884651    -1.232527446049     0.194767246169    15.994914619570
         C           -0.684865115349    -0.042166846049     0.401579546169    12.000000000000
         C           -1.491157115349    -1.073636846049    -0.369273453831    12.000000000000
         C            0.814260884651    -0.098942846049     0.039019546169    12.000000000000
         H           -0.758831115349    -0.266009846049     1.480307546169     1.007825032230
         H           -1.385698115349    -0.888297846049    -1.442766453831     1.007825032230
         H           -1.127079115349    -2.078500846049    -0.146961453831     1.007825032230
         H           -2.550815115349    -1.011581846049    -0.104455453831     1.007825032230
         H           -0.352635115349     1.718204153951    -0.174553453831     1.007825032230

  Basis Set: AUG-CC-PVTZ
    Blend: AUG-CC-PVTZ
  Basis Set: (AUG-CC-PVTZ AUX)
    Blend: AUG-CC-PVTZ-JKFIT
	 Reference Energy          =    -341.2774565543782614 [Eh]
	 Singles Energy            =      -0.0000000000000000 [Eh]
	 Same-Spin Energy          =      -0.3369515643657764 [Eh]
	 Opposite-Spin Energy      =      -1.0194816592350147 [Eh]
	 Correlation Energy        =      -1.3564332236007910 [Eh]
	 Total Energy              =    -342.6338897779790500 [Eh]

	 ================> DF-SCS-MP2 Energies <==================
	-----------------------------------------------------------
	 SCS Same-Spin Scale       =       0.3333333333333333 [-]
	 SCS Opposite-Spin Scale   =       1.2000000000000000 [-]
	 SCS Same-Spin Energy      =      -0.1123171881219255 [Eh]
	 SCS Opposite-Spin Energy  =      -1.2233779910820175 [Eh]
	 SCS Correlation Energy    =      -1.3356951792039429 [Eh]
	 SCS Total Energy          =    -342.6131517335821854 [Eh]
	-----------------------------------------------------------

  Dipole Moment: [D]
     X:    -3.4246      Y:    -0.4878      Z:     0.3051     Total:     3.4726

*** Psi4 exiting successfully. Buy a developer a beer!
