                               Psi4 1.3.2 release

  ==> Input File <==

--------------------------------------------------------------------------
#psi4
#
memory 32 gb

molecule  {
0 1
  O        1.7172982    -0.6294477    -0.1304547
  C        0.4546130    -0.2713300     0.0000100
  C        0.0381650     1.0640730    -0.0000210
  C       -0.4939010    -1.3032470     0.0000130
  C       -1.3314850     1.3526110    -0.0000590
  C       -1.8510560    -1.0002410    -0.0000260
  C       -2.2793230     0.3319890    -0.0000570
  C        2.7576030     0.3338520     0.0000720
  H        0.7532890     1.8795730    -0.0000260
  H       -0.1386390    -2.3300740     0.0000380
  H       -1.6510200     2.3922280    -0.0000820
  H       -2.5787280    -1.8083390    -0.0000230
  H       -3.3399740     0.5682180    -0.0000880
  H        2.6856690     0.9623970     0.8945570
  H        2.6857380     0.9623800    -0.8944310
  H        3.7115620    -0.1925360     0.0001130
units angstrom
no_reorient  #important for SAPT in psi4, default
symmetry c1  #important for SAPT in psi4, default
}

set PROPERTIES_ORIGIN ["COM"]
properties('MP2/aug-cc-pvtz', properties = ['dipole'])
--------------------------------------------------------------------------

    Molecular point group: c1
  Charge       = 0
  Multiplicity = 1
  Basis Set: AUG-CC-PVTZ
    Blend: AUG-CC-PVTZ
  Basis Set: (AUG-CC-PVTZ AUX)
    Blend: AUG-CC-PVTZ-JKFIT

    Orbital Energies [Eh]
    ---------------------

    Doubly Occupied:

       1A    -20.585393     2A    -11.298602     3A    -11.289940
       4A    -11.238610     5A    -11.237756     6A    -11.227062
       7A    -11.223922     8A    -11.223031     9A     -1.426347
      10A     -1.141772    11A     -1.022047    12A     -1.011432
      13A     -0.944847    14A     -0.831969    15A     -0.804546
      16A     -0.722590    17A     -0.668449    18A     -0.664693
      19A     -0.659013    20A     -0.616691    21A     -0.587837
      22A     -0.576649    23A     -0.532581    24A     -0.523626
      25A     -0.511682    26A     -0.478027    27A     -0.464578
      28A     -0.337741    29A     -0.305775

  @DF-RHF Final Energy:  -344.70120990853638

   => Energetics <=

    Nuclear Repulsion Energy =            346.7734550357765215
    One-Electron Energy =               -1154.6349099189728804
    Two-Electron Energy =                 463.1602449746599177
    Total Energy =                       -344.7012099085363843
  Basis Set: (AUG-CC-PVTZ AUX)
    Blend: AUG-CC-PVTZ-RI
    Molecular point group: c1

    Geometry (in Angstrom), charge = 0, multiplicity = 1:

       Center              X                  Y                   Z               Mass
    ------------   -----------------  -----------------  -----------------  -----------------
         O            1.743691755833    -0.615357182654    -0.111137493448    15.994914619570
         C            0.481006555833    -0.257239482654     0.019327206552    12.000000000000
         C            0.064558555833     1.078163517346     0.019296206552    12.000000000000
         C           -0.467507444167    -1.289156482654     0.019330206552    12.000000000000
         C           -1.305091444167     1.366701517346     0.019258206552    12.000000000000
         C           -1.824662444167    -0.986150482654     0.019291206552    12.000000000000
         C           -2.252929444167     0.346079517346     0.019260206552    12.000000000000
         C            2.783996555833     0.347942517346     0.019389206552    12.000000000000
         H            0.779682555833     1.893663517346     0.019291206552     1.007825032230
         H           -0.112245444167    -2.315983482654     0.019355206552     1.007825032230
         H           -1.624626444167     2.406318517346     0.019235206552     1.007825032230
         H           -2.552334444167    -1.794248482654     0.019294206552     1.007825032230
         H           -3.313580444167     0.582308517346     0.019229206552     1.007825032230
         H            2.712062555833     0.976487517346     0.913874206552     1.007825032230
         H            2.712131555833     0.976470517346    -0.875113793448     1.007825032230
         H            3.737955555833    -0.178445482654     0.019430206552     1.007825032230

  Basis Set: AUG-CC-PVTZ
    Blend: AUG-CC-PVTZ
  Basis Set: (AUG-CC-PVTZ AUX)
    Blend: AUG-CC-PVTZ-JKFIT
	 Reference Energy          =    -344.7012099085363843 [Eh]
	 Singles Energy            =      -0.0000000000000000 [Eh]
	 Same-Spin Energy          =      -0.3657578948218456 [Eh]
	 Opposite-Spin Energy      =      -1.1588977344392375 [Eh]
	 Correlation Energy        =      -1.5246556292610831 [Eh]
	 Total Energy              =    -346.2258655377974605 [Eh]

	 ================> DF-SCS-MP2 Energies <==================
	-----------------------------------------------------------
	 SCS Same-Spin Scale       =       0.3333333333333333 [-]
	 SCS Opposite-Spin Scale   =       1.2000000000000000 [-]
	 SCS Same-Spin Energy      =      -0.1219192982739485 [Eh]
	 SCS Opposite-Spin Energy  =      -1.3906772813270849 [Eh]
	 SCS Correlation Energy    =      -1.5125965796010334 [Eh]
	 SCS Total Energy          =    -346.2138064881374362 [Eh]
	-----------------------------------------------------------

  Dipole Moment: [D]
     X:     1.1352      Y:     0.9771      Z:     0.1498     Total:     1.5053

*** Psi4 exiting successfully. Buy a developer a beer!
