                               Psi4 1.3.2 release

  ==> Input File <==

--------------------------------------------------------------------------
#psi4
#
memory 32 gb

molecule  {
0 1
  O        1.8197003    -0.7294134     0.1305430
  C        0.4546130    -0.2713300     0.0000100
  C        0.0381650     1.0640730    -0.0000210
  C       -0.4939010    -1.3032470     0.0000130
  C       -1.3314850     1.3526110    -0.0000590
  C       -1.8510560    -1.0002410    -0.0000260
  C       -2.2793230     0.3319890    -0.0000570
  C        2.7576030     0.3338520     0.0000720
  H        0.7532890     1.8795730    -0.0000260
  H       -0.1386390    -2.3300740     0.0000380
  H       -1.6510200     2.3922280    -0.0000820
  H       -2.5787280    -1.8083390    -0.0000230
  H       -3.3399740     0.5682180    -0.0000880
  H        2.6856690     0.9623970     0.8945570
  H        2.6857380     0.9623800    -0.8944310
  H        3.7115620    -0.1925360     0.0001130
units angstrom
no_reorient  #important for SAPT in psi4, default
symmetry c1  #important for SAPT in psi4, default
}

set PROPERTIES_ORIGIN ["COM"]
properties('MP2/aug-cc-pvtz', properties = ['dipole'])
--------------------------------------------------------------------------

    Molecular point group: c1
  Charge       = 0
  Multiplicity = 1
  Basis Set: AUG-CC-PVTZ
    Blend: AUG-CC-PVTZ
  Basis Set: (AUG-CC-PVTZ AUX)
    Blend: AUG-CC-PVTZ-JKFIT

    Orbital Energies [Eh]
    ---------------------

    Doubly Occupied:

       1A    -20.584786     2A    -11.304443     3A    -11.278578
       4A    -11.244088     5A    -11.241922     6A    -11.239515
       7A    -11.232877     8A    -11.232696     9A     -1.380836
      10A     -1.148844    11A     -1.021168    12A     -1.013197
      13A     -0.931676    14A     -0.831629    15A     -0.809376
      16A     -0.715383    17A     -0.659053    18A     -0.653414
      19A     -0.641294    20A     -0.621012    21A     -0.590485
      22A     -0.572517    23A     -0.528275    24A     -0.518302
      25A     -0.505031    26A     -0.489457    27A     -0.464556
      28A     -0.342605    29A     -0.320696

  @DF-RHF Final Energy:  -344.69317763434316

   => Energetics <=

    Nuclear Repulsion Energy =            343.4035634680139992
    One-Electron Energy =               -1147.9580597863430285
    Two-Electron Energy =                 459.8613186839858713
    Total Energy =                       -344.6931776343431579
  Basis Set: (AUG-CC-PVTZ AUX)
    Blend: AUG-CC-PVTZ-RI
    Molecular point group: c1

    Geometry (in Angstrom), charge = 0, multiplicity = 1:

       Center              X                  Y                   Z               Mass
    ------------   -----------------  -----------------  -----------------  -----------------
         O            1.830936068350    -0.700525736540     0.111226744250    15.994914619570
         C            0.465848768350    -0.242442336540    -0.019306255750    12.000000000000
         C            0.049400768350     1.092960663460    -0.019337255750    12.000000000000
         C           -0.482665231650    -1.274359336540    -0.019303255750    12.000000000000
         C           -1.320249231650     1.381498663460    -0.019375255750    12.000000000000
         C           -1.839820231650    -0.971353336540    -0.019342255750    12.000000000000
         C           -2.268087231650     0.360876663460    -0.019373255750    12.000000000000
         C            2.768838768350     0.362739663460    -0.019244255750    12.000000000000
         H            0.764524768350     1.908460663460    -0.019342255750     1.007825032230
         H           -0.127403231650    -2.301186336540    -0.019278255750     1.007825032230
         H           -1.639784231650     2.421115663460    -0.019398255750     1.007825032230
         H           -2.567492231650    -1.779451336540    -0.019339255750     1.007825032230
         H           -3.328738231650     0.597105663460    -0.019404255750     1.007825032230
         H            2.696904768350     0.991284663460     0.875240744250     1.007825032230
         H            2.696973768350     0.991267663460    -0.913747255750     1.007825032230
         H            3.722797768350    -0.163648336540    -0.019203255750     1.007825032230

  Basis Set: AUG-CC-PVTZ
    Blend: AUG-CC-PVTZ
  Basis Set: (AUG-CC-PVTZ AUX)
    Blend: AUG-CC-PVTZ-JKFIT
	 Reference Energy          =    -344.6931776343431579 [Eh]
	 Singles Energy            =      -0.0000000000000000 [Eh]
	 Same-Spin Energy          =      -0.3665766658854759 [Eh]
	 Opposite-Spin Energy      =      -1.1629520086677201 [Eh]
	 Correlation Energy        =      -1.5295286745531960 [Eh]
	 Total Energy              =    -346.2227063088963632 [Eh]

	 ================> DF-SCS-MP2 Energies <==================
	-----------------------------------------------------------
	 SCS Same-Spin Scale       =       0.3333333333333333 [-]
	 SCS Opposite-Spin Scale   =       1.2000000000000000 [-]
	 SCS Same-Spin Energy      =      -0.1221922219618253 [Eh]
	 SCS Opposite-Spin Energy  =      -1.3955424104012641 [Eh]
	 SCS Correlation Energy    =      -1.5177346323630894 [Eh]
	 SCS Total Energy          =    -346.2109122667062593 [Eh]
	-----------------------------------------------------------

  Dipole Moment: [D]
     X:     0.2376      Y:     1.1746      Z:    -0.1677     Total:     1.2101

*** Psi4 exiting successfully. Buy a developer a beer!
