                               Psi4 1.3.2 release

  ==> Input File <==

--------------------------------------------------------------------------
#psi4
#
memory 32 gb

molecule  {
0 1
  O        1.7630510    -0.6850120     0.0000440
  C        0.2639170    -0.2110387     0.0000050
  C        0.0381650     1.0640730    -0.0000210
  C       -0.4939010    -1.3032470     0.0000130
  C       -1.3314850     1.3526110    -0.0000590
  C       -1.8510560    -1.0002410    -0.0000260
  C       -2.2793230     0.3319890    -0.0000570
  C        2.7576030     0.3338520     0.0000720
  H        0.7532890     1.8795730    -0.0000260
  H       -0.1386390    -2.3300740     0.0000380
  H       -1.6510200     2.3922280    -0.0000820
  H       -2.5787280    -1.8083390    -0.0000230
  H       -3.3399740     0.5682180    -0.0000880
  H        2.6856690     0.9623970     0.8945570
  H        2.6857380     0.9623800    -0.8944310
  H        3.7115620    -0.1925360     0.0001130
units angstrom
no_reorient  #important for SAPT in psi4, default
symmetry c1  #important for SAPT in psi4, default
}

set PROPERTIES_ORIGIN ["COM"]
properties('MP2/aug-cc-pvtz', properties = ['dipole'])
--------------------------------------------------------------------------

    Molecular point group: c1
  Charge       = 0
  Multiplicity = 1
  Basis Set: AUG-CC-PVTZ
    Blend: AUG-CC-PVTZ
  Basis Set: (AUG-CC-PVTZ AUX)
    Blend: AUG-CC-PVTZ-JKFIT

    Orbital Energies [Eh]
    ---------------------

    Doubly Occupied:

       1A    -20.551357     2A    -11.291624     3A    -11.264690
       4A    -11.249509     5A    -11.247544     6A    -11.236977
       7A    -11.233628     8A    -11.233228     9A     -1.330141
      10A     -1.176916    11A     -1.041780    12A     -1.022659
      13A     -0.911416    14A     -0.848068    15A     -0.810832
      16A     -0.719907    17A     -0.659498    18A     -0.642184
      19A     -0.623251    20A     -0.620560    21A     -0.602671
      22A     -0.562426    23A     -0.533819    24A     -0.526284
      25A     -0.512456    26A     -0.456508    27A     -0.444796
      28A     -0.353175    29A     -0.337057

  @DF-RHF Final Energy:  -344.65905466717692

   => Energetics <=

    Nuclear Repulsion Energy =            345.8986455666480992
    One-Electron Energy =               -1153.0254761279566083
    Two-Electron Energy =                 462.4677758941315346
    Total Energy =                       -344.6590546671769175
  Basis Set: (AUG-CC-PVTZ AUX)
    Blend: AUG-CC-PVTZ-RI
    Molecular point group: c1

    Geometry (in Angstrom), charge = 0, multiplicity = 1:

       Center              X                  Y                   Z               Mass
    ------------   -----------------  -----------------  -----------------  -----------------
         O            1.803849290868    -0.669392198600     0.000045052864    15.994914619570
         C            0.304715290868    -0.195418898600     0.000006052864    12.000000000000
         C            0.078963290868     1.079692801400    -0.000019947136    12.000000000000
         C           -0.453102709132    -1.287627198600     0.000014052864    12.000000000000
         C           -1.290686709132     1.368230801400    -0.000057947136    12.000000000000
         C           -1.810257709132    -0.984621198600    -0.000024947136    12.000000000000
         C           -2.238524709132     0.347608801400    -0.000055947136    12.000000000000
         C            2.798401290868     0.349471801400     0.000073052864    12.000000000000
         H            0.794087290868     1.895192801400    -0.000024947136     1.007825032230
         H           -0.097840709132    -2.314454198600     0.000039052864     1.007825032230
         H           -1.610221709132     2.407847801400    -0.000080947136     1.007825032230
         H           -2.537929709132    -1.792719198600    -0.000021947136     1.007825032230
         H           -3.299175709132     0.583837801400    -0.000086947136     1.007825032230
         H            2.726467290868     0.978016801400     0.894558052864     1.007825032230
         H            2.726536290868     0.977999801400    -0.894429947136     1.007825032230
         H            3.752360290868    -0.176916198600     0.000114052864     1.007825032230

  Basis Set: AUG-CC-PVTZ
    Blend: AUG-CC-PVTZ
  Basis Set: (AUG-CC-PVTZ AUX)
    Blend: AUG-CC-PVTZ-JKFIT
	 Reference Energy          =    -344.6590546671769175 [Eh]
	 Singles Energy            =      -0.0000000000000000 [Eh]
	 Same-Spin Energy          =      -0.3675860201134670 [Eh]
	 Opposite-Spin Energy      =      -1.1646213592633796 [Eh]
	 Correlation Energy        =      -1.5322073793768465 [Eh]
	 Total Energy              =    -346.1912620465537884 [Eh]

	 ================> DF-SCS-MP2 Energies <==================
	-----------------------------------------------------------
	 SCS Same-Spin Scale       =       0.3333333333333333 [-]
	 SCS Opposite-Spin Scale   =       1.2000000000000000 [-]
	 SCS Same-Spin Energy      =      -0.1225286733711557 [Eh]
	 SCS Opposite-Spin Energy  =      -1.3975456311160555 [Eh]
	 SCS Correlation Energy    =      -1.5200743044872111 [Eh]
	 SCS Total Energy          =    -346.1791289716641131 [Eh]
	-----------------------------------------------------------

  Dipole Moment: [D]
     X:    -0.5949      Y:     1.2323      Z:    -0.0000     Total:     1.3683

*** Psi4 exiting successfully. Buy a developer a beer!
