                               Psi4 1.3.2 release

  ==> Input File <==

--------------------------------------------------------------------------
#psi4
#
memory 32 gb

molecule  {
0 1
  O        1.7630510    -0.6850120     0.0000440
  C        0.4698474    -0.2259182     0.0000105
  C        0.0381650     1.0640730    -0.0000210
  C       -0.4939010    -1.3032470     0.0000130
  C       -1.3314850     1.3526110    -0.0000590
  C       -1.8510560    -1.0002410    -0.0000260
  C       -2.2793230     0.3319890    -0.0000570
  C        2.7576030     0.3338520     0.0000720
  H        0.7532890     1.8795730    -0.0000260
  H       -0.1386390    -2.3300740     0.0000380
  H       -1.6510200     2.3922280    -0.0000820
  H       -2.5787280    -1.8083390    -0.0000230
  H       -3.3399740     0.5682180    -0.0000880
  H        2.6856690     0.9623970     0.8945570
  H        2.6857380     0.9623800    -0.8944310
  H        3.7115620    -0.1925360     0.0001130
units angstrom
no_reorient  #important for SAPT in psi4, default
symmetry c1  #important for SAPT in psi4, default
}

set PROPERTIES_ORIGIN ["COM"]
properties('MP2/aug-cc-pvtz', properties = ['dipole'])
--------------------------------------------------------------------------

    Molecular point group: c1
  Charge       = 0
  Multiplicity = 1
  Basis Set: AUG-CC-PVTZ
    Blend: AUG-CC-PVTZ
  Basis Set: (AUG-CC-PVTZ AUX)
    Blend: AUG-CC-PVTZ-JKFIT

    Orbital Energies [Eh]
    ---------------------

    Doubly Occupied:

       1A    -20.587824     2A    -11.300811     3A    -11.284199
       4A    -11.241179     5A    -11.238317     6A    -11.232230
       7A    -11.228674     8A    -11.227585     9A     -1.407455
      10A     -1.144609    11A     -1.018953    12A     -1.013531
      13A     -0.940191    14A     -0.832836    15A     -0.803744
      16A     -0.719305    17A     -0.663364    18A     -0.659916
      19A     -0.654413    20A     -0.620196    21A     -0.584603
      22A     -0.573064    23A     -0.526415    24A     -0.524720
      25A     -0.510589    26A     -0.483579    27A     -0.467918
      28A     -0.342310    29A     -0.310891

  @DF-RHF Final Energy:  -344.70017312129619

   => Energetics <=

    Nuclear Repulsion Energy =            345.3162166469774093
    One-Electron Energy =               -1151.7459404833225562
    Two-Electron Energy =                 461.7295507150489584
    Total Energy =                       -344.7001731212961886
  Basis Set: (AUG-CC-PVTZ AUX)
    Blend: AUG-CC-PVTZ-RI
    Molecular point group: c1

    Geometry (in Angstrom), charge = 0, multiplicity = 1:

       Center              X                  Y                   Z               Mass
    ------------   -----------------  -----------------  -----------------  -----------------
         O            1.780980314075    -0.667739800799     0.000044442079    15.994914619570
         C            0.487776714075    -0.208646000799     0.000010942079    12.000000000000
         C            0.056094314075     1.081345199201    -0.000020557921    12.000000000000
         C           -0.475971685925    -1.285974800799     0.000013442079    12.000000000000
         C           -1.313555685925     1.369883199201    -0.000058557921    12.000000000000
         C           -1.833126685925    -0.982968800799    -0.000025557921    12.000000000000
         C           -2.261393685925     0.349261199201    -0.000056557921    12.000000000000
         C            2.775532314075     0.351124199201     0.000072442079    12.000000000000
         H            0.771218314075     1.896845199201    -0.000025557921     1.007825032230
         H           -0.120709685925    -2.312801800799     0.000038442079     1.007825032230
         H           -1.633090685925     2.409500199201    -0.000081557921     1.007825032230
         H           -2.560798685925    -1.791066800799    -0.000022557921     1.007825032230
         H           -3.322044685925     0.585490199201    -0.000087557921     1.007825032230
         H            2.703598314075     0.979669199201     0.894557442079     1.007825032230
         H            2.703667314075     0.979652199201    -0.894430557921     1.007825032230
         H            3.729491314075    -0.175263800799     0.000113442079     1.007825032230

  Basis Set: AUG-CC-PVTZ
    Blend: AUG-CC-PVTZ
  Basis Set: (AUG-CC-PVTZ AUX)
    Blend: AUG-CC-PVTZ-JKFIT
	 Reference Energy          =    -344.7001731212961886 [Eh]
	 Singles Energy            =      -0.0000000000000000 [Eh]
	 Same-Spin Energy          =      -0.3658892964926217 [Eh]
	 Opposite-Spin Energy      =      -1.1607945528842143 [Eh]
	 Correlation Energy        =      -1.5266838493768360 [Eh]
	 Total Energy              =    -346.2268569706729977 [Eh]

	 ================> DF-SCS-MP2 Energies <==================
	-----------------------------------------------------------
	 SCS Same-Spin Scale       =       0.3333333333333333 [-]
	 SCS Opposite-Spin Scale   =       1.2000000000000000 [-]
	 SCS Same-Spin Energy      =      -0.1219630988308739 [Eh]
	 SCS Opposite-Spin Energy  =      -1.3929534634610572 [Eh]
	 SCS Correlation Energy    =      -1.5149165622919312 [Eh]
	 SCS Total Energy          =    -346.2150896835881326 [Eh]
	-----------------------------------------------------------

  Dipole Moment: [D]
     X:     0.7567      Y:     1.0803      Z:     0.0000     Total:     1.3190

*** Psi4 exiting successfully. Buy a developer a beer!
