                               Psi4 1.4a3.dev225

  ==> Input File <==

--------------------------------------------------------------------------
#psi4
#
memory 32 gb

molecule  {
0 1
  O        1.7630510    -0.6850120     0.0000440
  C        0.4069390    -0.2562572     0.0000088
  C        0.0381650     1.0640730    -0.0000210
  C       -0.4939010    -1.3032470     0.0000130
  C       -1.3314850     1.3526110    -0.0000590
  C       -1.8510560    -1.0002410    -0.0000260
  C       -2.2793230     0.3319890    -0.0000570
  C        2.7576030     0.3338520     0.0000720
  H        0.7532890     1.8795730    -0.0000260
  H       -0.1386390    -2.3300740     0.0000380
  H       -1.6510200     2.3922280    -0.0000820
  H       -2.5787280    -1.8083390    -0.0000230
  H       -3.3399740     0.5682180    -0.0000880
  H        2.6856690     0.9623970     0.8945570
  H        2.6857380     0.9623800    -0.8944310
  H        3.7115620    -0.1925360     0.0001130
units angstrom
no_reorient  #important for SAPT in psi4, default
symmetry c1  #important for SAPT in psi4, default
}

set PROPERTIES_ORIGIN ["COM"]
properties('MP2/aug-cc-pvtz', properties = ['dipole'])
--------------------------------------------------------------------------

    Molecular point group: c1
  Charge       = 0
  Multiplicity = 1
  Basis Set: AUG-CC-PVTZ
    Blend: AUG-CC-PVTZ
  Basis Set: (AUG-CC-PVTZ AUX)
    Blend: AUG-CC-PVTZ-JKFIT

    Orbital Energies [Eh]
    ---------------------

    Doubly Occupied:

       1A    -20.576989     2A    -11.297418     3A    -11.279457
       4A    -11.242970     5A    -11.241361     6A    -11.233017
       7A    -11.230128     8A    -11.228950     9A     -1.382975
      10A     -1.152408    11A     -1.023531    12A     -1.015857
      13A     -0.932692    14A     -0.835414    15A     -0.807278
      16A     -0.717042    17A     -0.657372    18A     -0.654916
      19A     -0.643661    20A     -0.620632    21A     -0.594206
      22A     -0.572402    23A     -0.524105    24A     -0.524100
      25A     -0.507085    26A     -0.486288    27A     -0.463780
      28A     -0.342792    29A     -0.319609

  @DF-RHF Final Energy:  -344.69994875235858

   => Energetics <=

    Nuclear Repulsion Energy =            345.3583229893208113
    One-Electron Energy =               -1151.8996719525857770
    Two-Electron Energy =                 461.8414002109063290
    Total Energy =                       -344.6999487523585799
  Basis Set: (AUG-CC-PVTZ AUX)
    Blend: AUG-CC-PVTZ-RI
    Molecular point group: c1

    Geometry (in Angstrom), charge = 0, multiplicity = 1:

       Center              X                  Y                   Z               Mass
    ------------   -----------------  -----------------  -----------------  -----------------
         O            1.787966415883    -0.664370595053     0.000044630867    15.994914619570
         C            0.431854415883    -0.235615795053     0.000009430867    12.000000000000
         C            0.063080415883     1.084714404947    -0.000020369133    12.000000000000
         C           -0.468985584117    -1.282605595053     0.000013630867    12.000000000000
         C           -1.306569584117     1.373252404947    -0.000058369133    12.000000000000
         C           -1.826140584117    -0.979599595053    -0.000025369133    12.000000000000
         C           -2.254407584117     0.352630404947    -0.000056369133    12.000000000000
         C            2.782518415883     0.354493404947     0.000072630867    12.000000000000
         H            0.778204415883     1.900214404947    -0.000025369133     1.007825032230
         H           -0.113723584117    -2.309432595053     0.000038630867     1.007825032230
         H           -1.626104584117     2.412869404947    -0.000081369133     1.007825032230
         H           -2.553812584117    -1.787697595053    -0.000022369133     1.007825032230
         H           -3.315058584117     0.588859404947    -0.000087369133     1.007825032230
         H            2.710584415883     0.983038404947     0.894557630867     1.007825032230
         H            2.710653415883     0.983021404947    -0.894430369133     1.007825032230
         H            3.736477415883    -0.171894595053     0.000113630867     1.007825032230

  Basis Set: AUG-CC-PVTZ
    Blend: AUG-CC-PVTZ
  Basis Set: (AUG-CC-PVTZ AUX)
    Blend: AUG-CC-PVTZ-JKFIT
	 Reference Energy          =    -344.6999487523585799 [Eh]
	 Singles Energy            =      -0.0000000000000000 [Eh]
	 Same-Spin Energy          =      -0.3660552379670274 [Eh]
	 Opposite-Spin Energy      =      -1.1608868996276267 [Eh]
	 Correlation Energy        =      -1.5269421375946541 [Eh]
	 Total Energy              =    -346.2268908899532107 [Eh]

	 ================> DF-SCS-MP2 Energies <==================
	-----------------------------------------------------------
	 SCS Same-Spin Scale       =       0.3333333333333333 [-]
	 SCS Opposite-Spin Scale   =       1.2000000000000000 [-]
	 SCS Same-Spin Energy      =      -0.1220184126556758 [Eh]
	 SCS Opposite-Spin Energy  =      -1.3930642795531520 [Eh]
	 SCS Correlation Energy    =      -1.5150826922088279 [Eh]
	 SCS Total Energy          =    -346.2150314445673871 [Eh]
	-----------------------------------------------------------

  Dipole Moment: [D]
     X:     0.3772      Y:     1.1187      Z:     0.0000     Total:     1.1806

*** Psi4 exiting successfully. Buy a developer a beer!
