                               Psi4 1.3.2 release

  ==> Input File <==

--------------------------------------------------------------------------
#psi4
#
memory 32 gb

molecule  {
0 1
  O        1.7313049    -0.6491743    -0.0870436
  C        0.4546130    -0.2713300     0.0000100
  C        0.0381650     1.0640730    -0.0000210
  C       -0.4939010    -1.3032470     0.0000130
  C       -1.3314850     1.3526110    -0.0000590
  C       -1.8510560    -1.0002410    -0.0000260
  C       -2.2793230     0.3319890    -0.0000570
  C        2.7576030     0.3338520     0.0000720
  H        0.7532890     1.8795730    -0.0000260
  H       -0.1386390    -2.3300740     0.0000380
  H       -1.6510200     2.3922280    -0.0000820
  H       -2.5787280    -1.8083390    -0.0000230
  H       -3.3399740     0.5682180    -0.0000880
  H        2.6856690     0.9623970     0.8945570
  H        2.6857380     0.9623800    -0.8944310
  H        3.7115620    -0.1925360     0.0001130
units angstrom
no_reorient  #important for SAPT in psi4, default
symmetry c1  #important for SAPT in psi4, default
}

set PROPERTIES_ORIGIN ["COM"]
properties('MP2/aug-cc-pvtz', properties = ['dipole'])
--------------------------------------------------------------------------

    Molecular point group: c1
  Charge       = 0
  Multiplicity = 1
  Basis Set: AUG-CC-PVTZ
    Blend: AUG-CC-PVTZ
  Basis Set: (AUG-CC-PVTZ AUX)
    Blend: AUG-CC-PVTZ-JKFIT

    Orbital Energies [Eh]
    ---------------------

    Doubly Occupied:

       1A    -20.585608     2A    -11.299436     3A    -11.288434
       4A    -11.239375     5A    -11.238264     6A    -11.228836
       7A    -11.224997     8A    -11.224233     9A     -1.420051
      10A     -1.142688    11A     -1.021335    12A     -1.011810
      13A     -0.943537    14A     -0.831689    15A     -0.805088
      16A     -0.721462    17A     -0.665666    18A     -0.663813
      19A     -0.657798    20A     -0.617332    21A     -0.587645
      22A     -0.575936    23A     -0.530264    24A     -0.524210
      25A     -0.512162    26A     -0.479139    27A     -0.466316
      28A     -0.338407    29A     -0.307666

  @DF-RHF Final Energy:  -344.70321108442965

   => Energetics <=

    Nuclear Repulsion Energy =            346.3201478478367221
    One-Electron Energy =               -1153.7403166888109354
    Two-Electron Energy =                 462.7169577565445024
    Total Energy =                       -344.7032110844296540
  Basis Set: (AUG-CC-PVTZ AUX)
    Blend: AUG-CC-PVTZ-RI
    Molecular point group: c1

    Geometry (in Angstrom), charge = 0, multiplicity = 1:

       Center              X                  Y                   Z               Mass
    ------------   -----------------  -----------------  -----------------  -----------------
         O            1.755625152825    -0.632163807277    -0.074152201397    15.994914619570
         C            0.478933252825    -0.254319507277     0.012901398603    12.000000000000
         C            0.062485252825     1.081083492723     0.012870398603    12.000000000000
         C           -0.469580747175    -1.286236507277     0.012904398603    12.000000000000
         C           -1.307164747175     1.369621492723     0.012832398603    12.000000000000
         C           -1.826735747175    -0.983230507277     0.012865398603    12.000000000000
         C           -2.255002747175     0.348999492723     0.012834398603    12.000000000000
         C            2.781923252825     0.350862492723     0.012963398603    12.000000000000
         H            0.777609252825     1.896583492723     0.012865398603     1.007825032230
         H           -0.114318747175    -2.313063507277     0.012929398603     1.007825032230
         H           -1.626699747175     2.409238492723     0.012809398603     1.007825032230
         H           -2.554407747175    -1.791328507277     0.012868398603     1.007825032230
         H           -3.315653747175     0.585228492723     0.012803398603     1.007825032230
         H            2.709989252825     0.979407492723     0.907448398603     1.007825032230
         H            2.710058252825     0.979390492723    -0.881539601397     1.007825032230
         H            3.735882252825    -0.175525507277     0.013004398603     1.007825032230

  Basis Set: AUG-CC-PVTZ
    Blend: AUG-CC-PVTZ
  Basis Set: (AUG-CC-PVTZ AUX)
    Blend: AUG-CC-PVTZ-JKFIT
	 Reference Energy          =    -344.7032110844296540 [Eh]
	 Singles Energy            =      -0.0000000000000000 [Eh]
	 Same-Spin Energy          =      -0.3657879714334780 [Eh]
	 Opposite-Spin Energy      =      -1.1592669765281562 [Eh]
	 Correlation Energy        =      -1.5250549479616342 [Eh]
	 Total Energy              =    -346.2282660323912751 [Eh]

	 ================> DF-SCS-MP2 Energies <==================
	-----------------------------------------------------------
	 SCS Same-Spin Scale       =       0.3333333333333333 [-]
	 SCS Opposite-Spin Scale   =       1.2000000000000000 [-]
	 SCS Same-Spin Energy      =      -0.1219293238111593 [Eh]
	 SCS Opposite-Spin Energy  =      -1.3911203718337875 [Eh]
	 SCS Correlation Energy    =      -1.5130496956449468 [Eh]
	 SCS Total Energy          =    -346.2162607800746059 [Eh]
	-----------------------------------------------------------

  Dipole Moment: [D]
     X:     1.0229      Y:     1.0090      Z:     0.1018     Total:     1.4404

*** Psi4 exiting successfully. Buy a developer a beer!
