                               Psi4 1.3.2 release

  ==> Input File <==

--------------------------------------------------------------------------
#psi4
#
memory 32 gb

molecule  {
0 1
  O        1.7630510    -0.6850120     0.0000440
  C        0.5050223    -0.1368272     0.0000116
  C        0.0381650     1.0640730    -0.0000210
  C       -0.4939010    -1.3032470     0.0000130
  C       -1.3314850     1.3526110    -0.0000590
  C       -1.8510560    -1.0002410    -0.0000260
  C       -2.2793230     0.3319890    -0.0000570
  C        2.7576030     0.3338520     0.0000720
  H        0.7532890     1.8795730    -0.0000260
  H       -0.1386390    -2.3300740     0.0000380
  H       -1.6510200     2.3922280    -0.0000820
  H       -2.5787280    -1.8083390    -0.0000230
  H       -3.3399740     0.5682180    -0.0000880
  H        2.6856690     0.9623970     0.8945570
  H        2.6857380     0.9623800    -0.8944310
  H        3.7115620    -0.1925360     0.0001130
units angstrom
no_reorient  #important for SAPT in psi4, default
symmetry c1  #important for SAPT in psi4, default
}

set PROPERTIES_ORIGIN ["COM"]
properties('MP2/aug-cc-pvtz', properties = ['dipole'])
--------------------------------------------------------------------------

    Molecular point group: c1
  Charge       = 0
  Multiplicity = 1
  Basis Set: AUG-CC-PVTZ
    Blend: AUG-CC-PVTZ
  Basis Set: (AUG-CC-PVTZ AUX)
    Blend: AUG-CC-PVTZ-JKFIT

    Orbital Energies [Eh]
    ---------------------

    Doubly Occupied:

       1A    -20.592306     2A    -11.298593     3A    -11.283437
       4A    -11.240916     5A    -11.239357     6A    -11.235314
       7A    -11.228928     8A    -11.220135     9A     -1.411610
      10A     -1.145733    11A     -1.030345    12A     -1.003154
      13A     -0.941569    14A     -0.837369    15A     -0.795245
      16A     -0.720476    17A     -0.669397    18A     -0.657809
      19A     -0.657367    20A     -0.622037    21A     -0.579682
      22A     -0.568279    23A     -0.528347    24A     -0.524990
      25A     -0.513926    26A     -0.471376    27A     -0.468724
      28A     -0.351475    29A     -0.306446

  @DF-RHF Final Energy:  -344.67652799461973

   => Energetics <=

    Nuclear Repulsion Energy =            345.4480648096754294
    One-Electron Energy =               -1151.9605010475713698
    Two-Electron Energy =                 461.8359082432762079
    Total Energy =                       -344.6765279946197325
  Basis Set: (AUG-CC-PVTZ AUX)
    Blend: AUG-CC-PVTZ-RI
    Molecular point group: c1

    Geometry (in Angstrom), charge = 0, multiplicity = 1:

       Center              X                  Y                   Z               Mass
    ------------   -----------------  -----------------  -----------------  -----------------
         O            1.777074072103    -0.677633531940     0.000044319921    15.994914619570
         C            0.519045372103    -0.129448731940     0.000011919921    12.000000000000
         C            0.052188072103     1.071451468060    -0.000020680079    12.000000000000
         C           -0.479877927897    -1.295868531940     0.000013319921    12.000000000000
         C           -1.317461927897     1.359989468060    -0.000058680079    12.000000000000
         C           -1.837032927897    -0.992862531940    -0.000025680079    12.000000000000
         C           -2.265299927897     0.339367468060    -0.000056680079    12.000000000000
         C            2.771626072103     0.341230468060     0.000072319921    12.000000000000
         H            0.767312072103     1.886951468060    -0.000025680079     1.007825032230
         H           -0.124615927897    -2.322695531940     0.000038319921     1.007825032230
         H           -1.636996927897     2.399606468060    -0.000081680079     1.007825032230
         H           -2.564704927897    -1.800960531940    -0.000022680079     1.007825032230
         H           -3.325950927897     0.575596468060    -0.000087680079     1.007825032230
         H            2.699692072103     0.969775468060     0.894557319921     1.007825032230
         H            2.699761072103     0.969758468060    -0.894430680079     1.007825032230
         H            3.725585072103    -0.185157531940     0.000113319921     1.007825032230

  Basis Set: AUG-CC-PVTZ
    Blend: AUG-CC-PVTZ
  Basis Set: (AUG-CC-PVTZ AUX)
    Blend: AUG-CC-PVTZ-JKFIT
	 Reference Energy          =    -344.6765279946197325 [Eh]
	 Singles Energy            =      -0.0000000000000000 [Eh]
	 Same-Spin Energy          =      -0.3654662998094845 [Eh]
	 Opposite-Spin Energy      =      -1.1623401879876156 [Eh]
	 Correlation Energy        =      -1.5278064877971000 [Eh]
	 Total Energy              =    -346.2043344824168116 [Eh]

	 ================> DF-SCS-MP2 Energies <==================
	-----------------------------------------------------------
	 SCS Same-Spin Scale       =       0.3333333333333333 [-]
	 SCS Opposite-Spin Scale   =       1.2000000000000000 [-]
	 SCS Same-Spin Energy      =      -0.1218220999364948 [Eh]
	 SCS Opposite-Spin Energy  =      -1.3948082255851386 [Eh]
	 SCS Correlation Energy    =      -1.5166303255216333 [Eh]
	 SCS Total Energy          =    -346.1931583201413787 [Eh]
	-----------------------------------------------------------

  Dipole Moment: [D]
     X:     0.7884      Y:     1.0992      Z:     0.0000     Total:     1.3527

*** Psi4 exiting successfully. Buy a developer a beer!
