                               Psi4 1.3.2 release

  ==> Input File <==

--------------------------------------------------------------------------
#psi4
#
memory 32 gb

molecule  {
0 1
  O        1.7630510    -0.6850120     0.0000440
  C        0.4409728    -0.3172458     0.0000096
  C        0.0381650     1.0640730    -0.0000210
  C       -0.4939010    -1.3032470     0.0000130
  C       -1.3314850     1.3526110    -0.0000590
  C       -1.8510560    -1.0002410    -0.0000260
  C       -2.2793230     0.3319890    -0.0000570
  C        2.7576030     0.3338520     0.0000720
  H        0.7532890     1.8795730    -0.0000260
  H       -0.1386390    -2.3300740     0.0000380
  H       -1.6510200     2.3922280    -0.0000820
  H       -2.5787280    -1.8083390    -0.0000230
  H       -3.3399740     0.5682180    -0.0000880
  H        2.6856690     0.9623970     0.8945570
  H        2.6857380     0.9623800    -0.8944310
  H        3.7115620    -0.1925360     0.0001130
units angstrom
no_reorient  #important for SAPT in psi4, default
symmetry c1  #important for SAPT in psi4, default
}

set PROPERTIES_ORIGIN ["COM"]
properties('MP2/aug-cc-pvtz', properties = ['dipole'])
--------------------------------------------------------------------------

    Molecular point group: c1
  Charge       = 0
  Multiplicity = 1
  Basis Set: AUG-CC-PVTZ
    Blend: AUG-CC-PVTZ
  Basis Set: (AUG-CC-PVTZ AUX)
    Blend: AUG-CC-PVTZ-JKFIT

    Orbital Energies [Eh]
    ---------------------

    Doubly Occupied:

       1A    -20.583203     2A    -11.301063     3A    -11.285452
       4A    -11.240934     5A    -11.240651     6A    -11.236762
       7A    -11.227220     8A    -11.222726     9A     -1.403145
      10A     -1.145778    11A     -1.026440    12A     -1.007611
      13A     -0.939649    14A     -0.831400    15A     -0.807178
      16A     -0.718620    17A     -0.664778    18A     -0.656693
      19A     -0.652100    20A     -0.617233    21A     -0.591340
      22A     -0.575292    23A     -0.525902    24A     -0.524274
      25A     -0.514147    26A     -0.478193    27A     -0.467095
      28A     -0.339938    29A     -0.312525

  @DF-RHF Final Energy:  -344.70095724264706

   => Energetics <=

    Nuclear Repulsion Energy =            345.2319235592047448
    One-Electron Energy =               -1151.5910806445590424
    Two-Electron Energy =                 461.6581998427072904
    Total Energy =                       -344.7009572426470640
  Basis Set: (AUG-CC-PVTZ AUX)
    Blend: AUG-CC-PVTZ-RI
    Molecular point group: c1

    Geometry (in Angstrom), charge = 0, multiplicity = 1:

       Center              X                  Y                   Z               Mass
    ------------   -----------------  -----------------  -----------------  -----------------
         O            1.784186895315    -0.657597690819     0.000044542025    15.994914619570
         C            0.462108695315    -0.289831490819     0.000010142025    12.000000000000
         C            0.059300895315     1.091487309181    -0.000020457975    12.000000000000
         C           -0.472765104685    -1.275832690819     0.000013542025    12.000000000000
         C           -1.310349104685     1.380025309181    -0.000058457975    12.000000000000
         C           -1.829920104685    -0.972826690819    -0.000025457975    12.000000000000
         C           -2.258187104685     0.359403309181    -0.000056457975    12.000000000000
         C            2.778738895315     0.361266309181     0.000072542025    12.000000000000
         H            0.774424895315     1.906987309181    -0.000025457975     1.007825032230
         H           -0.117503104685    -2.302659690819     0.000038542025     1.007825032230
         H           -1.629884104685     2.419642309181    -0.000081457975     1.007825032230
         H           -2.557592104685    -1.780924690819    -0.000022457975     1.007825032230
         H           -3.318838104685     0.595632309181    -0.000087457975     1.007825032230
         H            2.706804895315     0.989811309181     0.894557542025     1.007825032230
         H            2.706873895315     0.989794309181    -0.894430457975     1.007825032230
         H            3.732697895315    -0.165121690819     0.000113542025     1.007825032230

  Basis Set: AUG-CC-PVTZ
    Blend: AUG-CC-PVTZ
  Basis Set: (AUG-CC-PVTZ AUX)
    Blend: AUG-CC-PVTZ-JKFIT
	 Reference Energy          =    -344.7009572426470640 [Eh]
	 Singles Energy            =      -0.0000000000000000 [Eh]
	 Same-Spin Energy          =      -0.3658975393276669 [Eh]
	 Opposite-Spin Energy      =      -1.1601654785744258 [Eh]
	 Correlation Energy        =      -1.5260630179020926 [Eh]
	 Total Energy              =    -346.2270202605491818 [Eh]

	 ================> DF-SCS-MP2 Energies <==================
	-----------------------------------------------------------
	 SCS Same-Spin Scale       =       0.3333333333333333 [-]
	 SCS Opposite-Spin Scale   =       1.2000000000000000 [-]
	 SCS Same-Spin Energy      =      -0.1219658464425556 [Eh]
	 SCS Opposite-Spin Energy  =      -1.3921985742893108 [Eh]
	 SCS Correlation Energy    =      -1.5141644207318665 [Eh]
	 SCS Total Energy          =    -346.2151216633789090 [Eh]
	-----------------------------------------------------------

  Dipole Moment: [D]
     X:     0.7282      Y:     1.0723      Z:     0.0000     Total:     1.2962

*** Psi4 exiting successfully. Buy a developer a beer!
