                               Psi4 1.4a3.dev225

  ==> Input File <==

--------------------------------------------------------------------------
#psi4
#
memory 32 gb

molecule  {
0 1
  O        1.7630510    -0.6850120     0.0000440
  C        0.4355434    -0.2653009     0.0000095
  C        0.0381650     1.0640730    -0.0000210
  C       -0.4939010    -1.3032470     0.0000130
  C       -1.3314850     1.3526110    -0.0000590
  C       -1.8510560    -1.0002410    -0.0000260
  C       -2.2793230     0.3319890    -0.0000570
  C        2.7576030     0.3338520     0.0000720
  H        0.7532890     1.8795730    -0.0000260
  H       -0.1386390    -2.3300740     0.0000380
  H       -1.6510200     2.3922280    -0.0000820
  H       -2.5787280    -1.8083390    -0.0000230
  H       -3.3399740     0.5682180    -0.0000880
  H        2.6856690     0.9623970     0.8945570
  H        2.6857380     0.9623800    -0.8944310
  H        3.7115620    -0.1925360     0.0001130
units angstrom
no_reorient  #important for SAPT in psi4, default
symmetry c1  #important for SAPT in psi4, default
}

set PROPERTIES_ORIGIN ["COM"]
properties('MP2/aug-cc-pvtz', properties = ['dipole'])
--------------------------------------------------------------------------

    Molecular point group: c1
  Charge       = 0
  Multiplicity = 1
  Basis Set: AUG-CC-PVTZ
    Blend: AUG-CC-PVTZ
  Basis Set: (AUG-CC-PVTZ AUX)
    Blend: AUG-CC-PVTZ-JKFIT

    Orbital Energies [Eh]
    ---------------------

    Doubly Occupied:

       1A    -20.582080     2A    -11.299619     3A    -11.282609
       4A    -11.241848     5A    -11.240262     6A    -11.232948
       7A    -11.228468     8A    -11.228230     9A     -1.396039
      10A     -1.147864    11A     -1.021361    12A     -1.013984
      13A     -0.937007    14A     -0.832960    15A     -0.806775
      16A     -0.717920    17A     -0.660770    18A     -0.657223
      19A     -0.649227    20A     -0.619545    21A     -0.590683
      22A     -0.573666    23A     -0.524560    24A     -0.524371
      25A     -0.509672    26A     -0.485001    27A     -0.466255
      28A     -0.341061    29A     -0.315321

  @DF-RHF Final Energy:  -344.70277422103652

   => Energetics <=

    Nuclear Repulsion Energy =            345.2972231127395730
    One-Electron Energy =               -1151.7453342526678171
    Two-Electron Energy =                 461.7453369188916668
    Total Energy =                       -344.7027742210365204
  Basis Set: (AUG-CC-PVTZ AUX)
    Blend: AUG-CC-PVTZ-RI
    Molecular point group: c1

    Geometry (in Angstrom), charge = 0, multiplicity = 1:

       Center              X                  Y                   Z               Mass
    ------------   -----------------  -----------------  -----------------  -----------------
         O            1.784789840886    -0.663366274343     0.000044553130    15.994914619570
         C            0.457282240886    -0.243655174343     0.000010053130    12.000000000000
         C            0.059903840886     1.085718725657    -0.000020446870    12.000000000000
         C           -0.472162159114    -1.281601274343     0.000013553130    12.000000000000
         C           -1.309746159114     1.374256725657    -0.000058446870    12.000000000000
         C           -1.829317159114    -0.978595274343    -0.000025446870    12.000000000000
         C           -2.257584159114     0.353634725657    -0.000056446870    12.000000000000
         C            2.779341840886     0.355497725657     0.000072553130    12.000000000000
         H            0.775027840886     1.901218725657    -0.000025446870     1.007825032230
         H           -0.116900159114    -2.308428274343     0.000038553130     1.007825032230
         H           -1.629281159114     2.413873725657    -0.000081446870     1.007825032230
         H           -2.556989159114    -1.786693274343    -0.000022446870     1.007825032230
         H           -3.318235159114     0.589863725657    -0.000087446870     1.007825032230
         H            2.707407840886     0.984042725657     0.894557553130     1.007825032230
         H            2.707476840886     0.984025725657    -0.894430446870     1.007825032230
         H            3.733300840886    -0.170890274343     0.000113553130     1.007825032230

  Basis Set: AUG-CC-PVTZ
    Blend: AUG-CC-PVTZ
  Basis Set: (AUG-CC-PVTZ AUX)
    Blend: AUG-CC-PVTZ-JKFIT
	 Reference Energy          =    -344.7027742210365204 [Eh]
	 Singles Energy            =      -0.0000000000000000 [Eh]
	 Same-Spin Energy          =      -0.3659810796826735 [Eh]
	 Opposite-Spin Energy      =      -1.1605296206697600 [Eh]
	 Correlation Energy        =      -1.5265107003524334 [Eh]
	 Total Energy              =    -346.2292849213889667 [Eh]

	 ================> DF-SCS-MP2 Energies <==================
	-----------------------------------------------------------
	 SCS Same-Spin Scale       =       0.3333333333333333 [-]
	 SCS Opposite-Spin Scale   =       1.2000000000000000 [-]
	 SCS Same-Spin Energy      =      -0.1219936932275578 [Eh]
	 SCS Opposite-Spin Energy  =      -1.3926355448037120 [Eh]
	 SCS Correlation Energy    =      -1.5146292380312698 [Eh]
	 SCS Total Energy          =    -346.2174034590677820 [Eh]
	-----------------------------------------------------------

  Dipole Moment: [D]
     X:     0.5934      Y:     1.0934      Z:     0.0000     Total:     1.2440

*** Psi4 exiting successfully. Buy a developer a beer!
