                               Psi4 1.3.2 release

  ==> Input File <==

--------------------------------------------------------------------------
#psi4
#
memory 32 gb

molecule  {
0 1
  O        1.7630510    -0.6850120     0.0000440
  C        0.4475925    -0.2942284     0.0000098
  C        0.0381650     1.0640730    -0.0000210
  C       -0.4939010    -1.3032470     0.0000130
  C       -1.3314850     1.3526110    -0.0000590
  C       -1.8510560    -1.0002410    -0.0000260
  C       -2.2793230     0.3319890    -0.0000570
  C        2.7576030     0.3338520     0.0000720
  H        0.7532890     1.8795730    -0.0000260
  H       -0.1386390    -2.3300740     0.0000380
  H       -1.6510200     2.3922280    -0.0000820
  H       -2.5787280    -1.8083390    -0.0000230
  H       -3.3399740     0.5682180    -0.0000880
  H        2.6856690     0.9623970     0.8945570
  H        2.6857380     0.9623800    -0.8944310
  H        3.7115620    -0.1925360     0.0001130
units angstrom
no_reorient  #important for SAPT in psi4, default
symmetry c1  #important for SAPT in psi4, default
}

set PROPERTIES_ORIGIN ["COM"]
properties('MP2/aug-cc-pvtz', properties = ['dipole'])
--------------------------------------------------------------------------

    Molecular point group: c1
  Charge       = 0
  Multiplicity = 1
  Basis Set: AUG-CC-PVTZ
    Blend: AUG-CC-PVTZ
  Basis Set: (AUG-CC-PVTZ AUX)
    Blend: AUG-CC-PVTZ-JKFIT

    Orbital Energies [Eh]
    ---------------------

    Doubly Occupied:

       1A    -20.584385     2A    -11.301239     3A    -11.285108
       4A    -11.241034     5A    -11.240110     6A    -11.234870
       7A    -11.227206     8A    -11.225292     9A     -1.404254
      10A     -1.145258    11A     -1.023347    12A     -1.010057
      13A     -0.939690    14A     -0.831163    15A     -0.807140
      16A     -0.718751    17A     -0.663801    18A     -0.657874
      19A     -0.652632    20A     -0.617974    21A     -0.589903
      22A     -0.574836    23A     -0.525467    24A     -0.524842
      25A     -0.512837    26A     -0.480879    27A     -0.467314
      28A     -0.339621    29A     -0.312600

  @DF-RHF Final Energy:  -344.70296715096219

   => Energetics <=

    Nuclear Repulsion Energy =            345.2477717285574386
    One-Electron Energy =               -1151.6225079057562652
    Two-Electron Energy =                 461.6717690262366887
    Total Energy =                       -344.7029671509621949
  Basis Set: (AUG-CC-PVTZ AUX)
    Blend: AUG-CC-PVTZ-RI
    Molecular point group: c1

    Geometry (in Angstrom), charge = 0, multiplicity = 1:

       Center              X                  Y                   Z               Mass
    ------------   -----------------  -----------------  -----------------  -----------------
         O            1.783451764583    -0.660153818455     0.000044519815    15.994914619570
         C            0.467993264583    -0.269370218455     0.000010319815    12.000000000000
         C            0.058565764583     1.088931181545    -0.000020480185    12.000000000000
         C           -0.473500235417    -1.278388818455     0.000013519815    12.000000000000
         C           -1.311084235417     1.377469181545    -0.000058480185    12.000000000000
         C           -1.830655235417    -0.975382818455    -0.000025480185    12.000000000000
         C           -2.258922235417     0.356847181545    -0.000056480185    12.000000000000
         C            2.778003764583     0.358710181545     0.000072519815    12.000000000000
         H            0.773689764583     1.904431181545    -0.000025480185     1.007825032230
         H           -0.118238235417    -2.305215818455     0.000038519815     1.007825032230
         H           -1.630619235417     2.417086181545    -0.000081480185     1.007825032230
         H           -2.558327235417    -1.783480818455    -0.000022480185     1.007825032230
         H           -3.319573235417     0.593076181545    -0.000087480185     1.007825032230
         H            2.706069764583     0.987255181545     0.894557519815     1.007825032230
         H            2.706138764583     0.987238181545    -0.894430480185     1.007825032230
         H            3.731962764583    -0.167677818455     0.000113519815     1.007825032230

  Basis Set: AUG-CC-PVTZ
    Blend: AUG-CC-PVTZ
  Basis Set: (AUG-CC-PVTZ AUX)
    Blend: AUG-CC-PVTZ-JKFIT
	 Reference Energy          =    -344.7029671509621949 [Eh]
	 Singles Energy            =      -0.0000000000000000 [Eh]
	 Same-Spin Energy          =      -0.3659557505311244 [Eh]
	 Opposite-Spin Energy      =      -1.1602363076517874 [Eh]
	 Correlation Energy        =      -1.5261920581829118 [Eh]
	 Total Energy              =    -346.2291592091451093 [Eh]

	 ================> DF-SCS-MP2 Energies <==================
	-----------------------------------------------------------
	 SCS Same-Spin Scale       =       0.3333333333333333 [-]
	 SCS Opposite-Spin Scale   =       1.2000000000000000 [-]
	 SCS Same-Spin Energy      =      -0.1219852501770415 [Eh]
	 SCS Opposite-Spin Energy  =      -1.3922835691821449 [Eh]
	 SCS Correlation Energy    =      -1.5142688193591864 [Eh]
	 SCS Total Energy          =    -346.2172359703213829 [Eh]
	-----------------------------------------------------------

  Dipole Moment: [D]
     X:     0.7357      Y:     1.0741      Z:     0.0000     Total:     1.3018

*** Psi4 exiting successfully. Buy a developer a beer!
