                               Psi4 1.3.2 release

  ==> Input File <==

--------------------------------------------------------------------------
#psi4
#
memory 32 gb

molecule  {
0 1
  O        1.7546538    -0.6765115    -0.0217445
  C        0.4546130    -0.2713300     0.0000100
  C        0.0381650     1.0640730    -0.0000210
  C       -0.4939010    -1.3032470     0.0000130
  C       -1.3314850     1.3526110    -0.0000590
  C       -1.8510560    -1.0002410    -0.0000260
  C       -2.2793230     0.3319890    -0.0000570
  C        2.7576030     0.3338520     0.0000720
  H        0.7532890     1.8795730    -0.0000260
  H       -0.1386390    -2.3300740     0.0000380
  H       -1.6510200     2.3922280    -0.0000820
  H       -2.5787280    -1.8083390    -0.0000230
  H       -3.3399740     0.5682180    -0.0000880
  H        2.6856690     0.9623970     0.8945570
  H        2.6857380     0.9623800    -0.8944310
  H        3.7115620    -0.1925360     0.0001130
units angstrom
no_reorient  #important for SAPT in psi4, default
symmetry c1  #important for SAPT in psi4, default
}

set PROPERTIES_ORIGIN ["COM"]
properties('MP2/aug-cc-pvtz', properties = ['dipole'])
--------------------------------------------------------------------------

    Molecular point group: c1
  Charge       = 0
  Multiplicity = 1
  Basis Set: AUG-CC-PVTZ
    Blend: AUG-CC-PVTZ
  Basis Set: (AUG-CC-PVTZ AUX)
    Blend: AUG-CC-PVTZ-JKFIT

    Orbital Energies [Eh]
    ---------------------

    Doubly Occupied:

       1A    -20.585613     2A    -11.300778     3A    -11.285757
       4A    -11.240656     5A    -11.239190     6A    -11.231816
       7A    -11.226998     8A    -11.226440     9A     -1.409224
      10A     -1.144301    11A     -1.020541    12A     -1.012366
      13A     -0.940871    14A     -0.831417    15A     -0.806107
      16A     -0.719562    17A     -0.663536    18A     -0.660270
      19A     -0.654690    20A     -0.618382    21A     -0.587972
      22A     -0.574731    23A     -0.526478    24A     -0.525013
      25A     -0.512060    26A     -0.481744    27A     -0.467496
      28A     -0.339538    29A     -0.311067

  @DF-RHF Final Energy:  -344.70392687478528

   => Energetics <=

    Nuclear Repulsion Energy =            345.5470535264475984
    One-Electron Energy =               -1152.2127373032240030
    Two-Electron Energy =                 461.9617569019911230
    Total Energy =                       -344.7039268747852816
  Basis Set: (AUG-CC-PVTZ AUX)
    Blend: AUG-CC-PVTZ-RI
    Molecular point group: c1

    Geometry (in Angstrom), charge = 0, multiplicity = 1:

       Center              X                  Y                   Z               Mass
    ------------   -----------------  -----------------  -----------------  -----------------
         O            1.775517896514    -0.655454493895    -0.018518819977    15.994914619570
         C            0.475477096514    -0.250272993895     0.003235680023    12.000000000000
         C            0.059029096514     1.085130006105     0.003204680023    12.000000000000
         C           -0.473036903486    -1.282189993895     0.003238680023    12.000000000000
         C           -1.310620903486     1.373668006105     0.003166680023    12.000000000000
         C           -1.830191903486    -0.979183993895     0.003199680023    12.000000000000
         C           -2.258458903486     0.353046006105     0.003168680023    12.000000000000
         C            2.778467096514     0.354909006105     0.003297680023    12.000000000000
         H            0.774153096514     1.900630006105     0.003199680023     1.007825032230
         H           -0.117774903486    -2.309016993895     0.003263680023     1.007825032230
         H           -1.630155903486     2.413285006105     0.003143680023     1.007825032230
         H           -2.557863903486    -1.787281993895     0.003202680023     1.007825032230
         H           -3.319109903486     0.589275006105     0.003137680023     1.007825032230
         H            2.706533096514     0.983454006105     0.897782680023     1.007825032230
         H            2.706602096514     0.983437006105    -0.891205319977     1.007825032230
         H            3.732426096514    -0.171478993895     0.003338680023     1.007825032230

  Basis Set: AUG-CC-PVTZ
    Blend: AUG-CC-PVTZ
  Basis Set: (AUG-CC-PVTZ AUX)
    Blend: AUG-CC-PVTZ-JKFIT
	 Reference Energy          =    -344.7039268747852816 [Eh]
	 Singles Energy            =      -0.0000000000000000 [Eh]
	 Same-Spin Energy          =      -0.3659103616100641 [Eh]
	 Opposite-Spin Energy      =      -1.1600460845265745 [Eh]
	 Correlation Energy        =      -1.5259564461366386 [Eh]
	 Total Energy              =    -346.2298833209219424 [Eh]

	 ================> DF-SCS-MP2 Energies <==================
	-----------------------------------------------------------
	 SCS Same-Spin Scale       =       0.3333333333333333 [-]
	 SCS Opposite-Spin Scale   =       1.2000000000000000 [-]
	 SCS Same-Spin Energy      =      -0.1219701205366880 [Eh]
	 SCS Opposite-Spin Energy  =      -1.3920553014318895 [Eh]
	 SCS Correlation Energy    =      -1.5140254219685776 [Eh]
	 SCS Total Energy          =    -346.2179522967538787 [Eh]
	-----------------------------------------------------------

  Dipole Moment: [D]
     X:     0.8187      Y:     1.0589      Z:     0.0262     Total:     1.3387

*** Psi4 exiting successfully. Buy a developer a beer!
