                               Psi4 1.3.2 release

  ==> Input File <==

--------------------------------------------------------------------------
#psi4
#
memory 32 gb

molecule  {
0 1
  O        1.7807516    -0.7010794     0.0436144
  C        0.4546130    -0.2713300     0.0000100
  C        0.0381650     1.0640730    -0.0000210
  C       -0.4939010    -1.3032470     0.0000130
  C       -1.3314850     1.3526110    -0.0000590
  C       -1.8510560    -1.0002410    -0.0000260
  C       -2.2793230     0.3319890    -0.0000570
  C        2.7576030     0.3338520     0.0000720
  H        0.7532890     1.8795730    -0.0000260
  H       -0.1386390    -2.3300740     0.0000380
  H       -1.6510200     2.3922280    -0.0000820
  H       -2.5787280    -1.8083390    -0.0000230
  H       -3.3399740     0.5682180    -0.0000880
  H        2.6856690     0.9623970     0.8945570
  H        2.6857380     0.9623800    -0.8944310
  H        3.7115620    -0.1925360     0.0001130
units angstrom
no_reorient  #important for SAPT in psi4, default
symmetry c1  #important for SAPT in psi4, default
}

set PROPERTIES_ORIGIN ["COM"]
properties('MP2/aug-cc-pvtz', properties = ['dipole'])
--------------------------------------------------------------------------

    Molecular point group: c1
  Charge       = 0
  Multiplicity = 1
  Basis Set: AUG-CC-PVTZ
    Blend: AUG-CC-PVTZ
  Basis Set: (AUG-CC-PVTZ AUX)
    Blend: AUG-CC-PVTZ-JKFIT

    Orbital Energies [Eh]
    ---------------------

    Doubly Occupied:

       1A    -20.585350     2A    -11.302246     3A    -11.282758
       4A    -11.242064     5A    -11.240278     6A    -11.235048
       7A    -11.229357     8A    -11.228996     9A     -1.397311
      10A     -1.146142    11A     -1.020356    12A     -1.012788
      13A     -0.937387    14A     -0.831356    15A     -0.807366
      16A     -0.717626    17A     -0.661902    18A     -0.656886
      19A     -0.649583    20A     -0.619501    21A     -0.588846
      22A     -0.573619    23A     -0.526107    24A     -0.522650
      25A     -0.510352    26A     -0.485045    27A     -0.467096
      28A     -0.340792    29A     -0.314987

  @DF-RHF Final Energy:  -344.70154982736466

   => Energetics <=

    Nuclear Repulsion Energy =            344.6783460373448520
    One-Electron Energy =               -1150.4921988996352411
    Two-Electron Energy =                 461.1123030349256737
    Total Energy =                       -344.7015498273646585
  Basis Set: (AUG-CC-PVTZ AUX)
    Blend: AUG-CC-PVTZ-RI
    Molecular point group: c1

    Geometry (in Angstrom), charge = 0, multiplicity = 1:

       Center              X                  Y                   Z               Mass
    ------------   -----------------  -----------------  -----------------  -----------------
         O            1.797752641888    -0.676385798483     0.037165509714    15.994914619570
         C            0.471614041888    -0.246636398483    -0.006438890286    12.000000000000
         C            0.055166041888     1.088766601517    -0.006469890286    12.000000000000
         C           -0.476899958112    -1.278553398483    -0.006435890286    12.000000000000
         C           -1.314483958112     1.377304601517    -0.006507890286    12.000000000000
         C           -1.834054958112    -0.975547398483    -0.006474890286    12.000000000000
         C           -2.262321958112     0.356682601517    -0.006505890286    12.000000000000
         C            2.774604041888     0.358545601517    -0.006376890286    12.000000000000
         H            0.770290041888     1.904266601517    -0.006474890286     1.007825032230
         H           -0.121637958112    -2.305380398483    -0.006410890286     1.007825032230
         H           -1.634018958112     2.416921601517    -0.006530890286     1.007825032230
         H           -2.561726958112    -1.783645398483    -0.006471890286     1.007825032230
         H           -3.322972958112     0.592911601517    -0.006536890286     1.007825032230
         H            2.702670041888     0.987090601517     0.888108109714     1.007825032230
         H            2.702739041888     0.987073601517    -0.900879890286     1.007825032230
         H            3.728563041888    -0.167842398483    -0.006335890286     1.007825032230

  Basis Set: AUG-CC-PVTZ
    Blend: AUG-CC-PVTZ
  Basis Set: (AUG-CC-PVTZ AUX)
    Blend: AUG-CC-PVTZ-JKFIT
	 Reference Energy          =    -344.7015498273646585 [Eh]
	 Singles Energy            =      -0.0000000000000000 [Eh]
	 Same-Spin Energy          =      -0.3661278049075355 [Eh]
	 Opposite-Spin Energy      =      -1.1610928770524982 [Eh]
	 Correlation Energy        =      -1.5272206819600338 [Eh]
	 Total Energy              =    -346.2287705093247041 [Eh]

	 ================> DF-SCS-MP2 Energies <==================
	-----------------------------------------------------------
	 SCS Same-Spin Scale       =       0.3333333333333333 [-]
	 SCS Opposite-Spin Scale   =       1.2000000000000000 [-]
	 SCS Same-Spin Energy      =      -0.1220426016358452 [Eh]
	 SCS Opposite-Spin Energy  =      -1.3933114524629977 [Eh]
	 SCS Correlation Energy    =      -1.5153540540988428 [Eh]
	 SCS Total Energy          =    -346.2169038814635087 [Eh]
	-----------------------------------------------------------

  Dipole Moment: [D]
     X:     0.5823      Y:     1.1095      Z:    -0.0540     Total:     1.2542

*** Psi4 exiting successfully. Buy a developer a beer!
