                               Psi4 1.3.2 release

  ==> Input File <==

--------------------------------------------------------------------------
#psi4
#
memory 32 gb

molecule  {
0 1
  O        1.7717512    -0.6932021     0.0218325
  C        0.4546130    -0.2713300     0.0000100
  C        0.0381650     1.0640730    -0.0000210
  C       -0.4939010    -1.3032470     0.0000130
  C       -1.3314850     1.3526110    -0.0000590
  C       -1.8510560    -1.0002410    -0.0000260
  C       -2.2793230     0.3319890    -0.0000570
  C        2.7576030     0.3338520     0.0000720
  H        0.7532890     1.8795730    -0.0000260
  H       -0.1386390    -2.3300740     0.0000380
  H       -1.6510200     2.3922280    -0.0000820
  H       -2.5787280    -1.8083390    -0.0000230
  H       -3.3399740     0.5682180    -0.0000880
  H        2.6856690     0.9623970     0.8945570
  H        2.6857380     0.9623800    -0.8944310
  H        3.7115620    -0.1925360     0.0001130
units angstrom
no_reorient  #important for SAPT in psi4, default
symmetry c1  #important for SAPT in psi4, default
}

set PROPERTIES_ORIGIN ["COM"]
properties('MP2/aug-cc-pvtz', properties = ['dipole'])
--------------------------------------------------------------------------

    Molecular point group: c1
  Charge       = 0
  Multiplicity = 1
  Basis Set: AUG-CC-PVTZ
    Blend: AUG-CC-PVTZ
  Basis Set: (AUG-CC-PVTZ AUX)
    Blend: AUG-CC-PVTZ-JKFIT

    Orbital Energies [Eh]
    ---------------------

    Doubly Occupied:

       1A    -20.585460     2A    -11.301742     3A    -11.283781
       4A    -11.241582     5A    -11.239900     6A    -11.233951
       7A    -11.228538     8A    -11.228115     9A     -1.401362
      10A     -1.145507    11A     -1.020338    12A     -1.012665
      13A     -0.938634    14A     -0.831352    15A     -0.806921
      16A     -0.718260    17A     -0.662486    18A     -0.657903
      19A     -0.651474    20A     -0.619123    21A     -0.588508
      22A     -0.573965    23A     -0.525697    24A     -0.523895
      25A     -0.511134    26A     -0.483907    27A     -0.467386
      28A     -0.340362    29A     -0.313634

  @DF-RHF Final Energy:  -344.70270445456725

   => Energetics <=

    Nuclear Repulsion Energy =            344.9773863902263997
    One-Electron Energy =               -1151.0850121996213602
    Two-Electron Energy =                 461.4049213548276498
    Total Energy =                       -344.7027044545672538
  Basis Set: (AUG-CC-PVTZ AUX)
    Blend: AUG-CC-PVTZ-RI
    Molecular point group: c1

    Geometry (in Angstrom), charge = 0, multiplicity = 1:

       Center              X                  Y                   Z               Mass
    ------------   -----------------  -----------------  -----------------  -----------------
         O            1.790084501192    -0.669674514017     0.018607815186    15.994914619570
         C            0.472946301192    -0.247802414017    -0.003214684814    12.000000000000
         C            0.056498301192     1.087600585983    -0.003245684814    12.000000000000
         C           -0.475567698808    -1.279719414017    -0.003211684814    12.000000000000
         C           -1.313151698808     1.376138585983    -0.003283684814    12.000000000000
         C           -1.832722698808    -0.976713414017    -0.003250684814    12.000000000000
         C           -2.260989698808     0.355516585983    -0.003281684814    12.000000000000
         C            2.775936301192     0.357379585983    -0.003152684814    12.000000000000
         H            0.771622301192     1.903100585983    -0.003250684814     1.007825032230
         H           -0.120305698808    -2.306546414017    -0.003186684814     1.007825032230
         H           -1.632686698808     2.415755585983    -0.003306684814     1.007825032230
         H           -2.560394698808    -1.784811414017    -0.003247684814     1.007825032230
         H           -3.321640698808     0.591745585983    -0.003312684814     1.007825032230
         H            2.704002301192     0.985924585983     0.891332315186     1.007825032230
         H            2.704071301192     0.985907585983    -0.897655684814     1.007825032230
         H            3.729895301192    -0.169008414017    -0.003111684814     1.007825032230

  Basis Set: AUG-CC-PVTZ
    Blend: AUG-CC-PVTZ
  Basis Set: (AUG-CC-PVTZ AUX)
    Blend: AUG-CC-PVTZ-JKFIT
	 Reference Energy          =    -344.7027044545672538 [Eh]
	 Singles Energy            =      -0.0000000000000000 [Eh]
	 Same-Spin Energy          =      -0.3660444635605912 [Eh]
	 Opposite-Spin Energy      =      -1.1607130584885823 [Eh]
	 Correlation Energy        =      -1.5267575220491736 [Eh]
	 Total Energy              =    -346.2294619766164487 [Eh]

	 ================> DF-SCS-MP2 Energies <==================
	-----------------------------------------------------------
	 SCS Same-Spin Scale       =       0.3333333333333333 [-]
	 SCS Opposite-Spin Scale   =       1.2000000000000000 [-]
	 SCS Same-Spin Energy      =      -0.1220148211868637 [Eh]
	 SCS Opposite-Spin Energy  =      -1.3928556701862986 [Eh]
	 SCS Correlation Energy    =      -1.5148704913731623 [Eh]
	 SCS Total Energy          =    -346.2175749459404415 [Eh]
	-----------------------------------------------------------

  Dipole Moment: [D]
     X:     0.6639      Y:     1.0927      Z:    -0.0267     Total:     1.2789

*** Psi4 exiting successfully. Buy a developer a beer!
