                               Psi4 1.4a3.dev225

  ==> Input File <==

--------------------------------------------------------------------------
#psi4
#
memory 32 gb

molecule  {
0 1
  O        1.7630510    -0.6850120     0.0000440
  C        0.4736826    -0.2773591     0.0000105
  C        0.0381650     1.0640730    -0.0000210
  C       -0.4939010    -1.3032470     0.0000130
  C       -1.3314850     1.3526110    -0.0000590
  C       -1.8510560    -1.0002410    -0.0000260
  C       -2.2793230     0.3319890    -0.0000570
  C        2.7576030     0.3338520     0.0000720
  H        0.7532890     1.8795730    -0.0000260
  H       -0.1386390    -2.3300740     0.0000380
  H       -1.6510200     2.3922280    -0.0000820
  H       -2.5787280    -1.8083390    -0.0000230
  H       -3.3399740     0.5682180    -0.0000880
  H        2.6856690     0.9623970     0.8945570
  H        2.6857380     0.9623800    -0.8944310
  H        3.7115620    -0.1925360     0.0001130
units angstrom
no_reorient  #important for SAPT in psi4, default
symmetry c1  #important for SAPT in psi4, default
}

set PROPERTIES_ORIGIN ["COM"]
properties('MP2/aug-cc-pvtz', properties = ['dipole'])
--------------------------------------------------------------------------

    Molecular point group: c1
  Charge       = 0
  Multiplicity = 1
  Basis Set: AUG-CC-PVTZ
    Blend: AUG-CC-PVTZ
  Basis Set: (AUG-CC-PVTZ AUX)
    Blend: AUG-CC-PVTZ-JKFIT

    Orbital Energies [Eh]
    ---------------------

    Doubly Occupied:

       1A    -20.589102     2A    -11.303010     3A    -11.287026
       4A    -11.240383     5A    -11.238812     6A    -11.232761
       7A    -11.227239     8A    -11.225985     9A     -1.415156
      10A     -1.141965    11A     -1.019868    12A     -1.010913
      13A     -0.942464    14A     -0.829840    15A     -0.806288
      16A     -0.720244    17A     -0.665142    18A     -0.661068
      19A     -0.657392    20A     -0.617900    21A     -0.585710
      22A     -0.574866    23A     -0.526865    24A     -0.526374
      25A     -0.513338    26A     -0.479901    27A     -0.468457
      28A     -0.338848    29A     -0.309223

  @DF-RHF Final Energy:  -344.70322552400535

   => Energetics <=

    Nuclear Repulsion Energy =            345.2463050948483669
    One-Electron Energy =               -1151.5867775484757658
    Two-Electron Energy =                 461.6372469296220515
    Total Energy =                       -344.7032255240053473
  Basis Set: (AUG-CC-PVTZ AUX)
    Blend: AUG-CC-PVTZ-RI
    Molecular point group: c1

    Geometry (in Angstrom), charge = 0, multiplicity = 1:

       Center              X                  Y                   Z               Mass
    ------------   -----------------  -----------------  -----------------  -----------------
         O            1.780554407557    -0.662027187468     0.000044442079    15.994914619570
         C            0.491186007557    -0.254374287468     0.000010942079    12.000000000000
         C            0.055668407557     1.087057812532    -0.000020557921    12.000000000000
         C           -0.476397592443    -1.280262187468     0.000013442079    12.000000000000
         C           -1.313981592443     1.375595812532    -0.000058557921    12.000000000000
         C           -1.833552592443    -0.977256187468    -0.000025557921    12.000000000000
         C           -2.261819592443     0.354973812532    -0.000056557921    12.000000000000
         C            2.775106407557     0.356836812532     0.000072442079    12.000000000000
         H            0.770792407557     1.902557812532    -0.000025557921     1.007825032230
         H           -0.121135592443    -2.307089187468     0.000038442079     1.007825032230
         H           -1.633516592443     2.415212812532    -0.000081557921     1.007825032230
         H           -2.561224592443    -1.785354187468    -0.000022557921     1.007825032230
         H           -3.322470592443     0.591202812532    -0.000087557921     1.007825032230
         H            2.703172407557     0.985381812532     0.894557442079     1.007825032230
         H            2.703241407557     0.985364812532    -0.894430557921     1.007825032230
         H            3.729065407557    -0.169551187468     0.000113442079     1.007825032230

  Basis Set: AUG-CC-PVTZ
    Blend: AUG-CC-PVTZ
  Basis Set: (AUG-CC-PVTZ AUX)
    Blend: AUG-CC-PVTZ-JKFIT
	 Reference Energy          =    -344.7032255240053473 [Eh]
	 Singles Energy            =      -0.0000000000000000 [Eh]
	 Same-Spin Energy          =      -0.3659933125333876 [Eh]
	 Opposite-Spin Energy      =      -1.1602555298439208 [Eh]
	 Correlation Energy        =      -1.5262488423773084 [Eh]
	 Total Energy              =    -346.2294743663826466 [Eh]

	 ================> DF-SCS-MP2 Energies <==================
	-----------------------------------------------------------
	 SCS Same-Spin Scale       =       0.3333333333333333 [-]
	 SCS Opposite-Spin Scale   =       1.2000000000000000 [-]
	 SCS Same-Spin Energy      =      -0.1219977708444625 [Eh]
	 SCS Opposite-Spin Energy  =      -1.3923066358127050 [Eh]
	 SCS Correlation Energy    =      -1.5143044066571676 [Eh]
	 SCS Total Energy          =    -346.2175299306625220 [Eh]
	-----------------------------------------------------------

  Dipole Moment: [D]
     X:     0.8969      Y:     1.0576      Z:     0.0000     Total:     1.3868

*** Psi4 exiting successfully. Buy a developer a beer!
