                               Psi4 1.3.2 release

  ==> Input File <==

--------------------------------------------------------------------------
#psi4
#
memory 32 gb

molecule  {
0 1
  O        1.7630510    -0.6850120     0.0000440
  C        0.6453090    -0.3316213     0.0000150
  C        0.0381650     1.0640730    -0.0000210
  C       -0.4939010    -1.3032470     0.0000130
  C       -1.3314850     1.3526110    -0.0000590
  C       -1.8510560    -1.0002410    -0.0000260
  C       -2.2793230     0.3319890    -0.0000570
  C        2.7576030     0.3338520     0.0000720
  H        0.7532890     1.8795730    -0.0000260
  H       -0.1386390    -2.3300740     0.0000380
  H       -1.6510200     2.3922280    -0.0000820
  H       -2.5787280    -1.8083390    -0.0000230
  H       -3.3399740     0.5682180    -0.0000880
  H        2.6856690     0.9623970     0.8945570
  H        2.6857380     0.9623800    -0.8944310
  H        3.7115620    -0.1925360     0.0001130
units angstrom
no_reorient  #important for SAPT in psi4, default
symmetry c1  #important for SAPT in psi4, default
}

set PROPERTIES_ORIGIN ["COM"]
properties('MP2/aug-cc-pvtz', properties = ['dipole'])
--------------------------------------------------------------------------

    Molecular point group: c1
  Charge       = 0
  Multiplicity = 1
  Basis Set: AUG-CC-PVTZ
    Blend: AUG-CC-PVTZ
  Basis Set: (AUG-CC-PVTZ AUX)
    Blend: AUG-CC-PVTZ-JKFIT

    Orbital Energies [Eh]
    ---------------------

    Doubly Occupied:

       1A    -20.627644     2A    -11.322785     3A    -11.311415
       4A    -11.233417     5A    -11.231734     6A    -11.228968
       7A    -11.220520     8A    -11.209961     9A     -1.530781
      10A     -1.117109    11A     -1.039022    12A     -0.994516
      13A     -0.951289    14A     -0.825690    15A     -0.808281
      16A     -0.739947    17A     -0.710287    18A     -0.697090
      19A     -0.666752    20A     -0.608839    21A     -0.574306
      22A     -0.570231    23A     -0.557577    24A     -0.549108
      25A     -0.509399    26A     -0.463985    27A     -0.437878
      28A     -0.329124    29A     -0.277648

  @DF-RHF Final Energy:  -344.64533499863256

   => Energetics <=

    Nuclear Repulsion Energy =            345.5623983378193884
    One-Electron Energy =               -1151.7248652253329055
    Two-Electron Energy =                 461.5171318888810106
    Total Energy =                       -344.6453349986325634
  Basis Set: (AUG-CC-PVTZ AUX)
    Blend: AUG-CC-PVTZ-RI
    Molecular point group: c1

    Geometry (in Angstrom), charge = 0, multiplicity = 1:

       Center              X                  Y                   Z               Mass
    ------------   -----------------  -----------------  -----------------  -----------------
         O            1.761494957574    -0.656001263211     0.000043942345    15.994914619570
         C            0.643752957574    -0.302610563211     0.000014942345    12.000000000000
         C            0.036608957574     1.093083736789    -0.000021057655    12.000000000000
         C           -0.495457042426    -1.274236263211     0.000012942345    12.000000000000
         C           -1.333041042426     1.381621736789    -0.000059057655    12.000000000000
         C           -1.852612042426    -0.971230263211    -0.000026057655    12.000000000000
         C           -2.280879042426     0.360999736789    -0.000057057655    12.000000000000
         C            2.756046957574     0.362862736789     0.000071942345    12.000000000000
         H            0.751732957574     1.908583736789    -0.000026057655     1.007825032230
         H           -0.140195042426    -2.301063263211     0.000037942345     1.007825032230
         H           -1.652576042426     2.421238736789    -0.000082057655     1.007825032230
         H           -2.580284042426    -1.779328263211    -0.000023057655     1.007825032230
         H           -3.341530042426     0.597228736789    -0.000088057655     1.007825032230
         H            2.684112957574     0.991407736789     0.894556942345     1.007825032230
         H            2.684181957574     0.991390736789    -0.894431057655     1.007825032230
         H            3.710005957574    -0.163525263211     0.000112942345     1.007825032230

  Basis Set: AUG-CC-PVTZ
    Blend: AUG-CC-PVTZ
  Basis Set: (AUG-CC-PVTZ AUX)
    Blend: AUG-CC-PVTZ-JKFIT
	 Reference Energy          =    -344.6453349986325634 [Eh]
	 Singles Energy            =      -0.0000000000000000 [Eh]
	 Same-Spin Energy          =      -0.3670130554256518 [Eh]
	 Opposite-Spin Energy      =      -1.1610826945754504 [Eh]
	 Correlation Energy        =      -1.5280957500011021 [Eh]
	 Total Energy              =    -346.1734307486336775 [Eh]

	 ================> DF-SCS-MP2 Energies <==================
	-----------------------------------------------------------
	 SCS Same-Spin Scale       =       0.3333333333333333 [-]
	 SCS Opposite-Spin Scale   =       1.2000000000000000 [-]
	 SCS Same-Spin Energy      =      -0.1223376851418839 [Eh]
	 SCS Opposite-Spin Energy  =      -1.3932992334905405 [Eh]
	 SCS Correlation Energy    =      -1.5156369186324246 [Eh]
	 SCS Total Energy          =    -346.1609719172649875 [Eh]
	-----------------------------------------------------------

  Dipole Moment: [D]
     X:     2.5183      Y:     0.8643      Z:     0.0001     Total:     2.6625

*** Psi4 exiting successfully. Buy a developer a beer!
