                               Psi4 1.3.2 release

  ==> Input File <==

--------------------------------------------------------------------------
#psi4
#
memory 32 gb

molecule  {
0 1
  O        1.7465621    -0.6677033    -0.0435264
  C        0.4546130    -0.2713300     0.0000100
  C        0.0381650     1.0640730    -0.0000210
  C       -0.4939010    -1.3032470     0.0000130
  C       -1.3314850     1.3526110    -0.0000590
  C       -1.8510560    -1.0002410    -0.0000260
  C       -2.2793230     0.3319890    -0.0000570
  C        2.7576030     0.3338520     0.0000720
  H        0.7532890     1.8795730    -0.0000260
  H       -0.1386390    -2.3300740     0.0000380
  H       -1.6510200     2.3922280    -0.0000820
  H       -2.5787280    -1.8083390    -0.0000230
  H       -3.3399740     0.5682180    -0.0000880
  H        2.6856690     0.9623970     0.8945570
  H        2.6857380     0.9623800    -0.8944310
  H        3.7115620    -0.1925360     0.0001130
units angstrom
no_reorient  #important for SAPT in psi4, default
symmetry c1  #important for SAPT in psi4, default
}

set PROPERTIES_ORIGIN ["COM"]
properties('MP2/aug-cc-pvtz', properties = ['dipole'])
--------------------------------------------------------------------------

    Molecular point group: c1
  Charge       = 0
  Multiplicity = 1
  Basis Set: AUG-CC-PVTZ
    Blend: AUG-CC-PVTZ
  Basis Set: (AUG-CC-PVTZ AUX)
    Blend: AUG-CC-PVTZ-JKFIT

    Orbital Energies [Eh]
    ---------------------

    Doubly Occupied:

       1A    -20.585647     2A    -11.300318     3A    -11.286695
       4A    -11.240213     5A    -11.238862     6A    -11.230787
       7A    -11.226285     8A    -11.225658     9A     -1.412986
      10A     -1.143735    11A     -1.020751    12A     -1.012190
      13A     -0.941853    14A     -0.831486    15A     -0.805740
      16A     -0.720212    17A     -0.664051    18A     -0.661604
      19A     -0.655942    20A     -0.618022    21A     -0.587791
      22A     -0.575136    23A     -0.527761    24A     -0.524737
      25A     -0.512240    26A     -0.480767    27A     -0.467293
      28A     -0.339145    29A     -0.309866

  @DF-RHF Final Energy:  -344.70401493762552

   => Energetics <=

    Nuclear Repulsion Energy =            345.8162893671034226
    One-Electron Energy =               -1152.7450638250820703
    Two-Electron Energy =                 462.2247595203531318
    Total Energy =                       -344.7040149376255158
  Basis Set: (AUG-CC-PVTZ AUX)
    Blend: AUG-CC-PVTZ-RI
    Molecular point group: c1

    Geometry (in Angstrom), charge = 0, multiplicity = 1:

       Center              X                  Y                   Z               Mass
    ------------   -----------------  -----------------  -----------------  -----------------
         O            1.768623948015    -0.647950103326    -0.037076514505    15.994914619570
         C            0.476674848015    -0.251576803326     0.006459885495    12.000000000000
         C            0.060226848015     1.083826196674     0.006428885495    12.000000000000
         C           -0.471839151985    -1.283493803326     0.006462885495    12.000000000000
         C           -1.309423151985     1.372364196674     0.006390885495    12.000000000000
         C           -1.828994151985    -0.980487803326     0.006423885495    12.000000000000
         C           -2.257261151985     0.351742196674     0.006392885495    12.000000000000
         C            2.779664848015     0.353605196674     0.006521885495    12.000000000000
         H            0.775350848015     1.899326196674     0.006423885495     1.007825032230
         H           -0.116577151985    -2.310320803326     0.006487885495     1.007825032230
         H           -1.628958151985     2.411981196674     0.006367885495     1.007825032230
         H           -2.556666151985    -1.788585803326     0.006426885495     1.007825032230
         H           -3.317912151985     0.587971196674     0.006361885495     1.007825032230
         H            2.707730848015     0.982150196674     0.901006885495     1.007825032230
         H            2.707799848015     0.982133196674    -0.887981114505     1.007825032230
         H            3.733623848015    -0.172782803326     0.006562885495     1.007825032230

  Basis Set: AUG-CC-PVTZ
    Blend: AUG-CC-PVTZ
  Basis Set: (AUG-CC-PVTZ AUX)
    Blend: AUG-CC-PVTZ-JKFIT
	 Reference Energy          =    -344.7040149376255158 [Eh]
	 Singles Energy            =      -0.0000000000000000 [Eh]
	 Same-Spin Energy          =      -0.3658591921977602 [Eh]
	 Opposite-Spin Energy      =      -1.1597570770867593 [Eh]
	 Correlation Energy        =      -1.5256162692845194 [Eh]
	 Total Energy              =    -346.2296312069100281 [Eh]

	 ================> DF-SCS-MP2 Energies <==================
	-----------------------------------------------------------
	 SCS Same-Spin Scale       =       0.3333333333333333 [-]
	 SCS Opposite-Spin Scale   =       1.2000000000000000 [-]
	 SCS Same-Spin Energy      =      -0.1219530640659201 [Eh]
	 SCS Opposite-Spin Energy  =      -1.3917084925041112 [Eh]
	 SCS Correlation Energy    =      -1.5136615565700313 [Eh]
	 SCS Total Energy          =    -346.2176764941955298 [Eh]
	-----------------------------------------------------------

  Dipole Moment: [D]
     X:     0.8909      Y:     1.0421      Z:     0.0519     Total:     1.3720

*** Psi4 exiting successfully. Buy a developer a beer!
