                               Psi4 1.3.2 release

  ==> Input File <==

--------------------------------------------------------------------------
#psi4
#
memory 32 gb

molecule  {
0 1
  O        1.7996424    -0.7158859     0.0871317
  C        0.4546130    -0.2713300     0.0000100
  C        0.0381650     1.0640730    -0.0000210
  C       -0.4939010    -1.3032470     0.0000130
  C       -1.3314850     1.3526110    -0.0000590
  C       -1.8510560    -1.0002410    -0.0000260
  C       -2.2793230     0.3319890    -0.0000570
  C        2.7576030     0.3338520     0.0000720
  H        0.7532890     1.8795730    -0.0000260
  H       -0.1386390    -2.3300740     0.0000380
  H       -1.6510200     2.3922280    -0.0000820
  H       -2.5787280    -1.8083390    -0.0000230
  H       -3.3399740     0.5682180    -0.0000880
  H        2.6856690     0.9623970     0.8945570
  H        2.6857380     0.9623800    -0.8944310
  H        3.7115620    -0.1925360     0.0001130
units angstrom
no_reorient  #important for SAPT in psi4, default
symmetry c1  #important for SAPT in psi4, default
}

set PROPERTIES_ORIGIN ["COM"]
properties('MP2/aug-cc-pvtz', properties = ['dipole'])
--------------------------------------------------------------------------

    Molecular point group: c1
  Charge       = 0
  Multiplicity = 1
  Basis Set: AUG-CC-PVTZ
    Blend: AUG-CC-PVTZ
  Basis Set: (AUG-CC-PVTZ AUX)
    Blend: AUG-CC-PVTZ-JKFIT

    Orbital Energies [Eh]
    ---------------------

    Doubly Occupied:

       1A    -20.585087     2A    -11.303307     3A    -11.280673
       4A    -11.243058     5A    -11.241076     6A    -11.237274
       7A    -11.231075     8A    -11.230821     9A     -1.389084
      10A     -1.147465    11A     -1.020626    12A     -1.012994
      13A     -0.934662    14A     -0.831442    15A     -0.808329
      16A     -0.716433    17A     -0.660581    18A     -0.655066
      19A     -0.645500    20A     -0.620262    21A     -0.589620
      22A     -0.573015    23A     -0.527097    24A     -0.520314
      25A     -0.508110    26A     -0.487327    27A     -0.466089
      28A     -0.341682    29A     -0.317796

  @DF-RHF Final Energy:  -344.69811997654591

   => Energetics <=

    Nuclear Repulsion Energy =            344.0553160550621783
    One-Electron Energy =               -1149.2551410600763120
    Two-Electron Energy =                 460.5017050284682796
    Total Energy =                       -344.6981199765459110
  Basis Set: (AUG-CC-PVTZ AUX)
    Blend: AUG-CC-PVTZ-RI
    Molecular point group: c1

    Geometry (in Angstrom), charge = 0, multiplicity = 1:

       Center              X                  Y                   Z               Mass
    ------------   -----------------  -----------------  -----------------  -----------------
         O            1.813847183493    -0.689000607293     0.074241281804    15.994914619570
         C            0.468817783493    -0.244444707293    -0.012880418196    12.000000000000
         C            0.052369783493     1.090958292707    -0.012911418196    12.000000000000
         C           -0.479696216507    -1.276361707293    -0.012877418196    12.000000000000
         C           -1.317280216507     1.379496292707    -0.012949418196    12.000000000000
         C           -1.836851216507    -0.973355707293    -0.012916418196    12.000000000000
         C           -2.265118216507     0.358874292707    -0.012947418196    12.000000000000
         C            2.771807783493     0.360737292707    -0.012818418196    12.000000000000
         H            0.767493783493     1.906458292707    -0.012916418196     1.007825032230
         H           -0.124434216507    -2.303188707293    -0.012852418196     1.007825032230
         H           -1.636815216507     2.419113292707    -0.012972418196     1.007825032230
         H           -2.564523216507    -1.781453707293    -0.012913418196     1.007825032230
         H           -3.325769216507     0.595103292707    -0.012978418196     1.007825032230
         H            2.699873783493     0.989282292707     0.881666581804     1.007825032230
         H            2.699942783493     0.989265292707    -0.907321418196     1.007825032230
         H            3.725766783493    -0.165650707293    -0.012777418196     1.007825032230

  Basis Set: AUG-CC-PVTZ
    Blend: AUG-CC-PVTZ
  Basis Set: (AUG-CC-PVTZ AUX)
    Blend: AUG-CC-PVTZ-JKFIT
	 Reference Energy          =    -344.6981199765459110 [Eh]
	 Singles Energy            =      -0.0000000000000000 [Eh]
	 Same-Spin Energy          =      -0.3663284530862702 [Eh]
	 Opposite-Spin Energy      =      -1.1619518222305705 [Eh]
	 Correlation Energy        =      -1.5282802753168405 [Eh]
	 Total Energy              =    -346.2264002518627422 [Eh]

	 ================> DF-SCS-MP2 Energies <==================
	-----------------------------------------------------------
	 SCS Same-Spin Scale       =       0.3333333333333333 [-]
	 SCS Opposite-Spin Scale   =       1.2000000000000000 [-]
	 SCS Same-Spin Energy      =      -0.1221094843620900 [Eh]
	 SCS Opposite-Spin Energy  =      -1.3943421866766845 [Eh]
	 SCS Correlation Energy    =      -1.5164516710387745 [Eh]
	 SCS Total Energy          =    -346.2145716475847053 [Eh]
	-----------------------------------------------------------

  Dipole Moment: [D]
     X:     0.4128      Y:     1.1427      Z:    -0.1100     Total:     1.2200

*** Psi4 exiting successfully. Buy a developer a beer!
