                               Psi4 1.3.2 release

  ==> Input File <==

--------------------------------------------------------------------------
#psi4
#
memory 32 gb

molecule  {
0 1
  O        1.7630510    -0.6850120     0.0000440
  C        0.3592650    -0.2411843     0.0000075
  C        0.0381650     1.0640730    -0.0000210
  C       -0.4939010    -1.3032470     0.0000130
  C       -1.3314850     1.3526110    -0.0000590
  C       -1.8510560    -1.0002410    -0.0000260
  C       -2.2793230     0.3319890    -0.0000570
  C        2.7576030     0.3338520     0.0000720
  H        0.7532890     1.8795730    -0.0000260
  H       -0.1386390    -2.3300740     0.0000380
  H       -1.6510200     2.3922280    -0.0000820
  H       -2.5787280    -1.8083390    -0.0000230
  H       -3.3399740     0.5682180    -0.0000880
  H        2.6856690     0.9623970     0.8945570
  H        2.6857380     0.9623800    -0.8944310
  H        3.7115620    -0.1925360     0.0001130
units angstrom
no_reorient  #important for SAPT in psi4, default
symmetry c1  #important for SAPT in psi4, default
}

set PROPERTIES_ORIGIN ["COM"]
properties('MP2/aug-cc-pvtz', properties = ['dipole'])
--------------------------------------------------------------------------

    Molecular point group: c1
  Charge       = 0
  Multiplicity = 1
  Basis Set: AUG-CC-PVTZ
    Blend: AUG-CC-PVTZ
  Basis Set: (AUG-CC-PVTZ AUX)
    Blend: AUG-CC-PVTZ-JKFIT

    Orbital Energies [Eh]
    ---------------------

    Doubly Occupied:

       1A    -20.568638     2A    -11.294472     3A    -11.274422
       4A    -11.244935     5A    -11.243257     6A    -11.233093
       7A    -11.232615     8A    -11.230171     9A     -1.363308
      10A     -1.160234    11A     -1.028582    12A     -1.018378
      13A     -0.925424    14A     -0.839617    15A     -0.808296
      16A     -0.716915    17A     -0.654527    18A     -0.650149
      19A     -0.635231    20A     -0.622108    21A     -0.599138
      22A     -0.569671    23A     -0.525631    24A     -0.524250
      25A     -0.507115    26A     -0.481118    27A     -0.458409
      28A     -0.345882    29A     -0.326176

  @DF-RHF Final Energy:  -344.69094811061416

   => Energetics <=

    Nuclear Repulsion Energy =            345.4988453446041490
    One-Electron Energy =               -1152.2160620563022349
    Two-Electron Energy =                 462.0262686010838706
    Total Energy =                       -344.6909481106141584
  Basis Set: (AUG-CC-PVTZ AUX)
    Blend: AUG-CC-PVTZ-RI
    Molecular point group: c1

    Geometry (in Angstrom), charge = 0, multiplicity = 1:

       Center              X                  Y                   Z               Mass
    ------------   -----------------  -----------------  -----------------  -----------------
         O            1.793260707545    -0.666044470305     0.000044775234    15.994914619570
         C            0.389474707545    -0.222216770305     0.000008275234    12.000000000000
         C            0.068374707545     1.083040529695    -0.000020224766    12.000000000000
         C           -0.463691292455    -1.284279470305     0.000013775234    12.000000000000
         C           -1.301275292455     1.371578529695    -0.000058224766    12.000000000000
         C           -1.820846292455    -0.981273470305    -0.000025224766    12.000000000000
         C           -2.249113292455     0.350956529695    -0.000056224766    12.000000000000
         C            2.787812707545     0.352819529695     0.000072775234    12.000000000000
         H            0.783498707545     1.898540529695    -0.000025224766     1.007825032230
         H           -0.108429292455    -2.311106470305     0.000038775234     1.007825032230
         H           -1.620810292455     2.411195529695    -0.000081224766     1.007825032230
         H           -2.548518292455    -1.789371470305    -0.000022224766     1.007825032230
         H           -3.309764292455     0.587185529695    -0.000087224766     1.007825032230
         H            2.715878707545     0.981364529695     0.894557775234     1.007825032230
         H            2.715947707545     0.981347529695    -0.894430224766     1.007825032230
         H            3.741771707545    -0.173568470305     0.000113775234     1.007825032230

  Basis Set: AUG-CC-PVTZ
    Blend: AUG-CC-PVTZ
  Basis Set: (AUG-CC-PVTZ AUX)
    Blend: AUG-CC-PVTZ-JKFIT
	 Reference Energy          =    -344.6909481106141584 [Eh]
	 Singles Energy            =      -0.0000000000000000 [Eh]
	 Same-Spin Energy          =      -0.3663496485838271 [Eh]
	 Opposite-Spin Energy      =      -1.1617808147160456 [Eh]
	 Correlation Energy        =      -1.5281304632998727 [Eh]
	 Total Energy              =    -346.2190785739140324 [Eh]

	 ================> DF-SCS-MP2 Energies <==================
	-----------------------------------------------------------
	 SCS Same-Spin Scale       =       0.3333333333333333 [-]
	 SCS Opposite-Spin Scale   =       1.2000000000000000 [-]
	 SCS Same-Spin Energy      =      -0.1221165495279423 [Eh]
	 SCS Opposite-Spin Energy  =      -1.3941369776592547 [Eh]
	 SCS Correlation Energy    =      -1.5162535271871971 [Eh]
	 SCS Total Energy          =    -346.2072016378013473 [Eh]
	-----------------------------------------------------------

  Dipole Moment: [D]
     X:     0.0359      Y:     1.1586      Z:     0.0000     Total:     1.1592

*** Psi4 exiting successfully. Buy a developer a beer!
