                               Psi4 1.3.2 release

  ==> Input File <==

--------------------------------------------------------------------------
#psi4
#
memory 32 gb

molecule  {
0 1
  O        1.7630510    -0.6850120     0.0000440
  C        0.5499610    -0.3014757     0.0000125
  C        0.0381650     1.0640730    -0.0000210
  C       -0.4939010    -1.3032470     0.0000130
  C       -1.3314850     1.3526110    -0.0000590
  C       -1.8510560    -1.0002410    -0.0000260
  C       -2.2793230     0.3319890    -0.0000570
  C        2.7576030     0.3338520     0.0000720
  H        0.7532890     1.8795730    -0.0000260
  H       -0.1386390    -2.3300740     0.0000380
  H       -1.6510200     2.3922280    -0.0000820
  H       -2.5787280    -1.8083390    -0.0000230
  H       -3.3399740     0.5682180    -0.0000880
  H        2.6856690     0.9623970     0.8945570
  H        2.6857380     0.9623800    -0.8944310
  H        3.7115620    -0.1925360     0.0001130
units angstrom
no_reorient  #important for SAPT in psi4, default
symmetry c1  #important for SAPT in psi4, default
}

set PROPERTIES_ORIGIN ["COM"]
properties('MP2/aug-cc-pvtz', properties = ['dipole'])
--------------------------------------------------------------------------

    Molecular point group: c1
  Charge       = 0
  Multiplicity = 1
  Basis Set: AUG-CC-PVTZ
    Blend: AUG-CC-PVTZ
  Basis Set: (AUG-CC-PVTZ AUX)
    Blend: AUG-CC-PVTZ-JKFIT

    Orbital Energies [Eh]
    ---------------------

    Doubly Occupied:

       1A    -20.604530     2A    -11.311099     3A    -11.296839
       4A    -11.237432     5A    -11.235845     6A    -11.231797
       7A    -11.224835     8A    -11.219942     9A     -1.460129
      10A     -1.130622    11A     -1.022486    12A     -1.003747
      13A     -0.950640    14A     -0.824781    15A     -0.806324
      16A     -0.728618    17A     -0.677047    18A     -0.674995
      19A     -0.667898    20A     -0.614039    21A     -0.576727
      22A     -0.574974    23A     -0.538166    24A     -0.536291
      25A     -0.514170    26A     -0.468903    27A     -0.464078
      28A     -0.334564    29A     -0.295876

  @DF-RHF Final Energy:  -344.69112545448382

   => Energetics <=

    Nuclear Repulsion Energy =            345.2650175263319170
    One-Electron Energy =               -1151.4574978112918870
    Two-Electron Energy =                 461.5013548304761457
    Total Energy =                       -344.6911254544838243
  Basis Set: (AUG-CC-PVTZ AUX)
    Blend: AUG-CC-PVTZ-RI
    Molecular point group: c1

    Geometry (in Angstrom), charge = 0, multiplicity = 1:

       Center              X                  Y                   Z               Mass
    ------------   -----------------  -----------------  -----------------  -----------------
         O            1.772083540898    -0.659348991506     0.000044219975    15.994914619570
         C            0.558993540898    -0.275812691506     0.000012719975    12.000000000000
         C            0.047197540898     1.089736008494    -0.000020780025    12.000000000000
         C           -0.484868459102    -1.277583991506     0.000013219975    12.000000000000
         C           -1.322452459102     1.378274008494    -0.000058780025    12.000000000000
         C           -1.842023459102    -0.974577991506    -0.000025780025    12.000000000000
         C           -2.270290459102     0.357652008494    -0.000056780025    12.000000000000
         C            2.766635540898     0.359515008494     0.000072219975    12.000000000000
         H            0.762321540898     1.905236008494    -0.000025780025     1.007825032230
         H           -0.129606459102    -2.304410991506     0.000038219975     1.007825032230
         H           -1.641987459102     2.417891008494    -0.000081780025     1.007825032230
         H           -2.569695459102    -1.782675991506    -0.000022780025     1.007825032230
         H           -3.330941459102     0.593881008494    -0.000087780025     1.007825032230
         H            2.694701540898     0.988060008494     0.894557219975     1.007825032230
         H            2.694770540898     0.988043008494    -0.894430780025     1.007825032230
         H            3.720594540898    -0.166872991506     0.000113219975     1.007825032230

  Basis Set: AUG-CC-PVTZ
    Blend: AUG-CC-PVTZ
  Basis Set: (AUG-CC-PVTZ AUX)
    Blend: AUG-CC-PVTZ-JKFIT
	 Reference Energy          =    -344.6911254544838243 [Eh]
	 Singles Energy            =      -0.0000000000000000 [Eh]
	 Same-Spin Energy          =      -0.3663274490447023 [Eh]
	 Opposite-Spin Energy      =      -1.1603103014363021 [Eh]
	 Correlation Energy        =      -1.5266377504810045 [Eh]
	 Total Energy              =    -346.2177632049648537 [Eh]

	 ================> DF-SCS-MP2 Energies <==================
	-----------------------------------------------------------
	 SCS Same-Spin Scale       =       0.3333333333333333 [-]
	 SCS Opposite-Spin Scale   =       1.2000000000000000 [-]
	 SCS Same-Spin Energy      =      -0.1221091496815674 [Eh]
	 SCS Opposite-Spin Energy  =      -1.3923723617235624 [Eh]
	 SCS Correlation Energy    =      -1.5144815114051298 [Eh]
	 SCS Total Energy          =    -346.2056069658889328 [Eh]
	-----------------------------------------------------------

  Dipole Moment: [D]
     X:     1.5632      Y:     0.9788      Z:     0.0000     Total:     1.8444

*** Psi4 exiting successfully. Buy a developer a beer!
