                               Psi4 1.3.2 release

  ==> Input File <==

--------------------------------------------------------------------------
#psi4
#
memory 32 gb

molecule  {
0 1
  O        1.7630510    -0.6850120     0.0000440
  C        0.4185392    -0.4103652     0.0000088
  C        0.0381650     1.0640730    -0.0000210
  C       -0.4939010    -1.3032470     0.0000130
  C       -1.3314850     1.3526110    -0.0000590
  C       -1.8510560    -1.0002410    -0.0000260
  C       -2.2793230     0.3319890    -0.0000570
  C        2.7576030     0.3338520     0.0000720
  H        0.7532890     1.8795730    -0.0000260
  H       -0.1386390    -2.3300740     0.0000380
  H       -1.6510200     2.3922280    -0.0000820
  H       -2.5787280    -1.8083390    -0.0000230
  H       -3.3399740     0.5682180    -0.0000880
  H        2.6856690     0.9623970     0.8945570
  H        2.6857380     0.9623800    -0.8944310
  H        3.7115620    -0.1925360     0.0001130
units angstrom
no_reorient  #important for SAPT in psi4, default
symmetry c1  #important for SAPT in psi4, default
}

set PROPERTIES_ORIGIN ["COM"]
properties('MP2/aug-cc-pvtz', properties = ['dipole'])
--------------------------------------------------------------------------

    Molecular point group: c1
  Charge       = 0
  Multiplicity = 1
  Basis Set: AUG-CC-PVTZ
    Blend: AUG-CC-PVTZ
  Basis Set: (AUG-CC-PVTZ AUX)
    Blend: AUG-CC-PVTZ-JKFIT

    Orbital Energies [Eh]
    ---------------------

    Doubly Occupied:

       1A    -20.578405     2A    -11.298936     3A    -11.287006
       4A    -11.243368     5A    -11.242408     6A    -11.239792
       7A    -11.227988     8A    -11.211830     9A     -1.398556
      10A     -1.149462    11A     -1.039261    12A     -0.998848
      13A     -0.940229    14A     -0.835881    15A     -0.802223
      16A     -0.718391    17A     -0.669710    18A     -0.652709
      19A     -0.650310    20A     -0.615937    21A     -0.592568
      22A     -0.577086    23A     -0.528701    24A     -0.521724
      25A     -0.519239    26A     -0.466119    27A     -0.462093
      28A     -0.346608    29A     -0.309553

  @DF-RHF Final Energy:  -344.67763453218470

   => Energetics <=

    Nuclear Repulsion Energy =            345.2041787368829659
    One-Electron Energy =               -1151.5137447142687961
    Two-Electron Energy =                 461.6319314452010758
    Total Energy =                       -344.6776345321846975
  Basis Set: (AUG-CC-PVTZ AUX)
    Blend: AUG-CC-PVTZ-RI
    Molecular point group: c1

    Geometry (in Angstrom), charge = 0, multiplicity = 1:

       Center              X                  Y                   Z               Mass
    ------------   -----------------  -----------------  -----------------  -----------------
         O            1.786678190810    -0.647256597918     0.000044630867    15.994914619570
         C            0.442166390810    -0.372609797918     0.000009430867    12.000000000000
         C            0.061792190810     1.101828402082    -0.000020369133    12.000000000000
         C           -0.470273809190    -1.265491597918     0.000013630867    12.000000000000
         C           -1.307857809190     1.390366402082    -0.000058369133    12.000000000000
         C           -1.827428809190    -0.962485597918    -0.000025369133    12.000000000000
         C           -2.255695809190     0.369744402082    -0.000056369133    12.000000000000
         C            2.781230190810     0.371607402082     0.000072630867    12.000000000000
         H            0.776916190810     1.917328402082    -0.000025369133     1.007825032230
         H           -0.115011809190    -2.292318597918     0.000038630867     1.007825032230
         H           -1.627392809190     2.429983402082    -0.000081369133     1.007825032230
         H           -2.555100809190    -1.770583597918    -0.000022369133     1.007825032230
         H           -3.316346809190     0.605973402082    -0.000087369133     1.007825032230
         H            2.709296190810     1.000152402082     0.894557630867     1.007825032230
         H            2.709365190810     1.000135402082    -0.894430369133     1.007825032230
         H            3.735189190810    -0.154780597918     0.000113630867     1.007825032230

  Basis Set: AUG-CC-PVTZ
    Blend: AUG-CC-PVTZ
  Basis Set: (AUG-CC-PVTZ AUX)
    Blend: AUG-CC-PVTZ-JKFIT
	 Reference Energy          =    -344.6776345321846975 [Eh]
	 Singles Energy            =      -0.0000000000000000 [Eh]
	 Same-Spin Energy          =      -0.3653118159694039 [Eh]
	 Opposite-Spin Energy      =      -1.1604366328607667 [Eh]
	 Correlation Energy        =      -1.5257484488301705 [Eh]
	 Total Energy              =    -346.2033829810148404 [Eh]

	 ================> DF-SCS-MP2 Energies <==================
	-----------------------------------------------------------
	 SCS Same-Spin Scale       =       0.3333333333333333 [-]
	 SCS Opposite-Spin Scale   =       1.2000000000000000 [-]
	 SCS Same-Spin Energy      =      -0.1217706053231346 [Eh]
	 SCS Opposite-Spin Energy  =      -1.3925239594329200 [Eh]
	 SCS Correlation Energy    =      -1.5142945647560546 [Eh]
	 SCS Total Energy          =    -346.1919290969407257 [Eh]
	-----------------------------------------------------------

  Dipole Moment: [D]
     X:     0.6941      Y:     1.0588      Z:     0.0000     Total:     1.2660

*** Psi4 exiting successfully. Buy a developer a beer!
