                               Psi4 1.3.2 release

  ==> Input File <==

--------------------------------------------------------------------------
#psi4
#
memory 32 gb

molecule  {
0 1
  O        1.7630510    -0.6850120     0.0000440
  C        0.4620320    -0.2485576     0.0000102
  C        0.0381650     1.0640730    -0.0000210
  C       -0.4939010    -1.3032470     0.0000130
  C       -1.3314850     1.3526110    -0.0000590
  C       -1.8510560    -1.0002410    -0.0000260
  C       -2.2793230     0.3319890    -0.0000570
  C        2.7576030     0.3338520     0.0000720
  H        0.7532890     1.8795730    -0.0000260
  H       -0.1386390    -2.3300740     0.0000380
  H       -1.6510200     2.3922280    -0.0000820
  H       -2.5787280    -1.8083390    -0.0000230
  H       -3.3399740     0.5682180    -0.0000880
  H        2.6856690     0.9623970     0.8945570
  H        2.6857380     0.9623800    -0.8944310
  H        3.7115620    -0.1925360     0.0001130
units angstrom
no_reorient  #important for SAPT in psi4, default
symmetry c1  #important for SAPT in psi4, default
}

set PROPERTIES_ORIGIN ["COM"]
properties('MP2/aug-cc-pvtz', properties = ['dipole'])
--------------------------------------------------------------------------

    Molecular point group: c1
  Charge       = 0
  Multiplicity = 1
  Basis Set: AUG-CC-PVTZ
    Blend: AUG-CC-PVTZ
  Basis Set: (AUG-CC-PVTZ AUX)
    Blend: AUG-CC-PVTZ-JKFIT

    Orbital Energies [Eh]
    ---------------------

    Doubly Occupied:

       1A    -20.586694     2A    -11.301106     3A    -11.284479
       4A    -11.241162     5A    -11.238936     6A    -11.230799
       7A    -11.230068     8A    -11.227391     9A     -1.406407
      10A     -1.144677    11A     -1.018088    12A     -1.014531
      13A     -0.939965    14A     -0.831964    15A     -0.805331
      16A     -0.719093    17A     -0.662732    18A     -0.659859
      19A     -0.653786    20A     -0.619503    21A     -0.586403
      22A     -0.573763    23A     -0.525909    24A     -0.524878
      25A     -0.510896    26A     -0.483761    27A     -0.467724
      28A     -0.340867    29A     -0.311732

  @DF-RHF Final Energy:  -344.70255652727980

   => Energetics <=

    Nuclear Repulsion Energy =            345.2900606405220856
    One-Electron Energy =               -1151.7002249230135931
    Two-Electron Energy =                 461.7076077552116544
    Total Energy =                       -344.7025565272797962
  Basis Set: (AUG-CC-PVTZ AUX)
    Blend: AUG-CC-PVTZ-RI
    Molecular point group: c1

    Geometry (in Angstrom), charge = 0, multiplicity = 1:

       Center              X                  Y                   Z               Mass
    ------------   -----------------  -----------------  -----------------  -----------------
         O            1.781848229649    -0.665225650808     0.000044475394    15.994914619570
         C            0.480829229649    -0.228771250808     0.000010675394    12.000000000000
         C            0.056962229649     1.083859349192    -0.000020524606    12.000000000000
         C           -0.475103770351    -1.283460650808     0.000013475394    12.000000000000
         C           -1.312687770351     1.372397349192    -0.000058524606    12.000000000000
         C           -1.832258770351    -0.980454650808    -0.000025524606    12.000000000000
         C           -2.260525770351     0.351775349192    -0.000056524606    12.000000000000
         C            2.776400229649     0.353638349192     0.000072475394    12.000000000000
         H            0.772086229649     1.899359349192    -0.000025524606     1.007825032230
         H           -0.119841770351    -2.310287650808     0.000038475394     1.007825032230
         H           -1.632222770351     2.412014349192    -0.000081524606     1.007825032230
         H           -2.559930770351    -1.788552650808    -0.000022524606     1.007825032230
         H           -3.321176770351     0.588004349192    -0.000087524606     1.007825032230
         H            2.704466229649     0.982183349192     0.894557475394     1.007825032230
         H            2.704535229649     0.982166349192    -0.894430524606     1.007825032230
         H            3.730359229649    -0.172749650808     0.000113475394     1.007825032230

  Basis Set: AUG-CC-PVTZ
    Blend: AUG-CC-PVTZ
  Basis Set: (AUG-CC-PVTZ AUX)
    Blend: AUG-CC-PVTZ-JKFIT
	 Reference Energy          =    -344.7025565272797962 [Eh]
	 Singles Energy            =      -0.0000000000000000 [Eh]
	 Same-Spin Energy          =      -0.3659483255108688 [Eh]
	 Opposite-Spin Energy      =      -1.1605505637711990 [Eh]
	 Correlation Energy        =      -1.5264988892820677 [Eh]
	 Total Energy              =    -346.2290554165618914 [Eh]

	 ================> DF-SCS-MP2 Energies <==================
	-----------------------------------------------------------
	 SCS Same-Spin Scale       =       0.3333333333333333 [-]
	 SCS Opposite-Spin Scale   =       1.2000000000000000 [-]
	 SCS Same-Spin Energy      =      -0.1219827751702896 [Eh]
	 SCS Opposite-Spin Energy  =      -1.3926606765254388 [Eh]
	 SCS Correlation Energy    =      -1.5146434516957283 [Eh]
	 SCS Total Energy          =    -346.2171999789755432 [Eh]
	-----------------------------------------------------------

  Dipole Moment: [D]
     X:     0.7498      Y:     1.0778      Z:     0.0000     Total:     1.3129

*** Psi4 exiting successfully. Buy a developer a beer!
