                               Psi4 1.4a3.dev225

  ==> Input File <==

--------------------------------------------------------------------------
#psi4
#
memory 32 gb

molecule  {
0 1
  O        1.7630510    -0.6850120     0.0000440
  C        0.5022870    -0.2864028     0.0000112
  C        0.0381650     1.0640730    -0.0000210
  C       -0.4939010    -1.3032470     0.0000130
  C       -1.3314850     1.3526110    -0.0000590
  C       -1.8510560    -1.0002410    -0.0000260
  C       -2.2793230     0.3319890    -0.0000570
  C        2.7576030     0.3338520     0.0000720
  H        0.7532890     1.8795730    -0.0000260
  H       -0.1386390    -2.3300740     0.0000380
  H       -1.6510200     2.3922280    -0.0000820
  H       -2.5787280    -1.8083390    -0.0000230
  H       -3.3399740     0.5682180    -0.0000880
  H        2.6856690     0.9623970     0.8945570
  H        2.6857380     0.9623800    -0.8944310
  H        3.7115620    -0.1925360     0.0001130
units angstrom
no_reorient  #important for SAPT in psi4, default
symmetry c1  #important for SAPT in psi4, default
}

set PROPERTIES_ORIGIN ["COM"]
properties('MP2/aug-cc-pvtz', properties = ['dipole'])
--------------------------------------------------------------------------

    Molecular point group: c1
  Charge       = 0
  Multiplicity = 1
  Basis Set: AUG-CC-PVTZ
    Blend: AUG-CC-PVTZ
  Basis Set: (AUG-CC-PVTZ AUX)
    Blend: AUG-CC-PVTZ-JKFIT

    Orbital Energies [Eh]
    ---------------------

    Doubly Occupied:

       1A    -20.594631     2A    -11.305859     3A    -11.290537
       4A    -11.239288     5A    -11.237718     6A    -11.232509
       7A    -11.226419     8A    -11.223904     9A     -1.430906
      10A     -1.137646    11A     -1.019907    12A     -1.008305
      13A     -0.946106    14A     -0.827691    15A     -0.806114
      16A     -0.722885    17A     -0.668152    18A     -0.664347
      19A     -0.664183    20A     -0.616533    21A     -0.581989
      22A     -0.575372    23A     -0.530399    24A     -0.529191
      25A     -0.514573    26A     -0.474637    27A     -0.469220
      28A     -0.337231    29A     -0.304385

  @DF-RHF Final Energy:  -344.70085305559866

   => Energetics <=

    Nuclear Repulsion Energy =            345.2332934052300857
    One-Electron Energy =               -1151.5070140316136076
    Two-Electron Energy =                 461.5728675707848083
    Total Energy =                       -344.7008530555986567
  Basis Set: (AUG-CC-PVTZ AUX)
    Blend: AUG-CC-PVTZ-RI
    Molecular point group: c1

    Geometry (in Angstrom), charge = 0, multiplicity = 1:

       Center              X                  Y                   Z               Mass
    ------------   -----------------  -----------------  -----------------  -----------------
         O            1.777377832560    -0.661022866758     0.000044364342    15.994914619570
         C            0.516613832560    -0.262413666758     0.000011564342    12.000000000000
         C            0.052491832560     1.088062133242    -0.000020635658    12.000000000000
         C           -0.479574167440    -1.279257866758     0.000013364342    12.000000000000
         C           -1.317158167440     1.376600133242    -0.000058635658    12.000000000000
         C           -1.836729167440    -0.976251866758    -0.000025635658    12.000000000000
         C           -2.264996167440     0.355978133242    -0.000056635658    12.000000000000
         C            2.771929832560     0.357841133242     0.000072364342    12.000000000000
         H            0.767615832560     1.903562133242    -0.000025635658     1.007825032230
         H           -0.124312167440    -2.306084866758     0.000038364342     1.007825032230
         H           -1.636693167440     2.416217133242    -0.000081635658     1.007825032230
         H           -2.564401167440    -1.784349866758    -0.000022635658     1.007825032230
         H           -3.325647167440     0.592207133242    -0.000087635658     1.007825032230
         H            2.699995832560     0.986386133242     0.894557364342     1.007825032230
         H            2.700064832560     0.986369133242    -0.894430635658     1.007825032230
         H            3.725888832560    -0.168546866758     0.000113364342     1.007825032230

  Basis Set: AUG-CC-PVTZ
    Blend: AUG-CC-PVTZ
  Basis Set: (AUG-CC-PVTZ AUX)
    Blend: AUG-CC-PVTZ-JKFIT
	 Reference Energy          =    -344.7008530555986567 [Eh]
	 Singles Energy            =      -0.0000000000000000 [Eh]
	 Same-Spin Energy          =      -0.3660767743695493 [Eh]
	 Opposite-Spin Energy      =      -1.1601906471135082 [Eh]
	 Correlation Energy        =      -1.5262674214830574 [Eh]
	 Total Energy              =    -346.2271204770817121 [Eh]

	 ================> DF-SCS-MP2 Energies <==================
	-----------------------------------------------------------
	 SCS Same-Spin Scale       =       0.3333333333333333 [-]
	 SCS Opposite-Spin Scale   =       1.2000000000000000 [-]
	 SCS Same-Spin Energy      =      -0.1220255914565164 [Eh]
	 SCS Opposite-Spin Energy  =      -1.3922287765362098 [Eh]
	 SCS Correlation Energy    =      -1.5142543679927263 [Eh]
	 SCS Total Energy          =    -346.2151074235914052 [Eh]
	-----------------------------------------------------------

  Dipole Moment: [D]
     X:     1.1372      Y:     1.0293      Z:     0.0000     Total:     1.5338

*** Psi4 exiting successfully. Buy a developer a beer!
