                               Psi4 1.3.2 release

  ==> Input File <==

--------------------------------------------------------------------------
#psi4
#
memory 32 gb

molecule  {
0 1
  O        1.7630510    -0.6850120     0.0000440
  C        0.4866573    -0.1810657     0.0000110
  C        0.0381650     1.0640730    -0.0000210
  C       -0.4939010    -1.3032470     0.0000130
  C       -1.3314850     1.3526110    -0.0000590
  C       -1.8510560    -1.0002410    -0.0000260
  C       -2.2793230     0.3319890    -0.0000570
  C        2.7576030     0.3338520     0.0000720
  H        0.7532890     1.8795730    -0.0000260
  H       -0.1386390    -2.3300740     0.0000380
  H       -1.6510200     2.3922280    -0.0000820
  H       -2.5787280    -1.8083390    -0.0000230
  H       -3.3399740     0.5682180    -0.0000880
  H        2.6856690     0.9623970     0.8945570
  H        2.6857380     0.9623800    -0.8944310
  H        3.7115620    -0.1925360     0.0001130
units angstrom
no_reorient  #important for SAPT in psi4, default
symmetry c1  #important for SAPT in psi4, default
}

set PROPERTIES_ORIGIN ["COM"]
properties('MP2/aug-cc-pvtz', properties = ['dipole'])
--------------------------------------------------------------------------

    Molecular point group: c1
  Charge       = 0
  Multiplicity = 1
  Basis Set: AUG-CC-PVTZ
    Blend: AUG-CC-PVTZ
  Basis Set: (AUG-CC-PVTZ AUX)
    Blend: AUG-CC-PVTZ-JKFIT

    Orbital Energies [Eh]
    ---------------------

    Doubly Occupied:

       1A    -20.590055     2A    -11.299853     3A    -11.283734
       4A    -11.241117     5A    -11.237251     6A    -11.235793
       7A    -11.228158     8A    -11.224362     9A     -1.409521
      10A     -1.144898    11A     -1.024409    12A     -1.008293
      13A     -0.940792    14A     -0.835030    15A     -0.799757
      16A     -0.719820    17A     -0.666146    18A     -0.658897
      19A     -0.655789    20A     -0.621316    21A     -0.581546
      22A     -0.571087    23A     -0.527388    24A     -0.524673
      25A     -0.511583    26A     -0.479565    27A     -0.468306
      28A     -0.346377    29A     -0.308771

  @DF-RHF Final Energy:  -344.69113554320631

   => Energetics <=

    Nuclear Repulsion Energy =            345.3773774329585535
    One-Electron Energy =               -1151.8484489573631890
    Two-Electron Energy =                 461.7799359811982640
    Total Energy =                       -344.6911355432063147
  Basis Set: (AUG-CC-PVTZ AUX)
    Blend: AUG-CC-PVTZ-RI
    Molecular point group: c1

    Geometry (in Angstrom), charge = 0, multiplicity = 1:

       Center              X                  Y                   Z               Mass
    ------------   -----------------  -----------------  -----------------  -----------------
         O            1.779113541549    -0.672720759324     0.000044386553    15.994914619570
         C            0.502719841549    -0.168774459324     0.000011386553    12.000000000000
         C            0.054227541549     1.076364240676    -0.000020613447    12.000000000000
         C           -0.477838458451    -1.290955759324     0.000013386553    12.000000000000
         C           -1.315422458451     1.364902240676    -0.000058613447    12.000000000000
         C           -1.834993458451    -0.987949759324    -0.000025613447    12.000000000000
         C           -2.263260458451     0.344280240676    -0.000056613447    12.000000000000
         C            2.773665541549     0.346143240676     0.000072386553    12.000000000000
         H            0.769351541549     1.891864240676    -0.000025613447     1.007825032230
         H           -0.122576458451    -2.317782759324     0.000038386553     1.007825032230
         H           -1.634957458451     2.404519240676    -0.000081613447     1.007825032230
         H           -2.562665458451    -1.796047759324    -0.000022613447     1.007825032230
         H           -3.323911458451     0.580509240676    -0.000087613447     1.007825032230
         H            2.701731541549     0.974688240676     0.894557386553     1.007825032230
         H            2.701800541549     0.974671240676    -0.894430613447     1.007825032230
         H            3.727624541549    -0.180244759324     0.000113386553     1.007825032230

  Basis Set: AUG-CC-PVTZ
    Blend: AUG-CC-PVTZ
  Basis Set: (AUG-CC-PVTZ AUX)
    Blend: AUG-CC-PVTZ-JKFIT
	 Reference Energy          =    -344.6911355432063147 [Eh]
	 Singles Energy            =      -0.0000000000000000 [Eh]
	 Same-Spin Energy          =      -0.3656958523849725 [Eh]
	 Opposite-Spin Energy      =      -1.1614547819258694 [Eh]
	 Correlation Energy        =      -1.5271506343108419 [Eh]
	 Total Energy              =    -346.2182861775171432 [Eh]

	 ================> DF-SCS-MP2 Energies <==================
	-----------------------------------------------------------
	 SCS Same-Spin Scale       =       0.3333333333333333 [-]
	 SCS Opposite-Spin Scale   =       1.2000000000000000 [-]
	 SCS Same-Spin Energy      =      -0.1218986174616575 [Eh]
	 SCS Opposite-Spin Energy  =      -1.3937457383110432 [Eh]
	 SCS Correlation Energy    =      -1.5156443557727006 [Eh]
	 SCS Total Energy          =    -346.2067798989789935 [Eh]
	-----------------------------------------------------------

  Dipole Moment: [D]
     X:     0.7712      Y:     1.0876      Z:     0.0000     Total:     1.3333

*** Psi4 exiting successfully. Buy a developer a beer!
