                               Psi4 1.3.2 release

  ==> Input File <==

--------------------------------------------------------------------------
#psi4
#
memory 32 gb

molecule  {
0 1
  O        1.7630510    -0.6850120     0.0000440
  C        0.4289433    -0.3636097     0.0000092
  C        0.0381650     1.0640730    -0.0000210
  C       -0.4939010    -1.3032470     0.0000130
  C       -1.3314850     1.3526110    -0.0000590
  C       -1.8510560    -1.0002410    -0.0000260
  C       -2.2793230     0.3319890    -0.0000570
  C        2.7576030     0.3338520     0.0000720
  H        0.7532890     1.8795730    -0.0000260
  H       -0.1386390    -2.3300740     0.0000380
  H       -1.6510200     2.3922280    -0.0000820
  H       -2.5787280    -1.8083390    -0.0000230
  H       -3.3399740     0.5682180    -0.0000880
  H        2.6856690     0.9623970     0.8945570
  H        2.6857380     0.9623800    -0.8944310
  H        3.7115620    -0.1925360     0.0001130
units angstrom
no_reorient  #important for SAPT in psi4, default
symmetry c1  #important for SAPT in psi4, default
}

set PROPERTIES_ORIGIN ["COM"]
properties('MP2/aug-cc-pvtz', properties = ['dipole'])
--------------------------------------------------------------------------

    Molecular point group: c1
  Charge       = 0
  Multiplicity = 1
  Basis Set: AUG-CC-PVTZ
    Blend: AUG-CC-PVTZ
  Basis Set: (AUG-CC-PVTZ AUX)
    Blend: AUG-CC-PVTZ-JKFIT

    Orbital Energies [Eh]
    ---------------------

    Doubly Occupied:

       1A    -20.580802     2A    -11.300247     3A    -11.286191
       4A    -11.241622     5A    -11.241007     6A    -11.239802
       7A    -11.227466     8A    -11.217351     9A     -1.400869
      10A     -1.147291    11A     -1.032813    12A     -1.003003
      13A     -0.939782    14A     -0.833117    15A     -0.805535
      16A     -0.718442    17A     -0.667078    18A     -0.654519
      19A     -0.651132    20A     -0.616138    21A     -0.592998
      22A     -0.576169    23A     -0.527078    24A     -0.523057
      25A     -0.516832    26A     -0.471067    27A     -0.466625
      28A     -0.342359    29A     -0.311435

  @DF-RHF Final Energy:  -344.69240030158863

   => Energetics <=

    Nuclear Repulsion Energy =            345.2110562982035162
    One-Electron Energy =               -1151.5432613533766926
    Two-Electron Energy =                 461.6398047535845421
    Total Energy =                       -344.6924003015886342
  Basis Set: (AUG-CC-PVTZ AUX)
    Blend: AUG-CC-PVTZ-RI
    Molecular point group: c1

    Geometry (in Angstrom), charge = 0, multiplicity = 1:

       Center              X                  Y                   Z               Mass
    ------------   -----------------  -----------------  -----------------  -----------------
         O            1.785522794999    -0.652448888345     0.000044586446    15.994914619570
         C            0.451415094999    -0.331046588345     0.000009786446    12.000000000000
         C            0.060636794999     1.096636111655    -0.000020413554    12.000000000000
         C           -0.471429205001    -1.270683888345     0.000013586446    12.000000000000
         C           -1.309013205001     1.385174111655    -0.000058413554    12.000000000000
         C           -1.828584205001    -0.967677888345    -0.000025413554    12.000000000000
         C           -2.256851205001     0.364552111655    -0.000056413554    12.000000000000
         C            2.780074794999     0.366415111655     0.000072586446    12.000000000000
         H            0.775760794999     1.912136111655    -0.000025413554     1.007825032230
         H           -0.116167205001    -2.297510888345     0.000038586446     1.007825032230
         H           -1.628548205001     2.424791111655    -0.000081413554     1.007825032230
         H           -2.556256205001    -1.775775888345    -0.000022413554     1.007825032230
         H           -3.317502205001     0.600781111655    -0.000087413554     1.007825032230
         H            2.708140794999     0.994960111655     0.894557586446     1.007825032230
         H            2.708209794999     0.994943111655    -0.894430413554     1.007825032230
         H            3.734033794999    -0.159972888345     0.000113586446     1.007825032230

  Basis Set: AUG-CC-PVTZ
    Blend: AUG-CC-PVTZ
  Basis Set: (AUG-CC-PVTZ AUX)
    Blend: AUG-CC-PVTZ-JKFIT
	 Reference Energy          =    -344.6924003015886342 [Eh]
	 Singles Energy            =      -0.0000000000000000 [Eh]
	 Same-Spin Energy          =      -0.3656632288383970 [Eh]
	 Opposite-Spin Energy      =      -1.1601923619744974 [Eh]
	 Correlation Energy        =      -1.5258555908128943 [Eh]
	 Total Energy              =    -346.2182558924015439 [Eh]

	 ================> DF-SCS-MP2 Energies <==================
	-----------------------------------------------------------
	 SCS Same-Spin Scale       =       0.3333333333333333 [-]
	 SCS Opposite-Spin Scale   =       1.2000000000000000 [-]
	 SCS Same-Spin Energy      =      -0.1218877429461323 [Eh]
	 SCS Opposite-Spin Energy  =      -1.3922308343693968 [Eh]
	 SCS Correlation Energy    =      -1.5141185773155290 [Eh]
	 SCS Total Energy          =    -346.2065188789041486 [Eh]
	-----------------------------------------------------------

  Dipole Moment: [D]
     X:     0.7119      Y:     1.0676      Z:     0.0000     Total:     1.2832

*** Psi4 exiting successfully. Buy a developer a beer!
