                               Psi4 1.4a3.dev225

  ==> Input File <==

--------------------------------------------------------------------------
#psi4
#
memory 32 gb

molecule  {
0 1
  N       -1.3248030    -1.1740260    -0.2505360
  C        0.8182300    -0.4554710     0.5470430
  C       -0.5904330    -0.1723070     0.0896190
  C        1.8790820     0.1519800    -0.3759300
  C       -1.0163770     1.2764630     0.0491600
  H        0.9506150    -0.0630590     1.5639460
  H        0.9302930    -1.5419040     0.5914080
  H        2.8813100    -0.1399000    -0.0505570
  H        1.8374890     1.2445300    -0.3804150
  H        1.7406910    -0.2009300    -1.4019490
  H       -0.7901170     1.7727720     0.9986380
  H       -0.4789730     1.8177080    -0.7361320
  H       -2.0886730     1.3644810    -0.1460260
  H       -2.2339956    -0.8460132    -0.5388039
units angstrom
no_reorient  #important for SAPT in psi4, default
symmetry c1  #important for SAPT in psi4, default
}

set PROPERTIES_ORIGIN ["COM"]
properties('MP2/aug-cc-pvtz', properties = ['dipole'])
--------------------------------------------------------------------------

    Molecular point group: c1
  Charge       = 0
  Multiplicity = 1
  Basis Set: AUG-CC-PVTZ
    Blend: AUG-CC-PVTZ
  Basis Set: (AUG-CC-PVTZ AUX)
    Blend: AUG-CC-PVTZ-JKFIT

    Orbital Energies [Eh]
    ---------------------

    Doubly Occupied:

       1A    -15.538732     2A    -11.284814     3A    -11.236309
       4A    -11.226985     5A    -11.223240     6A     -1.205840
       7A     -1.044751     8A     -0.981934     9A     -0.876930
      10A     -0.734113    11A     -0.655147    12A     -0.617636
      13A     -0.604591    14A     -0.583471    15A     -0.554077
      16A     -0.522637    17A     -0.500708    18A     -0.489494
      19A     -0.412110    20A     -0.408665

  @DF-RHF Final Energy:  -211.22826902056693

   => Energetics <=

    Nuclear Repulsion Energy =            176.7381971179510742
    One-Electron Energy =                -634.5285636968673089
    Two-Electron Energy =                 246.5620975583493077
    Total Energy =                       -211.2282690205669269
  Basis Set: (AUG-CC-PVTZ AUX)
    Blend: AUG-CC-PVTZ-RI
    Molecular point group: c1

    Geometry (in Angstrom), charge = 0, multiplicity = 1:

       Center              X                  Y                   Z               Mass
    ------------   -----------------  -----------------  -----------------  -----------------
         N           -1.286882496786    -1.126221361823    -0.252080278849    14.003074004430
         C            0.856150503214    -0.407666361823     0.545498721151    12.000000000000
         C           -0.552512496786    -0.124502361823     0.088074721151    12.000000000000
         C            1.917002503214     0.199784638177    -0.377474278849    12.000000000000
         C           -0.978456496786     1.324267638177     0.047615721151    12.000000000000
         H            0.988535503214    -0.015254361823     1.562401721151     1.007825032230
         H            0.968213503214    -1.494099361823     0.589863721151     1.007825032230
         H            2.919230503214    -0.092095361823    -0.052101278849     1.007825032230
         H            1.875409503214     1.292334638177    -0.381959278849     1.007825032230
         H            1.778611503214    -0.153125361823    -1.403493278849     1.007825032230
         H           -0.752196496786     1.820576638177     0.997093721151     1.007825032230
         H           -0.441052496786     1.865512638177    -0.737676278849     1.007825032230
         H           -2.050752496786     1.412285638177    -0.147570278849     1.007825032230
         H           -2.196075096786    -0.798208561823    -0.540348178849     1.007825032230

  Basis Set: AUG-CC-PVTZ
    Blend: AUG-CC-PVTZ
  Basis Set: (AUG-CC-PVTZ AUX)
    Blend: AUG-CC-PVTZ-JKFIT
	 Reference Energy          =    -211.2282690205669269 [Eh]
	 Singles Energy            =      -0.0000000000000000 [Eh]
	 Same-Spin Energy          =      -0.2203724729330132 [Eh]
	 Opposite-Spin Energy      =      -0.7816926763984545 [Eh]
	 Correlation Energy        =      -1.0020651493314676 [Eh]
	 Total Energy              =    -212.2303341698983843 [Eh]

	 ================> DF-SCS-MP2 Energies <==================
	-----------------------------------------------------------
	 SCS Same-Spin Scale       =       0.3333333333333333 [-]
	 SCS Opposite-Spin Scale   =       1.2000000000000000 [-]
	 SCS Same-Spin Energy      =      -0.0734574909776711 [Eh]
	 SCS Opposite-Spin Energy  =      -0.9380312116781454 [Eh]
	 SCS Correlation Energy    =      -1.0114887026558164 [Eh]
	 SCS Total Energy          =    -212.2397577232227377 [Eh]
	-----------------------------------------------------------

  Dipole Moment: [D]
     X:     0.3403      Y:     2.3893      Z:     0.2333     Total:     2.4247

*** Psi4 exiting successfully. Buy a developer a beer!
