                               Psi4 1.4a3.dev225

  ==> Input File <==

--------------------------------------------------------------------------
#psi4
#
memory 32 gb

molecule  {
0 1
  N       -1.3248030    -1.1740260    -0.2505360
  C        0.8182300    -0.4554710     0.5470430
  C       -0.6075238    -0.1264032     0.1827760
  C        1.8790820     0.1519800    -0.3759300
  C       -1.0163770     1.2764630     0.0491600
  H        0.9506150    -0.0630590     1.5639460
  H        0.9302930    -1.5419040     0.5914080
  H        2.8813100    -0.1399000    -0.0505570
  H        1.8374890     1.2445300    -0.3804150
  H        1.7406910    -0.2009300    -1.4019490
  H       -0.7901170     1.7727720     0.9986380
  H       -0.4789730     1.8177080    -0.7361320
  H       -2.0886730     1.3644810    -0.1460260
  H       -2.2520240    -0.8395090    -0.5445200
units angstrom
no_reorient  #important for SAPT in psi4, default
symmetry c1  #important for SAPT in psi4, default
}

set PROPERTIES_ORIGIN ["COM"]
properties('MP2/aug-cc-pvtz', properties = ['dipole'])
--------------------------------------------------------------------------

    Molecular point group: c1
  Charge       = 0
  Multiplicity = 1
  Basis Set: AUG-CC-PVTZ
    Blend: AUG-CC-PVTZ
  Basis Set: (AUG-CC-PVTZ AUX)
    Blend: AUG-CC-PVTZ-JKFIT

    Orbital Energies [Eh]
    ---------------------

    Doubly Occupied:

       1A    -15.545456     2A    -11.290550     3A    -11.237448
       4A    -11.228982     5A    -11.224808     6A     -1.187060
       7A     -1.042246     8A     -0.991328     9A     -0.878590
      10A     -0.730486    11A     -0.652642    12A     -0.621545
      13A     -0.601966    14A     -0.585931    15A     -0.556976
      16A     -0.522351    17A     -0.494992    18A     -0.490367
      19A     -0.418513    20A     -0.391878

  @DF-RHF Final Energy:  -211.21511143855807

   => Energetics <=

    Nuclear Repulsion Energy =            176.2703058225848736
    One-Electron Energy =                -633.5826018849581942
    Two-Electron Energy =                 246.0971846238152523
    Total Energy =                       -211.2151114385580684
  Basis Set: (AUG-CC-PVTZ AUX)
    Blend: AUG-CC-PVTZ-RI
    Molecular point group: c1

    Geometry (in Angstrom), charge = 0, multiplicity = 1:

       Center              X                  Y                   Z               Mass
    ------------   -----------------  -----------------  -----------------  -----------------
         N           -1.283741254621    -1.134063957180    -0.267727787166    14.003074004430
         C            0.859291745379    -0.415508957180     0.529851212834    12.000000000000
         C           -0.566462054621    -0.086441157180     0.165584212834    12.000000000000
         C            1.920143745379     0.191942042820    -0.393121787166    12.000000000000
         C           -0.975315254621     1.316425042820     0.031968212834    12.000000000000
         H            0.991676745379    -0.023096957180     1.546754212834     1.007825032230
         H            0.971354745379    -1.501941957180     0.574216212834     1.007825032230
         H            2.922371745379    -0.099937957180    -0.067748787166     1.007825032230
         H            1.878550745379     1.284492042820    -0.397606787166     1.007825032230
         H            1.781752745379    -0.160967957180    -1.419140787166     1.007825032230
         H           -0.749055254621     1.812734042820     0.981446212834     1.007825032230
         H           -0.437911254621     1.857670042820    -0.753323787166     1.007825032230
         H           -2.047611254621     1.404443042820    -0.163217787166     1.007825032230
         H           -2.210962254621    -0.799546957180    -0.561711787166     1.007825032230

  Basis Set: AUG-CC-PVTZ
    Blend: AUG-CC-PVTZ
  Basis Set: (AUG-CC-PVTZ AUX)
    Blend: AUG-CC-PVTZ-JKFIT
	 Reference Energy          =    -211.2151114385580684 [Eh]
	 Singles Energy            =      -0.0000000000000000 [Eh]
	 Same-Spin Energy          =      -0.2220190989433862 [Eh]
	 Opposite-Spin Energy      =      -0.7853832941868002 [Eh]
	 Correlation Energy        =      -1.0074023931301863 [Eh]
	 Total Energy              =    -212.2225138316882465 [Eh]

	 ================> DF-SCS-MP2 Energies <==================
	-----------------------------------------------------------
	 SCS Same-Spin Scale       =       0.3333333333333333 [-]
	 SCS Opposite-Spin Scale   =       1.2000000000000000 [-]
	 SCS Same-Spin Energy      =      -0.0740063663144621 [Eh]
	 SCS Opposite-Spin Energy  =      -0.9424599530241602 [Eh]
	 SCS Correlation Energy    =      -1.0164663193386223 [Eh]
	 SCS Total Energy          =    -212.2315777578967015 [Eh]
	-----------------------------------------------------------

  Dipole Moment: [D]
     X:     0.3888      Y:     2.5017      Z:     0.2047     Total:     2.5400

*** Psi4 exiting successfully. Buy a developer a beer!
