                               Psi4 1.4a3.dev225

  ==> Input File <==

--------------------------------------------------------------------------
#psi4
#
memory 32 gb

molecule  {
0 1
  N       -1.3248030    -1.1740260    -0.2505360
  C        0.8182300    -0.4554710     0.5470430
  C       -0.6189454    -0.2111994     0.0764122
  C        1.8790820     0.1519800    -0.3759300
  C       -1.0163770     1.2764630     0.0491600
  H        0.9506150    -0.0630590     1.5639460
  H        0.9302930    -1.5419040     0.5914080
  H        2.8813100    -0.1399000    -0.0505570
  H        1.8374890     1.2445300    -0.3804150
  H        1.7406910    -0.2009300    -1.4019490
  H       -0.7901170     1.7727720     0.9986380
  H       -0.4789730     1.8177080    -0.7361320
  H       -2.0886730     1.3644810    -0.1460260
  H       -2.2520240    -0.8395090    -0.5445200
units angstrom
no_reorient  #important for SAPT in psi4, default
symmetry c1  #important for SAPT in psi4, default
}

set PROPERTIES_ORIGIN ["COM"]
properties('MP2/aug-cc-pvtz', properties = ['dipole'])
--------------------------------------------------------------------------

    Molecular point group: c1
  Charge       = 0
  Multiplicity = 1
  Basis Set: AUG-CC-PVTZ
    Blend: AUG-CC-PVTZ
  Basis Set: (AUG-CC-PVTZ AUX)
    Blend: AUG-CC-PVTZ-JKFIT

    Orbital Energies [Eh]
    ---------------------

    Doubly Occupied:

       1A    -15.538472     2A    -11.279765     3A    -11.235004
       4A    -11.225740     5A    -11.222030     6A     -1.224284
       7A     -1.041557     8A     -0.975504     9A     -0.872439
      10A     -0.731891    11A     -0.653719    12A     -0.615558
      13A     -0.605076    14A     -0.581874    15A     -0.550054
      16A     -0.523419    17A     -0.503517    18A     -0.486232
      19A     -0.426076    20A     -0.403088

  @DF-RHF Final Energy:  -211.22753477409748

   => Energetics <=

    Nuclear Repulsion Energy =            176.7429192767063739
    One-Electron Energy =                -634.5503094165235325
    Two-Electron Energy =                 246.5798553657196521
    Total Energy =                       -211.2275347740974780
  Basis Set: (AUG-CC-PVTZ AUX)
    Blend: AUG-CC-PVTZ-RI
    Molecular point group: c1

    Geometry (in Angstrom), charge = 0, multiplicity = 1:

       Center              X                  Y                   Z               Mass
    ------------   -----------------  -----------------  -----------------  -----------------
         N           -1.281812839651    -1.119747025974    -0.249769397434    14.003074004430
         C            0.861220160349    -0.401192025974     0.547809602566    12.000000000000
         C           -0.575955239651    -0.156920425974     0.077178802566    12.000000000000
         C            1.922072160349     0.206258974026    -0.375163397434    12.000000000000
         C           -0.973386839651     1.330741974026     0.049926602566    12.000000000000
         H            0.993605160349    -0.008780025974     1.564712602566     1.007825032230
         H            0.973283160349    -1.487625025974     0.592174602566     1.007825032230
         H            2.924300160349    -0.085621025974    -0.049790397434     1.007825032230
         H            1.880479160349     1.298808974026    -0.379648397434     1.007825032230
         H            1.783681160349    -0.146651025974    -1.401182397434     1.007825032230
         H           -0.747126839651     1.827050974026     0.999404602566     1.007825032230
         H           -0.435982839651     1.871986974026    -0.735365397434     1.007825032230
         H           -2.045682839651     1.418759974026    -0.145259397434     1.007825032230
         H           -2.209033839651    -0.785230025974    -0.543753397434     1.007825032230

  Basis Set: AUG-CC-PVTZ
    Blend: AUG-CC-PVTZ
  Basis Set: (AUG-CC-PVTZ AUX)
    Blend: AUG-CC-PVTZ-JKFIT
	 Reference Energy          =    -211.2275347740974780 [Eh]
	 Singles Energy            =      -0.0000000000000000 [Eh]
	 Same-Spin Energy          =      -0.2194903727038810 [Eh]
	 Opposite-Spin Energy      =      -0.7799199241162378 [Eh]
	 Correlation Energy        =      -0.9994102968201188 [Eh]
	 Total Energy              =    -212.2269450709175942 [Eh]

	 ================> DF-SCS-MP2 Energies <==================
	-----------------------------------------------------------
	 SCS Same-Spin Scale       =       0.3333333333333333 [-]
	 SCS Opposite-Spin Scale   =       1.2000000000000000 [-]
	 SCS Same-Spin Energy      =      -0.0731634575679603 [Eh]
	 SCS Opposite-Spin Energy  =      -0.9359039089394853 [Eh]
	 SCS Correlation Energy    =      -1.0090673665074457 [Eh]
	 SCS Total Energy          =    -212.2366021406049299 [Eh]
	-----------------------------------------------------------

  Dipole Moment: [D]
     X:     0.2509      Y:     2.2658      Z:     0.1975     Total:     2.2882

*** Psi4 exiting successfully. Buy a developer a beer!
