                               Psi4 1.4a3.dev225

  ==> Input File <==

--------------------------------------------------------------------------
#psi4
#
memory 32 gb

molecule  {
0 1
  N       -1.3248030    -1.1740260    -0.2505360
  C        0.8182300    -0.4554710     0.5470430
  C       -0.5904330    -0.1723070     0.0896190
  C        1.8790820     0.1519800    -0.3759300
  C       -1.0163770     1.2764630     0.0491600
  H        0.9506150    -0.0630590     1.5639460
  H        0.9507967    -1.7406845     0.5995253
  H        2.8813100    -0.1399000    -0.0505570
  H        1.8374890     1.2445300    -0.3804150
  H        1.7406910    -0.2009300    -1.4019490
  H       -0.7901170     1.7727720     0.9986380
  H       -0.4789730     1.8177080    -0.7361320
  H       -2.0886730     1.3644810    -0.1460260
  H       -2.2520240    -0.8395090    -0.5445200
units angstrom
no_reorient  #important for SAPT in psi4, default
symmetry c1  #important for SAPT in psi4, default
}

set PROPERTIES_ORIGIN ["COM"]
properties('MP2/aug-cc-pvtz', properties = ['dipole'])
--------------------------------------------------------------------------

    Molecular point group: c1
  Charge       = 0
  Multiplicity = 1
  Basis Set: AUG-CC-PVTZ
    Blend: AUG-CC-PVTZ
  Basis Set: (AUG-CC-PVTZ AUX)
    Blend: AUG-CC-PVTZ-JKFIT

    Orbital Energies [Eh]
    ---------------------

    Doubly Occupied:

       1A    -15.541763     2A    -11.286418     3A    -11.248705
       4A    -11.238216     5A    -11.225122     6A     -1.204058
       7A     -1.040760     8A     -0.981734     9A     -0.871456
      10A     -0.725974    11A     -0.645382    12A     -0.618596
      13A     -0.601758    14A     -0.583938    15A     -0.554642
      16A     -0.523084    17A     -0.502260    18A     -0.460528
      19A     -0.412517    20A     -0.409050

  @DF-RHF Final Energy:  -211.20708631832483

   => Energetics <=

    Nuclear Repulsion Energy =            175.8413649749409728
    One-Electron Energy =                -632.7449805988264870
    Two-Electron Energy =                 245.6965293055606878
    Total Energy =                       -211.2070863183248264
  Basis Set: (AUG-CC-PVTZ AUX)
    Blend: AUG-CC-PVTZ-RI
    Molecular point group: c1

    Geometry (in Angstrom), charge = 0, multiplicity = 1:

       Center              X                  Y                   Z               Mass
    ------------   -----------------  -----------------  -----------------  -----------------
         N           -1.286917596638    -1.123494876281    -0.252114327960    14.003074004430
         C            0.856115403362    -0.404939876281     0.545464672040    12.000000000000
         C           -0.552547596638    -0.121775876281     0.088040672040    12.000000000000
         C            1.916967403362     0.202511123719    -0.377508327960    12.000000000000
         C           -0.978491596638     1.326994123719     0.047581672040    12.000000000000
         H            0.988500403362    -0.012527876281     1.562367672040     1.007825032230
         H            0.988682103362    -1.690153376281     0.597946972040     1.007825032230
         H            2.919195403362    -0.089368876281    -0.052135327960     1.007825032230
         H            1.875374403362     1.295061123719    -0.381993327960     1.007825032230
         H            1.778576403362    -0.150398876281    -1.403527327960     1.007825032230
         H           -0.752231596638     1.823303123719     0.997059672040     1.007825032230
         H           -0.441087596638     1.868239123719    -0.737710327960     1.007825032230
         H           -2.050787596638     1.415012123719    -0.147604327960     1.007825032230
         H           -2.214138596638    -0.788977876281    -0.546098327960     1.007825032230

  Basis Set: AUG-CC-PVTZ
    Blend: AUG-CC-PVTZ
  Basis Set: (AUG-CC-PVTZ AUX)
    Blend: AUG-CC-PVTZ-JKFIT
	 Reference Energy          =    -211.2070863183248264 [Eh]
	 Singles Energy            =      -0.0000000000000000 [Eh]
	 Same-Spin Energy          =      -0.2207810868584616 [Eh]
	 Opposite-Spin Energy      =      -0.7840853810938850 [Eh]
	 Correlation Energy        =      -1.0048664679523467 [Eh]
	 Total Energy              =    -212.2119527862771804 [Eh]

	 ================> DF-SCS-MP2 Energies <==================
	-----------------------------------------------------------
	 SCS Same-Spin Scale       =       0.3333333333333333 [-]
	 SCS Opposite-Spin Scale   =       1.2000000000000000 [-]
	 SCS Same-Spin Energy      =      -0.0735936956194872 [Eh]
	 SCS Opposite-Spin Energy  =      -0.9409024573126620 [Eh]
	 SCS Correlation Energy    =      -1.0144961529321492 [Eh]
	 SCS Total Energy          =    -212.2215824712569656 [Eh]
	-----------------------------------------------------------

  Dipole Moment: [D]
     X:     0.3045      Y:     2.4928      Z:     0.1930     Total:     2.5187

*** Psi4 exiting successfully. Buy a developer a beer!
