                               Psi4 1.4a3.dev225

  ==> Input File <==

--------------------------------------------------------------------------
#psi4
#
memory 32 gb

molecule  {
0 1
  N       -1.3248030    -1.1740260    -0.2505360
  C        0.8182300    -0.4554710     0.5470430
  C       -0.5793075    -0.1957905     0.0438482
  C        1.8790820     0.1519800    -0.3759300
  C       -1.0163770     1.2764630     0.0491600
  H        0.9506150    -0.0630590     1.5639460
  H        0.9302930    -1.5419040     0.5914080
  H        2.8813100    -0.1399000    -0.0505570
  H        1.8374890     1.2445300    -0.3804150
  H        1.7406910    -0.2009300    -1.4019490
  H       -0.7901170     1.7727720     0.9986380
  H       -0.4789730     1.8177080    -0.7361320
  H       -2.0886730     1.3644810    -0.1460260
  H       -2.2520240    -0.8395090    -0.5445200
units angstrom
no_reorient  #important for SAPT in psi4, default
symmetry c1  #important for SAPT in psi4, default
}

set PROPERTIES_ORIGIN ["COM"]
properties('MP2/aug-cc-pvtz', properties = ['dipole'])
--------------------------------------------------------------------------

    Molecular point group: c1
  Charge       = 0
  Multiplicity = 1
  Basis Set: AUG-CC-PVTZ
    Blend: AUG-CC-PVTZ
  Basis Set: (AUG-CC-PVTZ AUX)
    Blend: AUG-CC-PVTZ-JKFIT

    Orbital Energies [Eh]
    ---------------------

    Doubly Occupied:

       1A    -15.539844     2A    -11.282592     3A    -11.235481
       4A    -11.226625     5A    -11.222594     6A     -1.212631
       7A     -1.044655     8A     -0.976178     9A     -0.875358
      10A     -0.732894    11A     -0.653730    12A     -0.616549
      13A     -0.604355    14A     -0.581272    15A     -0.552291
      16A     -0.523000    17A     -0.504556    18A     -0.487543
      19A     -0.416359    20A     -0.406553

  @DF-RHF Final Energy:  -211.22783696405597

   => Energetics <=

    Nuclear Repulsion Energy =            176.7742427539047867
    One-Electron Energy =                -634.6140401008251501
    Two-Electron Energy =                 246.6119603828643960
    Total Energy =                       -211.2278369640559674
  Basis Set: (AUG-CC-PVTZ AUX)
    Blend: AUG-CC-PVTZ-RI
    Molecular point group: c1

    Geometry (in Angstrom), charge = 0, multiplicity = 1:

       Center              X                  Y                   Z               Mass
    ------------   -----------------  -----------------  -----------------  -----------------
         N           -1.288505275014    -1.122348653892    -0.244271314409    14.003074004430
         C            0.854527724986    -0.403793653892     0.553307685591    12.000000000000
         C           -0.543009775014    -0.144113153892     0.050112885591    12.000000000000
         C            1.915379724986     0.203657346108    -0.369665314409    12.000000000000
         C           -0.980079275014     1.328140346108     0.055424685591    12.000000000000
         H            0.986912724986    -0.011381653892     1.570210685591     1.007825032230
         H            0.966590724986    -1.490226653892     0.597672685591     1.007825032230
         H            2.917607724986    -0.088222653892    -0.044292314409     1.007825032230
         H            1.873786724986     1.296207346108    -0.374150314409     1.007825032230
         H            1.776988724986    -0.149252653892    -1.395684314409     1.007825032230
         H           -0.753819275014     1.824449346108     1.004902685591     1.007825032230
         H           -0.442675275014     1.869385346108    -0.729867314409     1.007825032230
         H           -2.052375275014     1.416158346108    -0.139761314409     1.007825032230
         H           -2.215726275014    -0.787831653892    -0.538255314409     1.007825032230

  Basis Set: AUG-CC-PVTZ
    Blend: AUG-CC-PVTZ
  Basis Set: (AUG-CC-PVTZ AUX)
    Blend: AUG-CC-PVTZ-JKFIT
	 Reference Energy          =    -211.2278369640559674 [Eh]
	 Singles Energy            =      -0.0000000000000000 [Eh]
	 Same-Spin Energy          =      -0.2200355415219005 [Eh]
	 Opposite-Spin Energy      =      -0.7811524853733854 [Eh]
	 Correlation Energy        =      -1.0011880268952860 [Eh]
	 Total Energy              =    -212.2290249909512454 [Eh]

	 ================> DF-SCS-MP2 Energies <==================
	-----------------------------------------------------------
	 SCS Same-Spin Scale       =       0.3333333333333333 [-]
	 SCS Opposite-Spin Scale   =       1.2000000000000000 [-]
	 SCS Same-Spin Energy      =      -0.0733451805073002 [Eh]
	 SCS Opposite-Spin Energy  =      -0.9373829824480625 [Eh]
	 SCS Correlation Energy    =      -1.0107281629553626 [Eh]
	 SCS Total Energy          =    -212.2385651270113271 [Eh]
	-----------------------------------------------------------

  Dipole Moment: [D]
     X:     0.3237      Y:     2.3053      Z:     0.2395     Total:     2.3402

*** Psi4 exiting successfully. Buy a developer a beer!
