                               Psi4 1.4a3.dev225

  ==> Input File <==

--------------------------------------------------------------------------
#psi4
#
memory 32 gb

molecule  {
0 1
  N       -1.3248030    -1.1740260    -0.2505360
  C        0.8182300    -0.4554710     0.5470430
  C       -0.5904330    -0.1723070     0.0896190
  C        1.8373810     0.2480528    -0.3544382
  C       -1.0163770     1.2764630     0.0491600
  H        0.9506150    -0.0630590     1.5639460
  H        0.9302930    -1.5419040     0.5914080
  H        2.8813100    -0.1399000    -0.0505570
  H        1.8374890     1.2445300    -0.3804150
  H        1.7406910    -0.2009300    -1.4019490
  H       -0.7901170     1.7727720     0.9986380
  H       -0.4789730     1.8177080    -0.7361320
  H       -2.0886730     1.3644810    -0.1460260
  H       -2.2520240    -0.8395090    -0.5445200
units angstrom
no_reorient  #important for SAPT in psi4, default
symmetry c1  #important for SAPT in psi4, default
}

set PROPERTIES_ORIGIN ["COM"]
properties('MP2/aug-cc-pvtz', properties = ['dipole'])
--------------------------------------------------------------------------

    Molecular point group: c1
  Charge       = 0
  Multiplicity = 1
  Basis Set: AUG-CC-PVTZ
    Blend: AUG-CC-PVTZ
  Basis Set: (AUG-CC-PVTZ AUX)
    Blend: AUG-CC-PVTZ-JKFIT

    Orbital Energies [Eh]
    ---------------------

    Doubly Occupied:

       1A    -15.540520     2A    -11.284086     3A    -11.236647
       4A    -11.228881     5A    -11.225347     6A     -1.203862
       7A     -1.046046     8A     -0.981280     9A     -0.878877
      10A     -0.732777    11A     -0.655325    12A     -0.617649
      13A     -0.611015    14A     -0.584631    15A     -0.549918
      16A     -0.528283    17A     -0.495786    18A     -0.484511
      19A     -0.410403    20A     -0.407286

  @DF-RHF Final Energy:  -211.21406500982377

   => Energetics <=

    Nuclear Repulsion Energy =            176.9398066547338715
    One-Electron Energy =                -634.9014805930650027
    Two-Electron Energy =                 246.7476089285073897
    Total Energy =                       -211.2140650098237700
  Basis Set: (AUG-CC-PVTZ AUX)
    Blend: AUG-CC-PVTZ-RI
    Molecular point group: c1

    Geometry (in Angstrom), charge = 0, multiplicity = 1:

       Center              X                  Y                   Z               Mass
    ------------   -----------------  -----------------  -----------------  -----------------
         N           -1.279586085635    -1.142534456114    -0.255627884832    14.003074004430
         C            0.863446914365    -0.423979456114     0.541951115168    12.000000000000
         C           -0.545216085635    -0.140815456114     0.084527115168    12.000000000000
         C            1.882597914365     0.279544343886    -0.359530084832    12.000000000000
         C           -0.971160085635     1.307954543886     0.044068115168    12.000000000000
         H            0.995831914365    -0.031567456114     1.558854115168     1.007825032230
         H            0.975509914365    -1.510412456114     0.586316115168     1.007825032230
         H            2.926526914365    -0.108408456114    -0.055648884832     1.007825032230
         H            1.882705914365     1.276021543886    -0.385506884832     1.007825032230
         H            1.785907914365    -0.169438456114    -1.407040884832     1.007825032230
         H           -0.744900085635     1.804263543886     0.993546115168     1.007825032230
         H           -0.433756085635     1.849199543886    -0.741223884832     1.007825032230
         H           -2.043456085635     1.395972543886    -0.151117884832     1.007825032230
         H           -2.206807085635    -0.808017456114    -0.549611884832     1.007825032230

  Basis Set: AUG-CC-PVTZ
    Blend: AUG-CC-PVTZ
  Basis Set: (AUG-CC-PVTZ AUX)
    Blend: AUG-CC-PVTZ-JKFIT
	 Reference Energy          =    -211.2140650098237700 [Eh]
	 Singles Energy            =      -0.0000000000000000 [Eh]
	 Same-Spin Energy          =      -0.2208200726917798 [Eh]
	 Opposite-Spin Energy      =      -0.7827876316037046 [Eh]
	 Correlation Energy        =      -1.0036077042954843 [Eh]
	 Total Energy              =    -212.2176727141192600 [Eh]

	 ================> DF-SCS-MP2 Energies <==================
	-----------------------------------------------------------
	 SCS Same-Spin Scale       =       0.3333333333333333 [-]
	 SCS Opposite-Spin Scale   =       1.2000000000000000 [-]
	 SCS Same-Spin Energy      =      -0.0736066908972599 [Eh]
	 SCS Opposite-Spin Energy  =      -0.9393451579244454 [Eh]
	 SCS Correlation Energy    =      -1.0129518488217053 [Eh]
	 SCS Total Energy          =    -212.2270168586454702 [Eh]
	-----------------------------------------------------------

  Dipole Moment: [D]
     X:     0.3385      Y:     2.4130      Z:     0.2592     Total:     2.4504

*** Psi4 exiting successfully. Buy a developer a beer!
