                               Psi4 1.4a3.dev225

  ==> Input File <==

--------------------------------------------------------------------------
#psi4
#
memory 32 gb

molecule  {
0 1
  N       -1.3248030    -1.1740260    -0.2505360
  C        0.8182300    -0.4554710     0.5470430
  C       -0.5904330    -0.1723070     0.0896190
  C        1.8790820     0.1519800    -0.3759300
  C       -1.0163770     1.2764630     0.0491600
  H        0.9506150    -0.0630590     1.5639460
  H        0.9302930    -1.5419040     0.5914080
  H        2.8813100    -0.1399000    -0.0505570
  H        1.8374890     1.2445300    -0.3804150
  H        1.7406910    -0.2009300    -1.4019490
  H       -0.7717024     1.7681372     0.9964802
  H       -0.4789730     1.8177080    -0.7361320
  H       -2.0886730     1.3644810    -0.1460260
  H       -2.2520240    -0.8395090    -0.5445200
units angstrom
no_reorient  #important for SAPT in psi4, default
symmetry c1  #important for SAPT in psi4, default
}

set PROPERTIES_ORIGIN ["COM"]
properties('MP2/aug-cc-pvtz', properties = ['dipole'])
--------------------------------------------------------------------------

    Molecular point group: c1
  Charge       = 0
  Multiplicity = 1
  Basis Set: AUG-CC-PVTZ
    Blend: AUG-CC-PVTZ
  Basis Set: (AUG-CC-PVTZ AUX)
    Blend: AUG-CC-PVTZ-JKFIT

    Orbital Energies [Eh]
    ---------------------

    Doubly Occupied:

       1A    -15.541077     2A    -11.284656     3A    -11.236295
       4A    -11.227243     5A    -11.223358     6A     -1.203997
       7A     -1.044123     8A     -0.981766     9A     -0.876319
      10A     -0.731458    11A     -0.653414    12A     -0.617615
      13A     -0.604499    14A     -0.583063    15A     -0.554377
      16A     -0.522617    17A     -0.500928    18A     -0.489669
      19A     -0.411252    20A     -0.408417

  @DF-RHF Final Energy:  -211.22776442854081

   => Energetics <=

    Nuclear Repulsion Energy =            176.6587687248928376
    One-Electron Energy =                -634.3807855673372842
    Two-Electron Energy =                 246.4942524139036095
    Total Energy =                       -211.2277644285408087
  Basis Set: (AUG-CC-PVTZ AUX)
    Blend: AUG-CC-PVTZ-RI
    Molecular point group: c1

    Geometry (in Angstrom), charge = 0, multiplicity = 1:

       Center              X                  Y                   Z               Mass
    ------------   -----------------  -----------------  -----------------  -----------------
         N           -1.286887973118    -1.126247869989    -0.251968626636    14.003074004430
         C            0.856145026882    -0.407692869989     0.545610373364    12.000000000000
         C           -0.552517973118    -0.124528869989     0.088186373364    12.000000000000
         C            1.916997026882     0.199758130011    -0.377362626636    12.000000000000
         C           -0.978461973118     1.324241130011     0.047727373364    12.000000000000
         H            0.988530026882    -0.015280869989     1.562513373364     1.007825032230
         H            0.968208026882    -1.494125869989     0.589975373364     1.007825032230
         H            2.919225026882    -0.092121869989    -0.051989626636     1.007825032230
         H            1.875404026882     1.292308130011    -0.381847626636     1.007825032230
         H            1.778606026882    -0.153151869989    -1.403381626636     1.007825032230
         H           -0.733787373118     1.815915330011     0.995047573364     1.007825032230
         H           -0.441057973118     1.865486130011    -0.737564626636     1.007825032230
         H           -2.050757973118     1.412259130011    -0.147458626636     1.007825032230
         H           -2.214108973118    -0.791730869989    -0.545952626636     1.007825032230

  Basis Set: AUG-CC-PVTZ
    Blend: AUG-CC-PVTZ
  Basis Set: (AUG-CC-PVTZ AUX)
    Blend: AUG-CC-PVTZ-JKFIT
	 Reference Energy          =    -211.2277644285408087 [Eh]
	 Singles Energy            =      -0.0000000000000000 [Eh]
	 Same-Spin Energy          =      -0.2205167338561702 [Eh]
	 Opposite-Spin Energy      =      -0.7820904991727253 [Eh]
	 Correlation Energy        =      -1.0026072330288955 [Eh]
	 Total Energy              =    -212.2303716615697056 [Eh]

	 ================> DF-SCS-MP2 Energies <==================
	-----------------------------------------------------------
	 SCS Same-Spin Scale       =       0.3333333333333333 [-]
	 SCS Opposite-Spin Scale   =       1.2000000000000000 [-]
	 SCS Same-Spin Energy      =      -0.0735055779520567 [Eh]
	 SCS Opposite-Spin Energy  =      -0.9385085990072703 [Eh]
	 SCS Correlation Energy    =      -1.0120141769593272 [Eh]
	 SCS Total Energy          =    -212.2397786055001347 [Eh]
	-----------------------------------------------------------

  Dipole Moment: [D]
     X:     0.3535      Y:     2.3866      Z:     0.2307     Total:     2.4236

*** Psi4 exiting successfully. Buy a developer a beer!
