                               Psi4 1.4a3.dev225

  ==> Input File <==

--------------------------------------------------------------------------
#psi4
#
memory 32 gb

molecule  {
0 1
  N       -1.3248030    -1.1740260    -0.2505360
  C        0.8182300    -0.4554710     0.5470430
  C       -0.5904330    -0.1723070     0.0896190
  C        1.8652306     0.1440486    -0.3638788
  C       -1.0163770     1.2764630     0.0491600
  H        0.9506150    -0.0630590     1.5639460
  H        0.9302930    -1.5419040     0.5914080
  H        2.8813100    -0.1399000    -0.0505570
  H        1.8374890     1.2445300    -0.3804150
  H        1.7406910    -0.2009300    -1.4019490
  H       -0.7901170     1.7727720     0.9986380
  H       -0.4789730     1.8177080    -0.7361320
  H       -2.0886730     1.3644810    -0.1460260
  H       -2.2520240    -0.8395090    -0.5445200
units angstrom
no_reorient  #important for SAPT in psi4, default
symmetry c1  #important for SAPT in psi4, default
}

set PROPERTIES_ORIGIN ["COM"]
properties('MP2/aug-cc-pvtz', properties = ['dipole'])
--------------------------------------------------------------------------

    Molecular point group: c1
  Charge       = 0
  Multiplicity = 1
  Basis Set: AUG-CC-PVTZ
    Blend: AUG-CC-PVTZ
  Basis Set: (AUG-CC-PVTZ AUX)
    Blend: AUG-CC-PVTZ-JKFIT

    Orbital Energies [Eh]
    ---------------------

    Doubly Occupied:

       1A    -15.541399     2A    -11.284881     3A    -11.236265
       4A    -11.226475     5A    -11.224119     6A     -1.204375
       7A     -1.047045     8A     -0.982110     9A     -0.874517
      10A     -0.732286    11A     -0.654123    12A     -0.617522
      13A     -0.604851    14A     -0.582845    15A     -0.552765
      16A     -0.527901    17A     -0.498128    18A     -0.486795
      19A     -0.411373    20A     -0.409329

  @DF-RHF Final Energy:  -211.22720063141054

   => Energetics <=

    Nuclear Repulsion Energy =            176.8831301718981877
    One-Electron Energy =                -634.8224527678210052
    Two-Electron Energy =                 246.7121219645122778
    Total Energy =                       -211.2272006314105397
  Basis Set: (AUG-CC-PVTZ AUX)
    Blend: AUG-CC-PVTZ-RI
    Molecular point group: c1

    Geometry (in Angstrom), charge = 0, multiplicity = 1:

       Center              X                  Y                   Z               Mass
    ------------   -----------------  -----------------  -----------------  -----------------
         N           -1.284288192656    -1.124974459598    -0.254033940520    14.003074004430
         C            0.858744807344    -0.406419459598     0.543545059480    12.000000000000
         C           -0.549918192656    -0.123255459598     0.086121059480    12.000000000000
         C            1.905745407344     0.193100140402    -0.367376740520    12.000000000000
         C           -0.975862192656     1.325514540402     0.045662059480    12.000000000000
         H            0.991129807344    -0.014007459598     1.560448059480     1.007825032230
         H            0.970807807344    -1.492852459598     0.587910059480     1.007825032230
         H            2.921824807344    -0.090848459598    -0.054054940520     1.007825032230
         H            1.878003807344     1.293581540402    -0.383912940520     1.007825032230
         H            1.781205807344    -0.151878459598    -1.405446940520     1.007825032230
         H           -0.749602192656     1.821823540402     0.995140059480     1.007825032230
         H           -0.438458192656     1.866759540402    -0.739629940520     1.007825032230
         H           -2.048158192656     1.413532540402    -0.149523940520     1.007825032230
         H           -2.211509192656    -0.790457459598    -0.548017940520     1.007825032230

  Basis Set: AUG-CC-PVTZ
    Blend: AUG-CC-PVTZ
  Basis Set: (AUG-CC-PVTZ AUX)
    Blend: AUG-CC-PVTZ-JKFIT
	 Reference Energy          =    -211.2272006314105397 [Eh]
	 Singles Energy            =      -0.0000000000000000 [Eh]
	 Same-Spin Energy          =      -0.2206357394676803 [Eh]
	 Opposite-Spin Energy      =      -0.7822169280884987 [Eh]
	 Correlation Energy        =      -1.0028526675561791 [Eh]
	 Total Energy              =    -212.2300532989667090 [Eh]

	 ================> DF-SCS-MP2 Energies <==================
	-----------------------------------------------------------
	 SCS Same-Spin Scale       =       0.3333333333333333 [-]
	 SCS Opposite-Spin Scale   =       1.2000000000000000 [-]
	 SCS Same-Spin Energy      =      -0.0735452464892268 [Eh]
	 SCS Opposite-Spin Energy  =      -0.9386603137061984 [Eh]
	 SCS Correlation Energy    =      -1.0122055601954252 [Eh]
	 SCS Total Energy          =    -212.2394061916059513 [Eh]
	-----------------------------------------------------------

  Dipole Moment: [D]
     X:     0.3402      Y:     2.3837      Z:     0.2363     Total:     2.4194

*** Psi4 exiting successfully. Buy a developer a beer!
