                               Psi4 1.4a3.dev225

  ==> Input File <==

--------------------------------------------------------------------------
#psi4
#
memory 32 gb

molecule  {
0 1
  N       -1.3248030    -1.1740260    -0.2505360
  C        0.8182300    -0.4554710     0.5470430
  C       -0.5904330    -0.1723070     0.0896190
  C        1.8790820     0.1519800    -0.3759300
  C       -1.0163770     1.2764630     0.0491600
  H        0.9506150    -0.0630590     1.5639460
  H        0.9200411    -1.4425137     0.5873494
  H        2.8813100    -0.1399000    -0.0505570
  H        1.8374890     1.2445300    -0.3804150
  H        1.7406910    -0.2009300    -1.4019490
  H       -0.7901170     1.7727720     0.9986380
  H       -0.4789730     1.8177080    -0.7361320
  H       -2.0886730     1.3644810    -0.1460260
  H       -2.2520240    -0.8395090    -0.5445200
units angstrom
no_reorient  #important for SAPT in psi4, default
symmetry c1  #important for SAPT in psi4, default
}

set PROPERTIES_ORIGIN ["COM"]
properties('MP2/aug-cc-pvtz', properties = ['dipole'])
--------------------------------------------------------------------------

    Molecular point group: c1
  Charge       = 0
  Multiplicity = 1
  Basis Set: AUG-CC-PVTZ
    Blend: AUG-CC-PVTZ
  Basis Set: (AUG-CC-PVTZ AUX)
    Blend: AUG-CC-PVTZ-JKFIT

    Orbital Energies [Eh]
    ---------------------

    Doubly Occupied:

       1A    -15.541130     2A    -11.284241     3A    -11.235506
       4A    -11.222800     5A    -11.215385     6A     -1.204445
       7A     -1.048002     8A     -0.982234     9A     -0.880978
      10A     -0.737147    11A     -0.659241    12A     -0.617145
      13A     -0.606118    14A     -0.583074    15A     -0.554061
      16A     -0.524102    17A     -0.500996    18A     -0.499496
      19A     -0.410980    20A     -0.408533

  @DF-RHF Final Energy:  -211.22200196537540

   => Energetics <=

    Nuclear Repulsion Energy =            177.1138128991530039
    One-Electron Energy =                -635.2403999474403236
    Two-Electron Energy =                 246.9045850829119217
    Total Energy =                       -211.2220019653753980
  Basis Set: (AUG-CC-PVTZ AUX)
    Blend: AUG-CC-PVTZ-RI
    Molecular point group: c1

    Geometry (in Angstrom), charge = 0, multiplicity = 1:

       Center              X                  Y                   Z               Mass
    ------------   -----------------  -----------------  -----------------  -----------------
         N           -1.286481481013    -1.127722950023    -0.251941673217    14.003074004430
         C            0.856551518987    -0.409167950023     0.545637326783    12.000000000000
         C           -0.552111481013    -0.126003950023     0.088213326783    12.000000000000
         C            1.917403518987     0.198283049977    -0.377335673217    12.000000000000
         C           -0.978055481013     1.322766049977     0.047754326783    12.000000000000
         H            0.988936518987    -0.016755950023     1.562540326783     1.007825032230
         H            0.958362618987    -1.396210650023     0.585943726783     1.007825032230
         H            2.919631518987    -0.093596950023    -0.051962673217     1.007825032230
         H            1.875810518987     1.290833049977    -0.381820673217     1.007825032230
         H            1.779012518987    -0.154626950023    -1.403354673217     1.007825032230
         H           -0.751795481013     1.819075049977     0.997232326783     1.007825032230
         H           -0.440651481013     1.864011049977    -0.737537673217     1.007825032230
         H           -2.050351481013     1.410784049977    -0.147431673217     1.007825032230
         H           -2.213702481013    -0.793205950023    -0.545925673217     1.007825032230

  Basis Set: AUG-CC-PVTZ
    Blend: AUG-CC-PVTZ
  Basis Set: (AUG-CC-PVTZ AUX)
    Blend: AUG-CC-PVTZ-JKFIT
	 Reference Energy          =    -211.2220019653753980 [Eh]
	 Singles Energy            =      -0.0000000000000000 [Eh]
	 Same-Spin Energy          =      -0.2204177083629844 [Eh]
	 Opposite-Spin Energy      =      -0.7814483443040003 [Eh]
	 Correlation Energy        =      -1.0018660526669847 [Eh]
	 Total Energy              =    -212.2238680180423955 [Eh]

	 ================> DF-SCS-MP2 Energies <==================
	-----------------------------------------------------------
	 SCS Same-Spin Scale       =       0.3333333333333333 [-]
	 SCS Opposite-Spin Scale   =       1.2000000000000000 [-]
	 SCS Same-Spin Energy      =      -0.0734725694543281 [Eh]
	 SCS Opposite-Spin Energy  =      -0.9377380131648003 [Eh]
	 SCS Correlation Energy    =      -1.0112105826191284 [Eh]
	 SCS Total Energy          =    -212.2332125479945262 [Eh]
	-----------------------------------------------------------

  Dipole Moment: [D]
     X:     0.3614      Y:     2.3550      Z:     0.2495     Total:     2.3956

*** Psi4 exiting successfully. Buy a developer a beer!
