                               Psi4 1.4a3.dev225

  ==> Input File <==

--------------------------------------------------------------------------
#psi4
#
memory 32 gb

molecule  {
0 1
  N       -1.3248030    -1.1740260    -0.2505360
  C        0.8182300    -0.4554710     0.5470430
  C       -0.5570174    -0.2009337     0.0988097
  C        1.8790820     0.1519800    -0.3759300
  C       -1.0163770     1.2764630     0.0491600
  H        0.9506150    -0.0630590     1.5639460
  H        0.9302930    -1.5419040     0.5914080
  H        2.8813100    -0.1399000    -0.0505570
  H        1.8374890     1.2445300    -0.3804150
  H        1.7406910    -0.2009300    -1.4019490
  H       -0.7901170     1.7727720     0.9986380
  H       -0.4789730     1.8177080    -0.7361320
  H       -2.0886730     1.3644810    -0.1460260
  H       -2.2520240    -0.8395090    -0.5445200
units angstrom
no_reorient  #important for SAPT in psi4, default
symmetry c1  #important for SAPT in psi4, default
}

set PROPERTIES_ORIGIN ["COM"]
properties('MP2/aug-cc-pvtz', properties = ['dipole'])
--------------------------------------------------------------------------

    Molecular point group: c1
  Charge       = 0
  Multiplicity = 1
  Basis Set: AUG-CC-PVTZ
    Blend: AUG-CC-PVTZ
  Basis Set: (AUG-CC-PVTZ AUX)
    Blend: AUG-CC-PVTZ-JKFIT

    Orbital Energies [Eh]
    ---------------------

    Doubly Occupied:

       1A    -15.540302     2A    -11.285154     3A    -11.235597
       4A    -11.226999     5A    -11.225151     6A     -1.203029
       7A     -1.048717     8A     -0.973361     9A     -0.883715
      10A     -0.732594    11A     -0.655225    12A     -0.617435
      13A     -0.600335    14A     -0.581064    15A     -0.553069
      16A     -0.526806    17A     -0.507428    18A     -0.489907
      19A     -0.407831    20A     -0.406336

  @DF-RHF Final Energy:  -211.22593699242745

   => Energetics <=

    Nuclear Repulsion Energy =            176.7447044453566889
    One-Electron Energy =                -634.5411764029549886
    Two-Electron Energy =                 246.5705349651708786
    Total Energy =                       -211.2259369924274495
  Basis Set: (AUG-CC-PVTZ AUX)
    Blend: AUG-CC-PVTZ-RI
    Molecular point group: c1

    Geometry (in Angstrom), charge = 0, multiplicity = 1:

       Center              X                  Y                   Z               Mass
    ------------   -----------------  -----------------  -----------------  -----------------
         N           -1.292268719936    -1.121480279595    -0.253550975697    14.003074004430
         C            0.850764280064    -0.402925279595     0.544028024303    12.000000000000
         C           -0.524483119936    -0.148387979595     0.095794724303    12.000000000000
         C            1.911616280064     0.204525720405    -0.378944975697    12.000000000000
         C           -0.983842719936     1.329008720405     0.046145024303    12.000000000000
         H            0.983149280064    -0.010513279595     1.560931024303     1.007825032230
         H            0.962827280064    -1.489358279595     0.588393024303     1.007825032230
         H            2.913844280064    -0.087354279595    -0.053571975697     1.007825032230
         H            1.870023280064     1.297075720405    -0.383429975697     1.007825032230
         H            1.773225280064    -0.148384279595    -1.404963975697     1.007825032230
         H           -0.757582719936     1.825317720405     0.995623024303     1.007825032230
         H           -0.446438719936     1.870253720405    -0.739146975697     1.007825032230
         H           -2.056138719936     1.417026720405    -0.149040975697     1.007825032230
         H           -2.219489719936    -0.786963279595    -0.547534975697     1.007825032230

  Basis Set: AUG-CC-PVTZ
    Blend: AUG-CC-PVTZ
  Basis Set: (AUG-CC-PVTZ AUX)
    Blend: AUG-CC-PVTZ-JKFIT
	 Reference Energy          =    -211.2259369924274495 [Eh]
	 Singles Energy            =      -0.0000000000000000 [Eh]
	 Same-Spin Energy          =      -0.2205506026430212 [Eh]
	 Opposite-Spin Energy      =      -0.7821397372089943 [Eh]
	 Correlation Energy        =      -1.0026903398520155 [Eh]
	 Total Energy              =    -212.2286273322794727 [Eh]

	 ================> DF-SCS-MP2 Energies <==================
	-----------------------------------------------------------
	 SCS Same-Spin Scale       =       0.3333333333333333 [-]
	 SCS Opposite-Spin Scale   =       1.2000000000000000 [-]
	 SCS Same-Spin Energy      =      -0.0735168675476737 [Eh]
	 SCS Opposite-Spin Energy  =      -0.9385676846507931 [Eh]
	 SCS Correlation Energy    =      -1.0120845521984669 [Eh]
	 SCS Total Energy          =    -212.2380215446259228 [Eh]
	-----------------------------------------------------------

  Dipole Moment: [D]
     X:     0.4501      Y:     2.3134      Z:     0.2524     Total:     2.3703

*** Psi4 exiting successfully. Buy a developer a beer!
