                               Psi4 1.4a3.dev225

  ==> Input File <==

--------------------------------------------------------------------------
#psi4
#
memory 32 gb

molecule  {
0 1
  N       -1.3248030    -1.1740260    -0.2505360
  C        0.8182300    -0.4554710     0.5470430
  C       -0.5904330    -0.1723070     0.0896190
  C        1.8790820     0.1519800    -0.3759300
  C       -1.0727699     1.4682732     0.0438034
  H        0.9506150    -0.0630590     1.5639460
  H        0.9302930    -1.5419040     0.5914080
  H        2.8813100    -0.1399000    -0.0505570
  H        1.8374890     1.2445300    -0.3804150
  H        1.7406910    -0.2009300    -1.4019490
  H       -0.7901170     1.7727720     0.9986380
  H       -0.4789730     1.8177080    -0.7361320
  H       -2.0886730     1.3644810    -0.1460260
  H       -2.2520240    -0.8395090    -0.5445200
units angstrom
no_reorient  #important for SAPT in psi4, default
symmetry c1  #important for SAPT in psi4, default
}

set PROPERTIES_ORIGIN ["COM"]
properties('MP2/aug-cc-pvtz', properties = ['dipole'])
--------------------------------------------------------------------------

    Molecular point group: c1
  Charge       = 0
  Multiplicity = 1
  Basis Set: AUG-CC-PVTZ
    Blend: AUG-CC-PVTZ
  Basis Set: (AUG-CC-PVTZ AUX)
    Blend: AUG-CC-PVTZ-JKFIT

    Orbital Energies [Eh]
    ---------------------

    Doubly Occupied:

       1A    -15.542825     2A    -11.291761     3A    -11.233707
       4A    -11.228493     5A    -11.223902     6A     -1.196716
       7A     -1.041646     8A     -0.976037     9A     -0.877434
      10A     -0.726783    11A     -0.642706    12A     -0.619122
      13A     -0.608962    14A     -0.593497    15A     -0.556482
      16A     -0.527814    17A     -0.505964    18A     -0.487024
      19A     -0.412780    20A     -0.389167

  @DF-RHF Final Energy:  -211.20081606059583

   => Energetics <=

    Nuclear Repulsion Energy =            174.0686404983134992
    One-Electron Energy =                -629.1732726599771013
    Two-Electron Energy =                 243.9038161010678039
    Total Energy =                       -211.2008160605958267
  Basis Set: (AUG-CC-PVTZ AUX)
    Blend: AUG-CC-PVTZ-RI
    Molecular point group: c1

    Geometry (in Angstrom), charge = 0, multiplicity = 1:

       Center              X                  Y                   Z               Mass
    ------------   -----------------  -----------------  -----------------  -----------------
         N           -1.277105515497    -1.158698691890    -0.251094819721    14.003074004430
         C            0.865927484503    -0.440143691890     0.546484180279    12.000000000000
         C           -0.542735515497    -0.156979691890     0.089060180279    12.000000000000
         C            1.926779484503     0.167307308110    -0.376488819721    12.000000000000
         C           -1.025072415497     1.483600508110     0.043244580279    12.000000000000
         H            0.998312484503    -0.047731691890     1.563387180279     1.007825032230
         H            0.977990484503    -1.526576691890     0.590849180279     1.007825032230
         H            2.929007484503    -0.124572691890    -0.051115819721     1.007825032230
         H            1.885186484503     1.259857308110    -0.380973819721     1.007825032230
         H            1.788388484503    -0.185602691890    -1.402507819721     1.007825032230
         H           -0.742419515497     1.788099308110     0.998079180279     1.007825032230
         H           -0.431275515497     1.833035308110    -0.736690819721     1.007825032230
         H           -2.040975515497     1.379808308110    -0.146584819721     1.007825032230
         H           -2.204326515497    -0.824181691890    -0.545078819721     1.007825032230

  Basis Set: AUG-CC-PVTZ
    Blend: AUG-CC-PVTZ
  Basis Set: (AUG-CC-PVTZ AUX)
    Blend: AUG-CC-PVTZ-JKFIT
	 Reference Energy          =    -211.2008160605958267 [Eh]
	 Singles Energy            =      -0.0000000000000000 [Eh]
	 Same-Spin Energy          =      -0.2205035594131673 [Eh]
	 Opposite-Spin Energy      =      -0.7834103858935906 [Eh]
	 Correlation Energy        =      -1.0039139453067578 [Eh]
	 Total Energy              =    -212.2047300059025758 [Eh]

	 ================> DF-SCS-MP2 Energies <==================
	-----------------------------------------------------------
	 SCS Same-Spin Scale       =       0.3333333333333333 [-]
	 SCS Opposite-Spin Scale   =       1.2000000000000000 [-]
	 SCS Same-Spin Energy      =      -0.0735011864710557 [Eh]
	 SCS Opposite-Spin Energy  =      -0.9400924630723086 [Eh]
	 SCS Correlation Energy    =      -1.0135936495433644 [Eh]
	 SCS Total Energy          =    -212.2144097101391935 [Eh]
	-----------------------------------------------------------

  Dipole Moment: [D]
     X:     0.4014      Y:     2.0945      Z:     0.2343     Total:     2.1455

*** Psi4 exiting successfully. Buy a developer a beer!
