                               Psi4 1.4a3.dev225

  ==> Input File <==

--------------------------------------------------------------------------
#psi4
#
memory 32 gb

molecule  {
0 1
  N       -1.3248030    -1.1740260    -0.2505360
  C        0.8182300    -0.4554710     0.5470430
  C       -0.5904330    -0.1723070     0.0896190
  C        1.8790820     0.1519800    -0.3759300
  C       -1.0163770     1.2764630     0.0491600
  H        0.9506150    -0.0630590     1.5639460
  H        0.9302930    -1.5419040     0.5914080
  H        2.8813100    -0.1399000    -0.0505570
  H        1.8374890     1.2445300    -0.3804150
  H        1.7406910    -0.2009300    -1.4019490
  H       -0.7901170     1.7727720     0.9986380
  H       -0.4789730     1.8177080    -0.7361320
  H       -2.0886730     1.3644810    -0.1460260
  H       -2.2069531    -0.8557694    -0.5302298
units angstrom
no_reorient  #important for SAPT in psi4, default
symmetry c1  #important for SAPT in psi4, default
}

set PROPERTIES_ORIGIN ["COM"]
properties('MP2/aug-cc-pvtz', properties = ['dipole'])
--------------------------------------------------------------------------

    Molecular point group: c1
  Charge       = 0
  Multiplicity = 1
  Basis Set: AUG-CC-PVTZ
    Blend: AUG-CC-PVTZ
  Basis Set: (AUG-CC-PVTZ AUX)
    Blend: AUG-CC-PVTZ-JKFIT

    Orbital Energies [Eh]
    ---------------------

    Doubly Occupied:

       1A    -15.534944     2A    -11.284929     3A    -11.236455
       4A    -11.226707     5A    -11.223155     6A     -1.208862
       7A     -1.045936     8A     -0.982364     9A     -0.877939
      10A     -0.738123    11A     -0.657399    12A     -0.618021
      13A     -0.604912    14A     -0.583800    15A     -0.554107
      16A     -0.522625    17A     -0.500727    18A     -0.489453
      19A     -0.413180    20A     -0.408811

  @DF-RHF Final Energy:  -211.22769566872378

   => Energetics <=

    Nuclear Repulsion Energy =            176.8912092851225282
    One-Electron Energy =                -634.8129171266635922
    Two-Electron Energy =                 246.6940121728173096
    Total Energy =                       -211.2276956687237828
  Basis Set: (AUG-CC-PVTZ AUX)
    Blend: AUG-CC-PVTZ-RI
    Molecular point group: c1

    Geometry (in Angstrom), charge = 0, multiplicity = 1:

       Center              X                  Y                   Z               Mass
    ------------   -----------------  -----------------  -----------------  -----------------
         N           -1.287265960506    -1.126083018521    -0.252201859927    14.003074004430
         C            0.855767039494    -0.407528018521     0.545377140073    12.000000000000
         C           -0.552895960506    -0.124364018521     0.087953140073    12.000000000000
         C            1.916619039494     0.199922981479    -0.377595859927    12.000000000000
         C           -0.978839960506     1.324405981479     0.047494140073    12.000000000000
         H            0.988152039494    -0.015116018521     1.562280140073     1.007825032230
         H            0.967830039494    -1.493961018521     0.589742140073     1.007825032230
         H            2.918847039494    -0.091957018521    -0.052222859927     1.007825032230
         H            1.875026039494     1.292472981479    -0.382080859927     1.007825032230
         H            1.778228039494    -0.152987018521    -1.403614859927     1.007825032230
         H           -0.752579960506     1.820714981479     0.996972140073     1.007825032230
         H           -0.441435960506     1.865650981479    -0.737797859927     1.007825032230
         H           -2.051135960506     1.412423981479    -0.147691859927     1.007825032230
         H           -2.169416060506    -0.807826418521    -0.531895659927     1.007825032230

  Basis Set: AUG-CC-PVTZ
    Blend: AUG-CC-PVTZ
  Basis Set: (AUG-CC-PVTZ AUX)
    Blend: AUG-CC-PVTZ-JKFIT
	 Reference Energy          =    -211.2276956687237828 [Eh]
	 Singles Energy            =      -0.0000000000000000 [Eh]
	 Same-Spin Energy          =      -0.2201748409789777 [Eh]
	 Opposite-Spin Energy      =      -0.7811304305595063 [Eh]
	 Correlation Energy        =      -1.0013052715384840 [Eh]
	 Total Energy              =    -212.2290009402622672 [Eh]

	 ================> DF-SCS-MP2 Energies <==================
	-----------------------------------------------------------
	 SCS Same-Spin Scale       =       0.3333333333333333 [-]
	 SCS Opposite-Spin Scale   =       1.2000000000000000 [-]
	 SCS Same-Spin Energy      =      -0.0733916136596592 [Eh]
	 SCS Opposite-Spin Energy  =      -0.9373565166714075 [Eh]
	 SCS Correlation Energy    =      -1.0107481303310668 [Eh]
	 SCS Total Energy          =    -212.2384437990548633 [Eh]
	-----------------------------------------------------------

  Dipole Moment: [D]
     X:     0.3330      Y:     2.3949      Z:     0.2322     Total:     2.4291

*** Psi4 exiting successfully. Buy a developer a beer!
