                               Psi4 1.4a3.dev225

  ==> Input File <==

--------------------------------------------------------------------------
#psi4
#
memory 32 gb

molecule  {
0 1
  N       -1.3248030    -1.1740260    -0.2505360
  C        0.8182300    -0.4554710     0.5470430
  C       -0.5904330    -0.1723070     0.0896190
  C        1.8790820     0.1519800    -0.3759300
  C       -1.0163770     1.2764630     0.0491600
  H        0.9506150    -0.0630590     1.5639460
  H        0.9302930    -1.5419040     0.5914080
  H        2.8813100    -0.1399000    -0.0505570
  H        1.8374890     1.2445300    -0.3804150
  H        1.7406910    -0.2009300    -1.4019490
  H       -0.7169282     1.7533399     0.9882785
  H       -0.4789730     1.8177080    -0.7361320
  H       -2.0886730     1.3644810    -0.1460260
  H       -2.2520240    -0.8395090    -0.5445200
units angstrom
no_reorient  #important for SAPT in psi4, default
symmetry c1  #important for SAPT in psi4, default
}

set PROPERTIES_ORIGIN ["COM"]
properties('MP2/aug-cc-pvtz', properties = ['dipole'])
--------------------------------------------------------------------------

    Molecular point group: c1
  Charge       = 0
  Multiplicity = 1
  Basis Set: AUG-CC-PVTZ
    Blend: AUG-CC-PVTZ
  Basis Set: (AUG-CC-PVTZ AUX)
    Blend: AUG-CC-PVTZ-JKFIT

    Orbital Energies [Eh]
    ---------------------

    Doubly Occupied:

       1A    -15.540689     2A    -11.284350     3A    -11.236516
       4A    -11.227398     5A    -11.223511     6A     -1.203858
       7A     -1.044396     8A     -0.982103     9A     -0.876317
      10A     -0.730980    11A     -0.653014    12A     -0.618619
      13A     -0.604776    14A     -0.582571    15A     -0.555079
      16A     -0.522371    17A     -0.501529    18A     -0.490047
      19A     -0.410910    20A     -0.407813

  @DF-RHF Final Energy:  -211.22726853838321

   => Energetics <=

    Nuclear Repulsion Energy =            176.7177382652401434
    One-Electron Energy =                -634.4963186665997910
    Two-Electron Energy =                 246.5513118629764335
    Total Energy =                       -211.2272685383832140
  Basis Set: (AUG-CC-PVTZ AUX)
    Blend: AUG-CC-PVTZ-RI
    Molecular point group: c1

    Geometry (in Angstrom), charge = 0, multiplicity = 1:

       Center              X                  Y                   Z               Mass
    ------------   -----------------  -----------------  -----------------  -----------------
         N           -1.287664673441    -1.126038043690    -0.251852326205    14.003074004430
         C            0.855368326559    -0.407483043690     0.545726673795    12.000000000000
         C           -0.553294673441    -0.124319043690     0.088302673795    12.000000000000
         C            1.916220326559     0.199967956310    -0.377246326205    12.000000000000
         C           -0.979238673441     1.324450956310     0.047843673795    12.000000000000
         H            0.987753326559    -0.015071043690     1.562629673795     1.007825032230
         H            0.967431326559    -1.493916043690     0.590091673795     1.007825032230
         H            2.918448326559    -0.091912043690    -0.051873326205     1.007825032230
         H            1.874627326559     1.292517956310    -0.381731326205     1.007825032230
         H            1.777829326559    -0.152942043690    -1.403265326205     1.007825032230
         H           -0.679789873441     1.801327856310     0.986962173795     1.007825032230
         H           -0.441834673441     1.865695956310    -0.737448326205     1.007825032230
         H           -2.051534673441     1.412468956310    -0.147342326205     1.007825032230
         H           -2.214885673441    -0.791521043690    -0.545836326205     1.007825032230

  Basis Set: AUG-CC-PVTZ
    Blend: AUG-CC-PVTZ
  Basis Set: (AUG-CC-PVTZ AUX)
    Blend: AUG-CC-PVTZ-JKFIT
	 Reference Energy          =    -211.2272685383832140 [Eh]
	 Singles Energy            =      -0.0000000000000000 [Eh]
	 Same-Spin Energy          =      -0.2205703676894586 [Eh]
	 Opposite-Spin Energy      =      -0.7821351449878637 [Eh]
	 Correlation Energy        =      -1.0027055126773223 [Eh]
	 Total Energy              =    -212.2299740510605375 [Eh]

	 ================> DF-SCS-MP2 Energies <==================
	-----------------------------------------------------------
	 SCS Same-Spin Scale       =       0.3333333333333333 [-]
	 SCS Opposite-Spin Scale   =       1.2000000000000000 [-]
	 SCS Same-Spin Energy      =      -0.0735234558964862 [Eh]
	 SCS Opposite-Spin Energy  =      -0.9385621739854364 [Eh]
	 SCS Correlation Energy    =      -1.0120856298819225 [Eh]
	 SCS Total Energy          =    -212.2393541682651232 [Eh]
	-----------------------------------------------------------

  Dipole Moment: [D]
     X:     0.3733      Y:     2.3882      Z:     0.2185     Total:     2.4271

*** Psi4 exiting successfully. Buy a developer a beer!
