                               Psi4 1.4a3.dev225

  ==> Input File <==

--------------------------------------------------------------------------
#psi4
#
memory 32 gb

molecule  {
0 1
  N       -1.3248030    -1.1740260    -0.2505360
  C        0.8182300    -0.4554710     0.5470430
  C       -0.5904330    -0.1723070     0.0896190
  C        1.8691338     0.1762942    -0.3709749
  C       -1.0163770     1.2764630     0.0491600
  H        0.9506150    -0.0630590     1.5639460
  H        0.9302930    -1.5419040     0.5914080
  H        2.8813100    -0.1399000    -0.0505570
  H        1.8374890     1.2445300    -0.3804150
  H        1.7406910    -0.2009300    -1.4019490
  H       -0.7901170     1.7727720     0.9986380
  H       -0.4789730     1.8177080    -0.7361320
  H       -2.0886730     1.3644810    -0.1460260
  H       -2.2520240    -0.8395090    -0.5445200
units angstrom
no_reorient  #important for SAPT in psi4, default
symmetry c1  #important for SAPT in psi4, default
}

set PROPERTIES_ORIGIN ["COM"]
properties('MP2/aug-cc-pvtz', properties = ['dipole'])
--------------------------------------------------------------------------

    Molecular point group: c1
  Charge       = 0
  Multiplicity = 1
  Basis Set: AUG-CC-PVTZ
    Blend: AUG-CC-PVTZ
  Basis Set: (AUG-CC-PVTZ AUX)
    Blend: AUG-CC-PVTZ-JKFIT

    Orbital Energies [Eh]
    ---------------------

    Doubly Occupied:

       1A    -15.540991     2A    -11.284544     3A    -11.236313
       4A    -11.227423     5A    -11.223462     6A     -1.203949
       7A     -1.044375     8A     -0.981525     9A     -0.876498
      10A     -0.731705    11A     -0.654016    12A     -0.616426
      13A     -0.605940    14A     -0.583562    15A     -0.553023
      16A     -0.522836    17A     -0.497313    18A     -0.493058
      19A     -0.411085    20A     -0.408310

  @DF-RHF Final Energy:  -211.22695797331579

   => Energetics <=

    Nuclear Repulsion Energy =            176.7103949481680161
    One-Electron Energy =                -634.4819993327915881
    Two-Electron Energy =                 246.5446464113077809
    Total Energy =                       -211.2269579733157912
  Basis Set: (AUG-CC-PVTZ AUX)
    Blend: AUG-CC-PVTZ-RI
    Molecular point group: c1

    Geometry (in Angstrom), charge = 0, multiplicity = 1:

       Center              X                  Y                   Z               Mass
    ------------   -----------------  -----------------  -----------------  -----------------
         N           -1.284947206219    -1.130418784189    -0.252835839950    14.003074004430
         C            0.858085793781    -0.411863784189     0.544743160050    12.000000000000
         C           -0.550577206219    -0.128699784189     0.087319160050    12.000000000000
         C            1.908989593781     0.219901415811    -0.373274739950    12.000000000000
         C           -0.976521206219     1.320070215811     0.046860160050    12.000000000000
         H            0.990470793781    -0.019451784189     1.561646160050     1.007825032230
         H            0.970148793781    -1.498296784189     0.589108160050     1.007825032230
         H            2.921165793781    -0.096292784189    -0.052856839950     1.007825032230
         H            1.877344793781     1.288137215811    -0.382714839950     1.007825032230
         H            1.780546793781    -0.157322784189    -1.404248839950     1.007825032230
         H           -0.750261206219     1.816379215811     0.996338160050     1.007825032230
         H           -0.439117206219     1.861315215811    -0.738431839950     1.007825032230
         H           -2.048817206219     1.408088215811    -0.148325839950     1.007825032230
         H           -2.212168206219    -0.795901784189    -0.546819839950     1.007825032230

  Basis Set: AUG-CC-PVTZ
    Blend: AUG-CC-PVTZ
  Basis Set: (AUG-CC-PVTZ AUX)
    Blend: AUG-CC-PVTZ-JKFIT
	 Reference Energy          =    -211.2269579733157912 [Eh]
	 Singles Energy            =      -0.0000000000000000 [Eh]
	 Same-Spin Energy          =      -0.2205489702968867 [Eh]
	 Opposite-Spin Energy      =      -0.7821496254164216 [Eh]
	 Correlation Energy        =      -1.0026985957133083 [Eh]
	 Total Energy              =    -212.2296565690290890 [Eh]

	 ================> DF-SCS-MP2 Energies <==================
	-----------------------------------------------------------
	 SCS Same-Spin Scale       =       0.3333333333333333 [-]
	 SCS Opposite-Spin Scale   =       1.2000000000000000 [-]
	 SCS Same-Spin Energy      =      -0.0735163234322956 [Eh]
	 SCS Opposite-Spin Energy  =      -0.9385795504997059 [Eh]
	 SCS Correlation Energy    =      -1.0120958739320014 [Eh]
	 SCS Total Energy          =    -212.2390538472477886 [Eh]
	-----------------------------------------------------------

  Dipole Moment: [D]
     X:     0.3472      Y:     2.3965      Z:     0.2392     Total:     2.4333

*** Psi4 exiting successfully. Buy a developer a beer!
