                               Psi4 1.4a3.dev225

  ==> Input File <==

--------------------------------------------------------------------------
#psi4
#
memory 32 gb

molecule  {
0 1
  N       -1.3248030    -1.1740260    -0.2505360
  C        0.8182300    -0.4554710     0.5470430
  C       -0.5904330    -0.1723070     0.0896190
  C        1.8790820     0.1519800    -0.3759300
  C       -1.0304752     1.3244155     0.0478209
  H        0.9506150    -0.0630590     1.5639460
  H        0.9302930    -1.5419040     0.5914080
  H        2.8813100    -0.1399000    -0.0505570
  H        1.8374890     1.2445300    -0.3804150
  H        1.7406910    -0.2009300    -1.4019490
  H       -0.7901170     1.7727720     0.9986380
  H       -0.4789730     1.8177080    -0.7361320
  H       -2.0886730     1.3644810    -0.1460260
  H       -2.2520240    -0.8395090    -0.5445200
units angstrom
no_reorient  #important for SAPT in psi4, default
symmetry c1  #important for SAPT in psi4, default
}

set PROPERTIES_ORIGIN ["COM"]
properties('MP2/aug-cc-pvtz', properties = ['dipole'])
--------------------------------------------------------------------------

    Molecular point group: c1
  Charge       = 0
  Multiplicity = 1
  Basis Set: AUG-CC-PVTZ
    Blend: AUG-CC-PVTZ
  Basis Set: (AUG-CC-PVTZ AUX)
    Blend: AUG-CC-PVTZ-JKFIT

    Orbital Energies [Eh]
    ---------------------

    Doubly Occupied:

       1A    -15.541506     2A    -11.286965     3A    -11.234503
       4A    -11.227458     5A    -11.223457     6A     -1.201572
       7A     -1.043190     8A     -0.979565     9A     -0.876664
      10A     -0.729903    11A     -0.649317    12A     -0.616561
      13A     -0.603438    14A     -0.586591    15A     -0.557430
      16A     -0.524421    17A     -0.502782    18A     -0.489266
      19A     -0.410105    20A     -0.407046

  @DF-RHF Final Energy:  -211.22611044754797

   => Energetics <=

    Nuclear Repulsion Energy =            175.9707125586069196
    One-Electron Energy =                -633.0101699443666803
    Two-Electron Energy =                 245.8133469382117937
    Total Energy =                       -211.2261104475479669
  Basis Set: (AUG-CC-PVTZ AUX)
    Blend: AUG-CC-PVTZ-RI
    Molecular point group: c1

    Geometry (in Angstrom), charge = 0, multiplicity = 1:

       Center              X                  Y                   Z               Mass
    ------------   -----------------  -----------------  -----------------  -----------------
         N           -1.284246523116    -1.134409858258    -0.251773131616    14.003074004430
         C            0.858786476884    -0.415854858258     0.545805868384    12.000000000000
         C           -0.549876523116    -0.132690858258     0.088381868384    12.000000000000
         C            1.919638476884     0.191596141742    -0.377167131616    12.000000000000
         C           -0.989918723116     1.364031641742     0.046583768384    12.000000000000
         H            0.991171476884    -0.023442858258     1.562708868384     1.007825032230
         H            0.970849476884    -1.502287858258     0.590170868384     1.007825032230
         H            2.921866476884    -0.100283858258    -0.051794131616     1.007825032230
         H            1.878045476884     1.284146141742    -0.381652131616     1.007825032230
         H            1.781247476884    -0.161313858258    -1.403186131616     1.007825032230
         H           -0.749560523116     1.812388141742     0.997400868384     1.007825032230
         H           -0.438416523116     1.857324141742    -0.737369131616     1.007825032230
         H           -2.048116523116     1.404097141742    -0.147263131616     1.007825032230
         H           -2.211467523116    -0.799892858258    -0.545757131616     1.007825032230

  Basis Set: AUG-CC-PVTZ
    Blend: AUG-CC-PVTZ
  Basis Set: (AUG-CC-PVTZ AUX)
    Blend: AUG-CC-PVTZ-JKFIT
	 Reference Energy          =    -211.2261104475479669 [Eh]
	 Singles Energy            =      -0.0000000000000000 [Eh]
	 Same-Spin Energy          =      -0.2202254227729832 [Eh]
	 Opposite-Spin Energy      =      -0.7819277869051334 [Eh]
	 Correlation Energy        =      -1.0021532096781165 [Eh]
	 Total Energy              =    -212.2282636572260799 [Eh]

	 ================> DF-SCS-MP2 Energies <==================
	-----------------------------------------------------------
	 SCS Same-Spin Scale       =       0.3333333333333333 [-]
	 SCS Opposite-Spin Scale   =       1.2000000000000000 [-]
	 SCS Same-Spin Energy      =      -0.0734084742576610 [Eh]
	 SCS Opposite-Spin Energy  =      -0.9383133442861601 [Eh]
	 SCS Correlation Energy    =      -1.0117218185438210 [Eh]
	 SCS Total Energy          =    -212.2378322660918002 [Eh]
	-----------------------------------------------------------

  Dipole Moment: [D]
     X:     0.3568      Y:     2.3243      Z:     0.2350     Total:     2.3632

*** Psi4 exiting successfully. Buy a developer a beer!
