                               Psi4 1.4a3.dev225

  ==> Input File <==

--------------------------------------------------------------------------
#psi4
#
memory 32 gb

molecule  {
0 1
  N       -1.3248030    -1.1740260    -0.2505360
  C        0.8182300    -0.4554710     0.5470430
  C       -0.5904330    -0.1723070     0.0896190
  C        1.8790820     0.1519800    -0.3759300
  C       -1.0445735     1.3723681     0.0464817
  H        0.9506150    -0.0630590     1.5639460
  H        0.9302930    -1.5419040     0.5914080
  H        2.8813100    -0.1399000    -0.0505570
  H        1.8374890     1.2445300    -0.3804150
  H        1.7406910    -0.2009300    -1.4019490
  H       -0.7901170     1.7727720     0.9986380
  H       -0.4789730     1.8177080    -0.7361320
  H       -2.0886730     1.3644810    -0.1460260
  H       -2.2520240    -0.8395090    -0.5445200
units angstrom
no_reorient  #important for SAPT in psi4, default
symmetry c1  #important for SAPT in psi4, default
}

set PROPERTIES_ORIGIN ["COM"]
properties('MP2/aug-cc-pvtz', properties = ['dipole'])
--------------------------------------------------------------------------

    Molecular point group: c1
  Charge       = 0
  Multiplicity = 1
  Basis Set: AUG-CC-PVTZ
    Blend: AUG-CC-PVTZ
  Basis Set: (AUG-CC-PVTZ AUX)
    Blend: AUG-CC-PVTZ-JKFIT

    Orbital Energies [Eh]
    ---------------------

    Doubly Occupied:

       1A    -15.541862     2A    -11.288812     3A    -11.233495
       4A    -11.227754     5A    -11.223599     6A     -1.199561
       7A     -1.042525     8A     -0.978017     9A     -0.876944
      10A     -0.728542    11A     -0.646115    12A     -0.616658
      13A     -0.603901    14A     -0.589415    15A     -0.559085
      16A     -0.525842    17A     -0.504226    18A     -0.488672
      19A     -0.411169    20A     -0.401948

  @DF-RHF Final Energy:  -211.22052062826668

   => Energetics <=

    Nuclear Repulsion Energy =            175.3220024646693105
    One-Electron Energy =                -631.7087607752854410
    Two-Electron Energy =                 245.1662376823494469
    Total Energy =                       -211.2205206282666836
  Basis Set: (AUG-CC-PVTZ AUX)
    Blend: AUG-CC-PVTZ-RI
    Molecular point group: c1

    Geometry (in Angstrom), charge = 0, multiplicity = 1:

       Center              X                  Y                   Z               Mass
    ------------   -----------------  -----------------  -----------------  -----------------
         N           -1.281866175987    -1.142506141763    -0.251547022023    14.003074004430
         C            0.861166824013    -0.423951141763     0.546031977977    12.000000000000
         C           -0.547496175987    -0.140787141763     0.088607977977    12.000000000000
         C            1.922018824013     0.183499858237    -0.376941022023    12.000000000000
         C           -1.001636675987     1.403887958237     0.045470677977    12.000000000000
         H            0.993551824013    -0.031539141763     1.562934977977     1.007825032230
         H            0.973229824013    -1.510384141763     0.590396977977     1.007825032230
         H            2.924246824013    -0.108380141763    -0.051568022023     1.007825032230
         H            1.880425824013     1.276049858237    -0.381426022023     1.007825032230
         H            1.783627824013    -0.169410141763    -1.402960022023     1.007825032230
         H           -0.747180175987     1.804291858237     0.997626977977     1.007825032230
         H           -0.436036175987     1.849227858237    -0.737143022023     1.007825032230
         H           -2.045736175987     1.396000858237    -0.147037022023     1.007825032230
         H           -2.209087175987    -0.807989141763    -0.545531022023     1.007825032230

  Basis Set: AUG-CC-PVTZ
    Blend: AUG-CC-PVTZ
  Basis Set: (AUG-CC-PVTZ AUX)
    Blend: AUG-CC-PVTZ-JKFIT
	 Reference Energy          =    -211.2205206282666836 [Eh]
	 Singles Energy            =      -0.0000000000000000 [Eh]
	 Same-Spin Energy          =      -0.2201422360197763 [Eh]
	 Opposite-Spin Energy      =      -0.7821069032388382 [Eh]
	 Correlation Energy        =      -1.0022491392586146 [Eh]
	 Total Energy              =    -212.2227697675253069 [Eh]

	 ================> DF-SCS-MP2 Energies <==================
	-----------------------------------------------------------
	 SCS Same-Spin Scale       =       0.3333333333333333 [-]
	 SCS Opposite-Spin Scale   =       1.2000000000000000 [-]
	 SCS Same-Spin Energy      =      -0.0733807453399254 [Eh]
	 SCS Opposite-Spin Energy  =      -0.9385282838866058 [Eh]
	 SCS Correlation Energy    =      -1.0119090292265311 [Eh]
	 SCS Total Energy          =    -212.2324296574932134 [Eh]
	-----------------------------------------------------------

  Dipole Moment: [D]
     X:     0.3689      Y:     2.2572      Z:     0.2351     Total:     2.2992

*** Psi4 exiting successfully. Buy a developer a beer!
