                               Psi4 1.4a3.dev225

  ==> Input File <==

--------------------------------------------------------------------------
#psi4
#
memory 32 gb

molecule  {
0 1
  N       -1.4224595    -1.0846896    -0.2760799
  C        0.8182300    -0.4554710     0.5470430
  C       -0.5904330    -0.1723070     0.0896190
  C        1.8790820     0.1519800    -0.3759300
  C       -1.0163770     1.2764630     0.0491600
  H        0.9506150    -0.0630590     1.5639460
  H        0.9302930    -1.5419040     0.5914080
  H        2.8813100    -0.1399000    -0.0505570
  H        1.8374890     1.2445300    -0.3804150
  H        1.7406910    -0.2009300    -1.4019490
  H       -0.7901170     1.7727720     0.9986380
  H       -0.4789730     1.8177080    -0.7361320
  H       -2.0886730     1.3644810    -0.1460260
  H       -2.2520240    -0.8395090    -0.5445200
units angstrom
no_reorient  #important for SAPT in psi4, default
symmetry c1  #important for SAPT in psi4, default
}

set PROPERTIES_ORIGIN ["COM"]
properties('MP2/aug-cc-pvtz', properties = ['dipole'])
--------------------------------------------------------------------------

    Molecular point group: c1
  Charge       = 0
  Multiplicity = 1
  Basis Set: AUG-CC-PVTZ
    Blend: AUG-CC-PVTZ
  Basis Set: (AUG-CC-PVTZ AUX)
    Blend: AUG-CC-PVTZ-JKFIT

    Orbital Energies [Eh]
    ---------------------

    Doubly Occupied:

       1A    -15.522385     2A    -11.287433     3A    -11.232518
       4A    -11.229889     5A    -11.225962     6A     -1.210359
       7A     -1.051952     8A     -0.977985     9A     -0.883610
      10A     -0.761767    11A     -0.662349    12A     -0.622066
      13A     -0.602731    14A     -0.583741    15A     -0.553066
      16A     -0.526595    17A     -0.506203    18A     -0.491996
      19A     -0.407476    20A     -0.397555

  @DF-RHF Final Energy:  -211.21490711974371

   => Energetics <=

    Nuclear Repulsion Energy =            176.9903932041396502
    One-Electron Energy =                -634.9353272588645041
    Two-Electron Energy =                 246.7300269349811401
    Total Energy =                       -211.2149071197437138
  Basis Set: (AUG-CC-PVTZ AUX)
    Blend: AUG-CC-PVTZ-RI
    Molecular point group: c1

    Geometry (in Angstrom), charge = 0, multiplicity = 1:

       Center              X                  Y                   Z               Mass
    ------------   -----------------  -----------------  -----------------  -----------------
         N           -1.365042831787    -1.054578466836    -0.272510402909    14.003074004430
         C            0.875646668213    -0.425359866836     0.550612497091    12.000000000000
         C           -0.533016331787    -0.142195866836     0.093188497091    12.000000000000
         C            1.936498668213     0.182091133164    -0.372360502909    12.000000000000
         C           -0.958960331787     1.306574133164     0.052729497091    12.000000000000
         H            1.008031668213    -0.032947866836     1.567515497091     1.007825032230
         H            0.987709668213    -1.511792866836     0.594977497091     1.007825032230
         H            2.938726668213    -0.109788866836    -0.046987502909     1.007825032230
         H            1.894905668213     1.274641133164    -0.376845502909     1.007825032230
         H            1.798107668213    -0.170818866836    -1.398379502909     1.007825032230
         H           -0.732700331787     1.802883133164     1.002207497091     1.007825032230
         H           -0.421556331787     1.847819133164    -0.732562502909     1.007825032230
         H           -2.031256331787     1.394592133164    -0.142456502909     1.007825032230
         H           -2.194607331787    -0.809397866836    -0.540950502909     1.007825032230

  Basis Set: AUG-CC-PVTZ
    Blend: AUG-CC-PVTZ
  Basis Set: (AUG-CC-PVTZ AUX)
    Blend: AUG-CC-PVTZ-JKFIT
	 Reference Energy          =    -211.2149071197437138 [Eh]
	 Singles Energy            =      -0.0000000000000000 [Eh]
	 Same-Spin Energy          =      -0.2195715421671446 [Eh]
	 Opposite-Spin Energy      =      -0.7795787563302408 [Eh]
	 Correlation Energy        =      -0.9991502984973853 [Eh]
	 Total Energy              =    -212.2140574182411115 [Eh]

	 ================> DF-SCS-MP2 Energies <==================
	-----------------------------------------------------------
	 SCS Same-Spin Scale       =       0.3333333333333333 [-]
	 SCS Opposite-Spin Scale   =       1.2000000000000000 [-]
	 SCS Same-Spin Energy      =      -0.0731905140557148 [Eh]
	 SCS Opposite-Spin Energy  =      -0.9354945075962888 [Eh]
	 SCS Correlation Energy    =      -1.0086850216520036 [Eh]
	 SCS Total Energy          =    -212.2235921413957271 [Eh]
	-----------------------------------------------------------

  Dipole Moment: [D]
     X:     0.5284      Y:     2.2314      Z:     0.2622     Total:     2.3081

*** Psi4 exiting successfully. Buy a developer a beer!
