                               Psi4 1.4a3.dev225

  ==> Input File <==

--------------------------------------------------------------------------
#psi4
#
memory 32 gb

molecule  {
0 1
  N       -1.3248030    -1.1740260    -0.2505360
  C        0.8182300    -0.4554710     0.5470430
  C       -0.5664793    -0.2195903    -0.0013095
  C        1.8790820     0.1519800    -0.3759300
  C       -1.0163770     1.2764630     0.0491600
  H        0.9506150    -0.0630590     1.5639460
  H        0.9302930    -1.5419040     0.5914080
  H        2.8813100    -0.1399000    -0.0505570
  H        1.8374890     1.2445300    -0.3804150
  H        1.7406910    -0.2009300    -1.4019490
  H       -0.7901170     1.7727720     0.9986380
  H       -0.4789730     1.8177080    -0.7361320
  H       -2.0886730     1.3644810    -0.1460260
  H       -2.2520240    -0.8395090    -0.5445200
units angstrom
no_reorient  #important for SAPT in psi4, default
symmetry c1  #important for SAPT in psi4, default
}

set PROPERTIES_ORIGIN ["COM"]
properties('MP2/aug-cc-pvtz', properties = ['dipole'])
--------------------------------------------------------------------------

    Molecular point group: c1
  Charge       = 0
  Multiplicity = 1
  Basis Set: AUG-CC-PVTZ
    Blend: AUG-CC-PVTZ
  Basis Set: (AUG-CC-PVTZ AUX)
    Blend: AUG-CC-PVTZ-JKFIT

    Orbital Energies [Eh]
    ---------------------

    Doubly Occupied:

       1A    -15.539080     2A    -11.281008     3A    -11.234637
       4A    -11.226319     5A    -11.221921     6A     -1.220911
       7A     -1.045181     8A     -0.970365     9A     -0.874509
      10A     -0.734649    11A     -0.653620    12A     -0.617086
      13A     -0.603167    14A     -0.578867    15A     -0.550352
      16A     -0.523477    17A     -0.507865    18A     -0.485830
      19A     -0.423459    20A     -0.400886

  @DF-RHF Final Energy:  -211.22385716395260

   => Energetics <=

    Nuclear Repulsion Energy =            176.8709520095491428
    One-Electron Energy =                -634.8032412287540183
    Two-Electron Energy =                 246.7084320552523025
    Total Energy =                       -211.2238571639526015
  Basis Set: (AUG-CC-PVTZ AUX)
    Blend: AUG-CC-PVTZ-RI
    Molecular point group: c1

    Geometry (in Angstrom), charge = 0, multiplicity = 1:

       Center              X                  Y                   Z               Mass
    ------------   -----------------  -----------------  -----------------  -----------------
         N           -1.290671179345    -1.118330312276    -0.236646919868    14.003074004430
         C            0.852361820655    -0.399775312276     0.560932080132    12.000000000000
         C           -0.532347479345    -0.163894612276     0.012579580132    12.000000000000
         C            1.913213820655     0.207675687724    -0.362040919868    12.000000000000
         C           -0.982245179345     1.332158687724     0.063049080132    12.000000000000
         H            0.984746820655    -0.007363312276     1.577835080132     1.007825032230
         H            0.964424820655    -1.486208312276     0.605297080132     1.007825032230
         H            2.915441820655    -0.084204312276    -0.036667919868     1.007825032230
         H            1.871620820655     1.300225687724    -0.366525919868     1.007825032230
         H            1.774822820655    -0.145234312276    -1.388059919868     1.007825032230
         H           -0.755985179345     1.828467687724     1.012527080132     1.007825032230
         H           -0.444841179345     1.873403687724    -0.722242919868     1.007825032230
         H           -2.054541179345     1.420176687724    -0.132136919868     1.007825032230
         H           -2.217892179345    -0.783813312276    -0.530630919868     1.007825032230

  Basis Set: AUG-CC-PVTZ
    Blend: AUG-CC-PVTZ
  Basis Set: (AUG-CC-PVTZ AUX)
    Blend: AUG-CC-PVTZ-JKFIT
	 Reference Energy          =    -211.2238571639526015 [Eh]
	 Singles Energy            =      -0.0000000000000000 [Eh]
	 Same-Spin Energy          =      -0.2197553920245857 [Eh]
	 Opposite-Spin Energy      =      -0.7806868346027983 [Eh]
	 Correlation Energy        =      -1.0004422266273840 [Eh]
	 Total Energy              =    -212.2242993905799722 [Eh]

	 ================> DF-SCS-MP2 Energies <==================
	-----------------------------------------------------------
	 SCS Same-Spin Scale       =       0.3333333333333333 [-]
	 SCS Opposite-Spin Scale   =       1.2000000000000000 [-]
	 SCS Same-Spin Energy      =      -0.0732517973415285 [Eh]
	 SCS Opposite-Spin Energy  =      -0.9368242015233579 [Eh]
	 SCS Correlation Energy    =      -1.0100759988648864 [Eh]
	 SCS Total Energy          =    -212.2339331628174932 [Eh]
	-----------------------------------------------------------

  Dipole Moment: [D]
     X:     0.3015      Y:     2.2112      Z:     0.2387     Total:     2.2444

*** Psi4 exiting successfully. Buy a developer a beer!
