                               Psi4 1.4a3.dev225

  ==> Input File <==

--------------------------------------------------------------------------
#psi4
#
memory 32 gb

molecule  {
0 1
  N       -1.3248030    -1.1740260    -0.2505360
  C        0.8182300    -0.4554710     0.5470430
  C       -0.6371426    -0.1629176     0.0744514
  C        1.8790820     0.1519800    -0.3759300
  C       -1.0163770     1.2764630     0.0491600
  H        0.9506150    -0.0630590     1.5639460
  H        0.9302930    -1.5419040     0.5914080
  H        2.8813100    -0.1399000    -0.0505570
  H        1.8374890     1.2445300    -0.3804150
  H        1.7406910    -0.2009300    -1.4019490
  H       -0.7901170     1.7727720     0.9986380
  H       -0.4789730     1.8177080    -0.7361320
  H       -2.0886730     1.3644810    -0.1460260
  H       -2.2520240    -0.8395090    -0.5445200
units angstrom
no_reorient  #important for SAPT in psi4, default
symmetry c1  #important for SAPT in psi4, default
}

set PROPERTIES_ORIGIN ["COM"]
properties('MP2/aug-cc-pvtz', properties = ['dipole'])
--------------------------------------------------------------------------

    Molecular point group: c1
  Charge       = 0
  Multiplicity = 1
  Basis Set: AUG-CC-PVTZ
    Blend: AUG-CC-PVTZ
  Basis Set: (AUG-CC-PVTZ AUX)
    Blend: AUG-CC-PVTZ-JKFIT

    Orbital Energies [Eh]
    ---------------------

    Doubly Occupied:

       1A    -15.541241     2A    -11.282516     3A    -11.236386
       4A    -11.226375     5A    -11.220987     6A     -1.214311
       7A     -1.039430     8A     -0.986894     9A     -0.867590
      10A     -0.730537    11A     -0.653355    12A     -0.618933
      13A     -0.606483    14A     -0.584618    15A     -0.552880
      16A     -0.519303    17A     -0.496863    18A     -0.486543
      19A     -0.417323    20A     -0.410127

  @DF-RHF Final Energy:  -211.22632906654050

   => Energetics <=

    Nuclear Repulsion Energy =            176.5865095323764820
    One-Electron Energy =                -634.2402883516900829
    Two-Electron Energy =                 246.4274497527731285
    Total Energy =                       -211.2263290665405009
  Basis Set: (AUG-CC-PVTZ AUX)
    Blend: AUG-CC-PVTZ-RI
    Molecular point group: c1

    Geometry (in Angstrom), charge = 0, multiplicity = 1:

       Center              X                  Y                   Z               Mass
    ------------   -----------------  -----------------  -----------------  -----------------
         N           -1.278740437108    -1.127898891377    -0.249438337331    14.003074004430
         C            0.864292562892    -0.409343891377     0.548140662669    12.000000000000
         C           -0.591080037108    -0.116790491377     0.075549062669    12.000000000000
         C            1.925144562892     0.198107108623    -0.374832337331    12.000000000000
         C           -0.970314437108     1.322590108623     0.050257662669    12.000000000000
         H            0.996677562892    -0.016931891377     1.565043662669     1.007825032230
         H            0.976355562892    -1.495776891377     0.592505662669     1.007825032230
         H            2.927372562892    -0.093772891377    -0.049459337331     1.007825032230
         H            1.883551562892     1.290657108623    -0.379317337331     1.007825032230
         H            1.786753562892    -0.154802891377    -1.400851337331     1.007825032230
         H           -0.744054437108     1.818899108623     0.999735662669     1.007825032230
         H           -0.432910437108     1.863835108623    -0.735034337331     1.007825032230
         H           -2.042610437108     1.410608108623    -0.144928337331     1.007825032230
         H           -2.205961437108    -0.793381891377    -0.543422337331     1.007825032230

  Basis Set: AUG-CC-PVTZ
    Blend: AUG-CC-PVTZ
  Basis Set: (AUG-CC-PVTZ AUX)
    Blend: AUG-CC-PVTZ-JKFIT
	 Reference Energy          =    -211.2263290665405009 [Eh]
	 Singles Energy            =      -0.0000000000000000 [Eh]
	 Same-Spin Energy          =      -0.2201555773976476 [Eh]
	 Opposite-Spin Energy      =      -0.7813351313786109 [Eh]
	 Correlation Energy        =      -1.0014907087762586 [Eh]
	 Total Energy              =    -212.2278197753167603 [Eh]

	 ================> DF-SCS-MP2 Energies <==================
	-----------------------------------------------------------
	 SCS Same-Spin Scale       =       0.3333333333333333 [-]
	 SCS Opposite-Spin Scale   =       1.2000000000000000 [-]
	 SCS Same-Spin Energy      =      -0.0733851924658825 [Eh]
	 SCS Opposite-Spin Energy  =      -0.9376021576543330 [Eh]
	 SCS Correlation Energy    =      -1.0109873501202156 [Eh]
	 SCS Total Energy          =    -212.2373164166607182 [Eh]
	-----------------------------------------------------------

  Dipole Moment: [D]
     X:     0.2045      Y:     2.4033      Z:     0.2003     Total:     2.4203

*** Psi4 exiting successfully. Buy a developer a beer!
