                               Psi4 1.4a3.dev225

  ==> Input File <==

--------------------------------------------------------------------------
#psi4
#
memory 32 gb

molecule  {
0 1
  N       -1.3248030    -1.1740260    -0.2505360
  C        0.8182300    -0.4554710     0.5470430
  C       -0.6018380    -0.1878640     0.0843363
  C        1.8790820     0.1519800    -0.3759300
  C       -1.0163770     1.2764630     0.0491600
  H        0.9506150    -0.0630590     1.5639460
  H        0.9302930    -1.5419040     0.5914080
  H        2.8813100    -0.1399000    -0.0505570
  H        1.8374890     1.2445300    -0.3804150
  H        1.7406910    -0.2009300    -1.4019490
  H       -0.7901170     1.7727720     0.9986380
  H       -0.4789730     1.8177080    -0.7361320
  H       -2.0886730     1.3644810    -0.1460260
  H       -2.2520240    -0.8395090    -0.5445200
units angstrom
no_reorient  #important for SAPT in psi4, default
symmetry c1  #important for SAPT in psi4, default
}

set PROPERTIES_ORIGIN ["COM"]
properties('MP2/aug-cc-pvtz', properties = ['dipole'])
--------------------------------------------------------------------------

    Molecular point group: c1
  Charge       = 0
  Multiplicity = 1
  Basis Set: AUG-CC-PVTZ
    Blend: AUG-CC-PVTZ
  Basis Set: (AUG-CC-PVTZ AUX)
    Blend: AUG-CC-PVTZ-JKFIT

    Orbital Energies [Eh]
    ---------------------

    Doubly Occupied:

       1A    -15.540190     2A    -11.282762     3A    -11.235749
       4A    -11.226621     5A    -11.222796     6A     -1.211714
       7A     -1.043164     8A     -0.979204     9A     -0.874770
      10A     -0.731587    11A     -0.653685    12A     -0.616566
      13A     -0.604655    14A     -0.582725    15A     -0.552414
      16A     -0.522869    17A     -0.501848    18A     -0.488102
      19A     -0.415508    20A     -0.408453

  @DF-RHF Final Energy:  -211.22873604182135

   => Energetics <=

    Nuclear Repulsion Energy =            176.6748664102312034
    One-Electron Energy =                -634.4164414895246864
    Two-Electron Energy =                 246.5128390374721619
    Total Energy =                       -211.2287360418213495
  Basis Set: (AUG-CC-PVTZ AUX)
    Blend: AUG-CC-PVTZ-RI
    Molecular point group: c1

    Geometry (in Angstrom), charge = 0, multiplicity = 1:

       Center              X                  Y                   Z               Mass
    ------------   -----------------  -----------------  -----------------  -----------------
         N           -1.284701241124    -1.123686958618    -0.251107296945    14.003074004430
         C            0.858331758876    -0.405131958618     0.546471703055    12.000000000000
         C           -0.561736241124    -0.137524958618     0.083765003055    12.000000000000
         C            1.919183758876     0.202319041382    -0.376501296945    12.000000000000
         C           -0.976275241124     1.326802041382     0.048588703055    12.000000000000
         H            0.990716758876    -0.012719958618     1.563374703055     1.007825032230
         H            0.970394758876    -1.491564958618     0.590836703055     1.007825032230
         H            2.921411758876    -0.089560958618    -0.051128296945     1.007825032230
         H            1.877590758876     1.294869041382    -0.380986296945     1.007825032230
         H            1.780792758876    -0.150590958618    -1.402520296945     1.007825032230
         H           -0.750015241124     1.823111041382     0.998066703055     1.007825032230
         H           -0.438871241124     1.868047041382    -0.736703296945     1.007825032230
         H           -2.048571241124     1.414820041382    -0.146597296945     1.007825032230
         H           -2.211922241124    -0.789169958618    -0.545091296945     1.007825032230

  Basis Set: AUG-CC-PVTZ
    Blend: AUG-CC-PVTZ
  Basis Set: (AUG-CC-PVTZ AUX)
    Blend: AUG-CC-PVTZ-JKFIT
	 Reference Energy          =    -211.2287360418213495 [Eh]
	 Singles Energy            =      -0.0000000000000000 [Eh]
	 Same-Spin Energy          =      -0.2200652156189500 [Eh]
	 Opposite-Spin Energy      =      -0.7811681734225466 [Eh]
	 Correlation Energy        =      -1.0012333890414966 [Eh]
	 Total Energy              =    -212.2299694308628375 [Eh]

	 ================> DF-SCS-MP2 Energies <==================
	-----------------------------------------------------------
	 SCS Same-Spin Scale       =       0.3333333333333333 [-]
	 SCS Opposite-Spin Scale   =       1.2000000000000000 [-]
	 SCS Same-Spin Energy      =      -0.0733550718729833 [Eh]
	 SCS Opposite-Spin Energy  =      -0.9374018081070559 [Eh]
	 SCS Correlation Energy    =      -1.0107568799800393 [Eh]
	 SCS Total Energy          =    -212.2394929218013999 [Eh]
	-----------------------------------------------------------

  Dipole Moment: [D]
     X:     0.3100      Y:     2.3403      Z:     0.2204     Total:     2.3710

*** Psi4 exiting successfully. Buy a developer a beer!
