                               Psi4 1.4a3.dev225

  ==> Input File <==

--------------------------------------------------------------------------
#psi4
#
memory 32 gb

molecule  {
0 1
  N       -1.3248030    -1.1740260    -0.2505360
  C        0.8182300    -0.4554710     0.5470430
  C       -0.5904330    -0.1723070     0.0896190
  C        1.8790820     0.1519800    -0.3759300
  C       -1.0163770     1.2764630     0.0491600
  H        0.9506150    -0.0630590     1.5639460
  H        0.9302930    -1.5419040     0.5914080
  H        2.8813100    -0.1399000    -0.0505570
  H        1.8374890     1.2445300    -0.3804150
  H        1.7406910    -0.2009300    -1.4019490
  H       -0.8086005     1.7772556     1.0005066
  H       -0.4789730     1.8177080    -0.7361320
  H       -2.0886730     1.3644810    -0.1460260
  H       -2.2520240    -0.8395090    -0.5445200
units angstrom
no_reorient  #important for SAPT in psi4, default
symmetry c1  #important for SAPT in psi4, default
}

set PROPERTIES_ORIGIN ["COM"]
properties('MP2/aug-cc-pvtz', properties = ['dipole'])
--------------------------------------------------------------------------

    Molecular point group: c1
  Charge       = 0
  Multiplicity = 1
  Basis Set: AUG-CC-PVTZ
    Blend: AUG-CC-PVTZ
  Basis Set: (AUG-CC-PVTZ AUX)
    Blend: AUG-CC-PVTZ-JKFIT

    Orbital Energies [Eh]
    ---------------------

    Doubly Occupied:

       1A    -15.541326     2A    -11.284868     3A    -11.236153
       4A    -11.227147     5A    -11.223264     6A     -1.204091
       7A     -1.043961     8A     -0.981593     9A     -0.876334
      10A     -0.731801    11A     -0.653809    12A     -0.617186
      13A     -0.604159    14A     -0.583427    15A     -0.553720
      16A     -0.522675    17A     -0.500486    18A     -0.489391
      19A     -0.411499    20A     -0.408763

  @DF-RHF Final Energy:  -211.22774723358330

   => Energetics <=

    Nuclear Repulsion Energy =            176.6216953006668291
    One-Electron Energy =                -634.3075784484009318
    Two-Electron Energy =                 246.4581359141508017
    Total Energy =                       -211.2277472335833011
  Basis Set: (AUG-CC-PVTZ AUX)
    Blend: AUG-CC-PVTZ-RI
    Molecular point group: c1

    Geometry (in Angstrom), charge = 0, multiplicity = 1:

       Center              X                  Y                   Z               Mass
    ------------   -----------------  -----------------  -----------------  -----------------
         N           -1.286364756600    -1.126377169262    -0.252025721147    14.003074004430
         C            0.856668243400    -0.407822169262     0.545553278853    12.000000000000
         C           -0.551994756600    -0.124658169262     0.088129278853    12.000000000000
         C            1.917520243400     0.199628830738    -0.377419721147    12.000000000000
         C           -0.977938756600     1.324111830738     0.047670278853    12.000000000000
         H            0.989053243400    -0.015410169262     1.562456278853     1.007825032230
         H            0.968731243400    -1.494255169262     0.589918278853     1.007825032230
         H            2.919748243400    -0.092251169262    -0.052046721147     1.007825032230
         H            1.875927243400     1.292178830738    -0.381904721147     1.007825032230
         H            1.779129243400    -0.153281169262    -1.403438721147     1.007825032230
         H           -0.770162256600     1.824904430738     0.999016878853     1.007825032230
         H           -0.440534756600     1.865356830738    -0.737621721147     1.007825032230
         H           -2.050234756600     1.412129830738    -0.147515721147     1.007825032230
         H           -2.213585756600    -0.791860169262    -0.546009721147     1.007825032230

  Basis Set: AUG-CC-PVTZ
    Blend: AUG-CC-PVTZ
  Basis Set: (AUG-CC-PVTZ AUX)
    Blend: AUG-CC-PVTZ-JKFIT
	 Reference Energy          =    -211.2277472335833011 [Eh]
	 Singles Energy            =      -0.0000000000000000 [Eh]
	 Same-Spin Energy          =      -0.2204990613937082 [Eh]
	 Opposite-Spin Energy      =      -0.7820854245621705 [Eh]
	 Correlation Energy        =      -1.0025844859558786 [Eh]
	 Total Energy              =    -212.2303317195391799 [Eh]

	 ================> DF-SCS-MP2 Energies <==================
	-----------------------------------------------------------
	 SCS Same-Spin Scale       =       0.3333333333333333 [-]
	 SCS Opposite-Spin Scale   =       1.2000000000000000 [-]
	 SCS Same-Spin Energy      =      -0.0734996871312361 [Eh]
	 SCS Opposite-Spin Energy  =      -0.9385025094746045 [Eh]
	 SCS Correlation Energy    =      -1.0120021966058406 [Eh]
	 SCS Total Energy          =    -212.2397494301891356 [Eh]
	-----------------------------------------------------------

  Dipole Moment: [D]
     X:     0.3396      Y:     2.3852      Z:     0.2381     Total:     2.4210

*** Psi4 exiting successfully. Buy a developer a beer!
