                               Psi4 1.4a3.dev225

  ==> Input File <==

--------------------------------------------------------------------------
#psi4
#
memory 32 gb

molecule  {
0 1
  N       -1.3248030    -1.1740260    -0.2505360
  C        0.8182300    -0.4554710     0.5470430
  C       -0.5904330    -0.1723070     0.0896190
  C        1.8790820     0.1519800    -0.3759300
  C       -0.9881805     1.1805579     0.0518383
  H        0.9506150    -0.0630590     1.5639460
  H        0.9302930    -1.5419040     0.5914080
  H        2.8813100    -0.1399000    -0.0505570
  H        1.8374890     1.2445300    -0.3804150
  H        1.7406910    -0.2009300    -1.4019490
  H       -0.7901170     1.7727720     0.9986380
  H       -0.4789730     1.8177080    -0.7361320
  H       -2.0886730     1.3644810    -0.1460260
  H       -2.2520240    -0.8395090    -0.5445200
units angstrom
no_reorient  #important for SAPT in psi4, default
symmetry c1  #important for SAPT in psi4, default
}

set PROPERTIES_ORIGIN ["COM"]
properties('MP2/aug-cc-pvtz', properties = ['dipole'])
--------------------------------------------------------------------------

    Molecular point group: c1
  Charge       = 0
  Multiplicity = 1
  Basis Set: AUG-CC-PVTZ
    Blend: AUG-CC-PVTZ
  Basis Set: (AUG-CC-PVTZ AUX)
    Blend: AUG-CC-PVTZ-JKFIT

    Orbital Energies [Eh]
    ---------------------

    Doubly Occupied:

       1A    -15.540731     2A    -11.279064     3A    -11.241480
       4A    -11.226777     5A    -11.223002     6A     -1.210757
       7A     -1.046520     8A     -0.988024     9A     -0.875423
      10A     -0.736190    11A     -0.664438    12A     -0.621275
      13A     -0.606851    14A     -0.577278    15A     -0.545756
      16A     -0.518353    17A     -0.495088    18A     -0.487238
      19A     -0.417317    20A     -0.404333

  @DF-RHF Final Energy:  -211.21587761607449

   => Energetics <=

    Nuclear Repulsion Energy =            178.0602489555763270
    One-Electron Energy =                -637.1404641401179560
    Two-Electron Energy =                 247.8643375684671639
    Total Energy =                       -211.2158776160744935
  Basis Set: (AUG-CC-PVTZ AUX)
    Blend: AUG-CC-PVTZ-RI
    Molecular point group: c1

    Geometry (in Angstrom), charge = 0, multiplicity = 1:

       Center              X                  Y                   Z               Mass
    ------------   -----------------  -----------------  -----------------  -----------------
         N           -1.291387530735    -1.110121041510    -0.252451426627    14.003074004430
         C            0.851645469265    -0.391566041510     0.545127573373    12.000000000000
         C           -0.557017530735    -0.108402041510     0.087703573373    12.000000000000
         C            1.912497469265     0.215884958490    -0.377845426627    12.000000000000
         C           -0.954765030735     1.244462858490     0.049922873373    12.000000000000
         H            0.984030469265     0.000845958490     1.562030573373     1.007825032230
         H            0.963708469265    -1.477999041510     0.589492573373     1.007825032230
         H            2.914725469265    -0.075995041510    -0.052472426627     1.007825032230
         H            1.870904469265     1.308434958490    -0.382330426627     1.007825032230
         H            1.774106469265    -0.137025041510    -1.403864426627     1.007825032230
         H           -0.756701530735     1.836676958490     0.996722573373     1.007825032230
         H           -0.445557530735     1.881612958490    -0.738047426627     1.007825032230
         H           -2.055257530735     1.428385958490    -0.147941426627     1.007825032230
         H           -2.218608530735    -0.775604041510    -0.546435426627     1.007825032230

  Basis Set: AUG-CC-PVTZ
    Blend: AUG-CC-PVTZ
  Basis Set: (AUG-CC-PVTZ AUX)
    Blend: AUG-CC-PVTZ-JKFIT
	 Reference Energy          =    -211.2158776160744935 [Eh]
	 Singles Energy            =      -0.0000000000000000 [Eh]
	 Same-Spin Energy          =      -0.2217378679740844 [Eh]
	 Opposite-Spin Energy      =      -0.7835139358156635 [Eh]
	 Correlation Energy        =      -1.0052518037897480 [Eh]
	 Total Energy              =    -212.2211294198642406 [Eh]

	 ================> DF-SCS-MP2 Energies <==================
	-----------------------------------------------------------
	 SCS Same-Spin Scale       =       0.3333333333333333 [-]
	 SCS Opposite-Spin Scale   =       1.2000000000000000 [-]
	 SCS Same-Spin Energy      =      -0.0739126226580281 [Eh]
	 SCS Opposite-Spin Energy  =      -0.9402167229787962 [Eh]
	 SCS Correlation Energy    =      -1.0141293456368243 [Eh]
	 SCS Total Energy          =    -212.2300069617113252 [Eh]
	-----------------------------------------------------------

  Dipole Moment: [D]
     X:     0.3319      Y:     2.4995      Z:     0.2324     Total:     2.5322

*** Psi4 exiting successfully. Buy a developer a beer!
