                               Psi4 1.4a3.dev225

  ==> Input File <==

--------------------------------------------------------------------------
#psi4
#
memory 32 gb

molecule  {
0 1
  N       -1.3248030    -1.1740260    -0.2505360
  C        0.8182300    -0.4554710     0.5470430
  C       -0.5904330    -0.1723070     0.0896190
  C        1.8790820     0.1519800    -0.3759300
  C       -1.0163770     1.2764630     0.0491600
  H        0.9506150    -0.0630590     1.5639460
  H        0.9302930    -1.5419040     0.5914080
  H        2.8813100    -0.1399000    -0.0505570
  H        1.8374890     1.2445300    -0.3804150
  H        1.7406910    -0.2009300    -1.4019490
  H       -0.7533624     1.7633526     0.9940338
  H       -0.4789730     1.8177080    -0.7361320
  H       -2.0886730     1.3644810    -0.1460260
  H       -2.2520240    -0.8395090    -0.5445200
units angstrom
no_reorient  #important for SAPT in psi4, default
symmetry c1  #important for SAPT in psi4, default
}

set PROPERTIES_ORIGIN ["COM"]
properties('MP2/aug-cc-pvtz', properties = ['dipole'])
--------------------------------------------------------------------------

    Molecular point group: c1
  Charge       = 0
  Multiplicity = 1
  Basis Set: AUG-CC-PVTZ
    Blend: AUG-CC-PVTZ
  Basis Set: (AUG-CC-PVTZ AUX)
    Blend: AUG-CC-PVTZ-JKFIT

    Orbital Energies [Eh]
    ---------------------

    Doubly Occupied:

       1A    -15.540949     2A    -11.284552     3A    -11.236368
       4A    -11.227293     5A    -11.223407     6A     -1.203950
       7A     -1.044209     8A     -0.981868     9A     -0.876316
      10A     -0.731294    11A     -0.653254    12A     -0.617903
      13A     -0.604622    14A     -0.582892    15A     -0.554650
      16A     -0.522556    17A     -0.501136    18A     -0.489799
      19A     -0.411134    20A     -0.408227

  @DF-RHF Final Energy:  -211.22766883752104

   => Energetics <=

    Nuclear Repulsion Energy =            176.6779764125198824
    One-Electron Energy =                -634.4185337188548601
    Two-Electron Energy =                 246.5128884688139124
    Total Energy =                       -211.2276688375210369
  Basis Set: (AUG-CC-PVTZ AUX)
    Blend: AUG-CC-PVTZ-RI
    Molecular point group: c1

    Geometry (in Angstrom), charge = 0, multiplicity = 1:

       Center              X                  Y                   Z               Mass
    ------------   -----------------  -----------------  -----------------  -----------------
         N           -1.287148035043    -1.126180024172    -0.251933936587    14.003074004430
         C            0.855884964957    -0.407625024172     0.545645063413    12.000000000000
         C           -0.552778035043    -0.124461024172     0.088221063413    12.000000000000
         C            1.916736964957     0.199825975828    -0.377327936587    12.000000000000
         C           -0.978722035043     1.324308975828     0.047762063413    12.000000000000
         H            0.988269964957    -0.015213024172     1.562548063413     1.007825032230
         H            0.967947964957    -1.494058024172     0.590010063413     1.007825032230
         H            2.918964964957    -0.092054024172    -0.051954936587     1.007825032230
         H            1.875143964957     1.292375975828    -0.381812936587     1.007825032230
         H            1.778345964957    -0.153084024172    -1.403346936587     1.007825032230
         H           -0.715707435043     1.811198575828     0.992635863413     1.007825032230
         H           -0.441318035043     1.865553975828    -0.737529936587     1.007825032230
         H           -2.051018035043     1.412326975828    -0.147423936587     1.007825032230
         H           -2.214369035043    -0.791663024172    -0.545917936587     1.007825032230

  Basis Set: AUG-CC-PVTZ
    Blend: AUG-CC-PVTZ
  Basis Set: (AUG-CC-PVTZ AUX)
    Blend: AUG-CC-PVTZ-JKFIT
	 Reference Energy          =    -211.2276688375210369 [Eh]
	 Singles Energy            =      -0.0000000000000000 [Eh]
	 Same-Spin Energy          =      -0.2205309890529380 [Eh]
	 Opposite-Spin Energy      =      -0.7821004652521873 [Eh]
	 Correlation Energy        =      -1.0026314543051253 [Eh]
	 Total Energy              =    -212.2303002918261541 [Eh]

	 ================> DF-SCS-MP2 Energies <==================
	-----------------------------------------------------------
	 SCS Same-Spin Scale       =       0.3333333333333333 [-]
	 SCS Opposite-Spin Scale   =       1.2000000000000000 [-]
	 SCS Same-Spin Energy      =      -0.0735103296843127 [Eh]
	 SCS Opposite-Spin Energy  =      -0.9385205583026248 [Eh]
	 SCS Correlation Energy    =      -1.0120308879869375 [Eh]
	 SCS Total Energy          =    -212.2396997255079611 [Eh]
	-----------------------------------------------------------

  Dipole Moment: [D]
     X:     0.3602      Y:     2.3872      Z:     0.2268     Total:     2.4248

*** Psi4 exiting successfully. Buy a developer a beer!
