                               Psi4 1.4a3.dev225

  ==> Input File <==

--------------------------------------------------------------------------
#psi4
#
memory 32 gb

molecule  {
0 1
  N       -1.3248030    -1.1740260    -0.2505360
  C        0.8182300    -0.4554710     0.5470430
  C       -0.5904330    -0.1723070     0.0896190
  C        1.8790820     0.1519800    -0.3759300
  C       -0.9599841     1.0846528     0.0545166
  H        0.9506150    -0.0630590     1.5639460
  H        0.9302930    -1.5419040     0.5914080
  H        2.8813100    -0.1399000    -0.0505570
  H        1.8374890     1.2445300    -0.3804150
  H        1.7406910    -0.2009300    -1.4019490
  H       -0.7901170     1.7727720     0.9986380
  H       -0.4789730     1.8177080    -0.7361320
  H       -2.0886730     1.3644810    -0.1460260
  H       -2.2520240    -0.8395090    -0.5445200
units angstrom
no_reorient  #important for SAPT in psi4, default
symmetry c1  #important for SAPT in psi4, default
}

set PROPERTIES_ORIGIN ["COM"]
properties('MP2/aug-cc-pvtz', properties = ['dipole'])
--------------------------------------------------------------------------

    Molecular point group: c1
  Charge       = 0
  Multiplicity = 1
  Basis Set: AUG-CC-PVTZ
    Blend: AUG-CC-PVTZ
  Basis Set: (AUG-CC-PVTZ AUX)
    Blend: AUG-CC-PVTZ-JKFIT

    Orbital Energies [Eh]
    ---------------------

    Doubly Occupied:

       1A    -15.540530     2A    -11.271475     3A    -11.248336
       4A    -11.226625     5A    -11.222707     6A     -1.220749
       7A     -1.050723     8A     -0.997251     9A     -0.874274
      10A     -0.741516    11A     -0.675116    12A     -0.626605
      13A     -0.609008    14A     -0.574738    15A     -0.539665
      16A     -0.513997    17A     -0.492449    18A     -0.475033
      19A     -0.420365    20A     -0.397238

  @DF-RHF Final Energy:  -211.17678771959828

   => Energetics <=

    Nuclear Repulsion Energy =            179.6259744708110020
    One-Electron Energy =                -640.1687230499787802
    Two-Electron Energy =                 249.3659608595694976
    Total Energy =                       -211.1767877195982805
  Basis Set: (AUG-CC-PVTZ AUX)
    Blend: AUG-CC-PVTZ-RI
    Molecular point group: c1

    Geometry (in Angstrom), charge = 0, multiplicity = 1:

       Center              X                  Y                   Z               Mass
    ------------   -----------------  -----------------  -----------------  -----------------
         N           -1.296148191226    -1.093928491383    -0.252903628929    14.003074004430
         C            0.846884808774    -0.375373491383     0.544675371071    12.000000000000
         C           -0.561778191226    -0.092209491383     0.087251371071    12.000000000000
         C            1.907736808774     0.232077508617    -0.378297628929    12.000000000000
         C           -0.931329291226     1.164750308617     0.052148971071    12.000000000000
         H            0.979269808774     0.017038508617     1.561578371071     1.007825032230
         H            0.958947808774    -1.461806491383     0.589040371071     1.007825032230
         H            2.909964808774    -0.059802491383    -0.052924628929     1.007825032230
         H            1.866143808774     1.324627508617    -0.382782628929     1.007825032230
         H            1.769345808774    -0.120832491383    -1.404316628929     1.007825032230
         H           -0.761462191226     1.852869508617     0.996270371071     1.007825032230
         H           -0.450318191226     1.897805508617    -0.738499628929     1.007825032230
         H           -2.060018191226     1.444578508617    -0.148393628929     1.007825032230
         H           -2.223369191226    -0.759411491383    -0.546887628929     1.007825032230

  Basis Set: AUG-CC-PVTZ
    Blend: AUG-CC-PVTZ
  Basis Set: (AUG-CC-PVTZ AUX)
    Blend: AUG-CC-PVTZ-JKFIT
	 Reference Energy          =    -211.1767877195982805 [Eh]
	 Singles Energy            =      -0.0000000000000000 [Eh]
	 Same-Spin Energy          =      -0.2240154012436654 [Eh]
	 Opposite-Spin Energy      =      -0.7866585061539488 [Eh]
	 Correlation Energy        =      -1.0106739073976141 [Eh]
	 Total Energy              =    -212.1874616269958835 [Eh]

	 ================> DF-SCS-MP2 Energies <==================
	-----------------------------------------------------------
	 SCS Same-Spin Scale       =       0.3333333333333333 [-]
	 SCS Opposite-Spin Scale   =       1.2000000000000000 [-]
	 SCS Same-Spin Energy      =      -0.0746718004145551 [Eh]
	 SCS Opposite-Spin Energy  =      -0.9439902073847386 [Eh]
	 SCS Correlation Energy    =      -1.0186620077992936 [Eh]
	 SCS Total Energy          =    -212.1954497273975733 [Eh]
	-----------------------------------------------------------

  Dipole Moment: [D]
     X:     0.3284      Y:     2.6016      Z:     0.2289     Total:     2.6322

*** Psi4 exiting successfully. Buy a developer a beer!
