                               Psi4 1.4a3.dev225

  ==> Input File <==

--------------------------------------------------------------------------
#psi4
#
memory 32 gb

molecule  {
0 1
  N       -1.3248030    -1.1740260    -0.2505360
  C        0.8182300    -0.4554710     0.5470430
  C       -0.5850840    -0.1840074     0.0666604
  C        1.8790820     0.1519800    -0.3759300
  C       -1.0163770     1.2764630     0.0491600
  H        0.9506150    -0.0630590     1.5639460
  H        0.9302930    -1.5419040     0.5914080
  H        2.8813100    -0.1399000    -0.0505570
  H        1.8374890     1.2445300    -0.3804150
  H        1.7406910    -0.2009300    -1.4019490
  H       -0.7901170     1.7727720     0.9986380
  H       -0.4789730     1.8177080    -0.7361320
  H       -2.0886730     1.3644810    -0.1460260
  H       -2.2520240    -0.8395090    -0.5445200
units angstrom
no_reorient  #important for SAPT in psi4, default
symmetry c1  #important for SAPT in psi4, default
}

set PROPERTIES_ORIGIN ["COM"]
properties('MP2/aug-cc-pvtz', properties = ['dipole'])
--------------------------------------------------------------------------

    Molecular point group: c1
  Charge       = 0
  Multiplicity = 1
  Basis Set: AUG-CC-PVTZ
    Blend: AUG-CC-PVTZ
  Basis Set: (AUG-CC-PVTZ AUX)
    Blend: AUG-CC-PVTZ-JKFIT

    Orbital Energies [Eh]
    ---------------------

    Doubly Occupied:

       1A    -15.540453     2A    -11.283608     3A    -11.235864
       4A    -11.226879     5A    -11.222948     6A     -1.208358
       7A     -1.044363     8A     -0.978972     9A     -0.875827
      10A     -0.732199    11A     -0.653696    12A     -0.616799
      13A     -0.604494    14A     -0.582313    15A     -0.553201
      16A     -0.522812    17A     -0.502699    18A     -0.488510
      19A     -0.412553    20A     -0.409065

  @DF-RHF Final Energy:  -211.22833087222980

   => Energetics <=

    Nuclear Repulsion Energy =            176.7116286640419958
    One-Electron Energy =                -634.4886906341675967
    Two-Electron Energy =                 246.5487310978957964
    Total Energy =                       -211.2283308722298045
  Basis Set: (AUG-CC-PVTZ AUX)
    Blend: AUG-CC-PVTZ-RI
    Molecular point group: c1

    Geometry (in Angstrom), charge = 0, multiplicity = 1:

       Center              X                  Y                   Z               Mass
    ------------   -----------------  -----------------  -----------------  -----------------
         N           -1.287529974787    -1.124338104269    -0.248122910330    14.003074004430
         C            0.855503025213    -0.405783104269     0.549456089670    12.000000000000
         C           -0.547810974787    -0.134319504269     0.069073489670    12.000000000000
         C            1.916355025213     0.201667895731    -0.373516910330    12.000000000000
         C           -0.979103974787     1.326150895731     0.051573089670    12.000000000000
         H            0.987888025213    -0.013371104269     1.566359089670     1.007825032230
         H            0.967566025213    -1.492216104269     0.593821089670     1.007825032230
         H            2.918583025213    -0.090212104269    -0.048143910330     1.007825032230
         H            1.874762025213     1.294217895731    -0.378001910330     1.007825032230
         H            1.777964025213    -0.151242104269    -1.399535910330     1.007825032230
         H           -0.752843974787     1.822459895731     1.001051089670     1.007825032230
         H           -0.441699974787     1.867395895731    -0.733718910330     1.007825032230
         H           -2.051399974787     1.414168895731    -0.143612910330     1.007825032230
         H           -2.214750974787    -0.789821104269    -0.542106910330     1.007825032230

  Basis Set: AUG-CC-PVTZ
    Blend: AUG-CC-PVTZ
  Basis Set: (AUG-CC-PVTZ AUX)
    Blend: AUG-CC-PVTZ-JKFIT
	 Reference Energy          =    -211.2283308722298045 [Eh]
	 Singles Energy            =      -0.0000000000000000 [Eh]
	 Same-Spin Energy          =      -0.2202469129670238 [Eh]
	 Opposite-Spin Energy      =      -0.7815598729152549 [Eh]
	 Correlation Energy        =      -1.0018067858822788 [Eh]
	 Total Energy              =    -212.2301376581120849 [Eh]

	 ================> DF-SCS-MP2 Energies <==================
	-----------------------------------------------------------
	 SCS Same-Spin Scale       =       0.3333333333333333 [-]
	 SCS Opposite-Spin Scale   =       1.2000000000000000 [-]
	 SCS Same-Spin Energy      =      -0.0734156376556746 [Eh]
	 SCS Opposite-Spin Energy  =      -0.9378718474983058 [Eh]
	 SCS Correlation Energy    =      -1.0112874851539804 [Eh]
	 SCS Total Energy          =    -212.2396183573837902 [Eh]
	-----------------------------------------------------------

  Dipole Moment: [D]
     X:     0.3352      Y:     2.3474      Z:     0.2377     Total:     2.3831

*** Psi4 exiting successfully. Buy a developer a beer!
