                               Psi4 1.4a3.dev225

  ==> Input File <==

--------------------------------------------------------------------------
#psi4
#
memory 32 gb

molecule  {
0 1
  N       -1.3248030    -1.1740260    -0.2505360
  C        0.8182300    -0.4554710     0.5470430
  C       -0.5904330    -0.1723070     0.0896190
  C        1.8790820     0.1519800    -0.3759300
  C       -1.0163770     1.2764630     0.0491600
  H        0.9506150    -0.0630590     1.5639460
  H        0.9302930    -1.5419040     0.5914080
  H        2.8813100    -0.1399000    -0.0505570
  H        1.8374890     1.2445300    -0.3804150
  H        1.7470171    -0.1847978    -1.3550477
  H       -0.7901170     1.7727720     0.9986380
  H       -0.4789730     1.8177080    -0.7361320
  H       -2.0886730     1.3644810    -0.1460260
  H       -2.2520240    -0.8395090    -0.5445200
units angstrom
no_reorient  #important for SAPT in psi4, default
symmetry c1  #important for SAPT in psi4, default
}

set PROPERTIES_ORIGIN ["COM"]
properties('MP2/aug-cc-pvtz', properties = ['dipole'])
--------------------------------------------------------------------------

    Molecular point group: c1
  Charge       = 0
  Multiplicity = 1
  Basis Set: AUG-CC-PVTZ
    Blend: AUG-CC-PVTZ
  Basis Set: (AUG-CC-PVTZ AUX)
    Blend: AUG-CC-PVTZ-JKFIT

    Orbital Energies [Eh]
    ---------------------

    Doubly Occupied:

       1A    -15.541138     2A    -11.284654     3A    -11.236172
       4A    -11.226644     5A    -11.217122     6A     -1.204003
       7A     -1.045498     8A     -0.982214     9A     -0.879862
      10A     -0.732303    11A     -0.653928    12A     -0.617830
      13A     -0.605231    14A     -0.585935    15A     -0.553964
      16A     -0.524159    17A     -0.503277    18A     -0.489993
      19A     -0.411308    20A     -0.408463

  @DF-RHF Final Energy:  -211.22675298252153

   => Energetics <=

    Nuclear Repulsion Energy =            176.8411306165447172
    One-Electron Energy =                -634.7283738690723567
    Two-Electron Energy =                 246.6604902700061075
    Total Energy =                       -211.2267529825215320
  Basis Set: (AUG-CC-PVTZ AUX)
    Blend: AUG-CC-PVTZ-RI
    Molecular point group: c1

    Geometry (in Angstrom), charge = 0, multiplicity = 1:

       Center              X                  Y                   Z               Mass
    ------------   -----------------  -----------------  -----------------  -----------------
         N           -1.286716557709    -1.126542346871    -0.252664286615    14.003074004430
         C            0.856316442291    -0.407987346871     0.544914713385    12.000000000000
         C           -0.552346557709    -0.124823346871     0.087490713385    12.000000000000
         C            1.917168442291     0.199463653129    -0.378058286615    12.000000000000
         C           -0.978290557709     1.323946653129     0.047031713385    12.000000000000
         H            0.988701442291    -0.015575346871     1.561817713385     1.007825032230
         H            0.968379442291    -1.494420346871     0.589279713385     1.007825032230
         H            2.919396442291    -0.092416346871    -0.052685286615     1.007825032230
         H            1.875575442291     1.292013653129    -0.382543286615     1.007825032230
         H            1.785103542291    -0.137314146871    -1.357175986615     1.007825032230
         H           -0.752030557709     1.820255653129     0.996509713385     1.007825032230
         H           -0.440886557709     1.865191653129    -0.738260286615     1.007825032230
         H           -2.050586557709     1.411964653129    -0.148154286615     1.007825032230
         H           -2.213937557709    -0.792025346871    -0.546648286615     1.007825032230

  Basis Set: AUG-CC-PVTZ
    Blend: AUG-CC-PVTZ
  Basis Set: (AUG-CC-PVTZ AUX)
    Blend: AUG-CC-PVTZ-JKFIT
	 Reference Energy          =    -211.2267529825215320 [Eh]
	 Singles Energy            =      -0.0000000000000000 [Eh]
	 Same-Spin Energy          =      -0.2205304371327773 [Eh]
	 Opposite-Spin Energy      =      -0.7818328077955884 [Eh]
	 Correlation Energy        =      -1.0023632449283657 [Eh]
	 Total Energy              =    -212.2291162274499072 [Eh]

	 ================> DF-SCS-MP2 Energies <==================
	-----------------------------------------------------------
	 SCS Same-Spin Scale       =       0.3333333333333333 [-]
	 SCS Opposite-Spin Scale   =       1.2000000000000000 [-]
	 SCS Same-Spin Energy      =      -0.0735101457109258 [Eh]
	 SCS Opposite-Spin Energy  =      -0.9381993693547060 [Eh]
	 SCS Correlation Energy    =      -1.0117095150656319 [Eh]
	 SCS Total Energy          =    -212.2384624975871645 [Eh]
	-----------------------------------------------------------

  Dipole Moment: [D]
     X:     0.3513      Y:     2.3826      Z:     0.2089     Total:     2.4174

*** Psi4 exiting successfully. Buy a developer a beer!
