                               Psi4 1.4a3.dev225

  ==> Input File <==

--------------------------------------------------------------------------
#psi4
#
memory 32 gb

molecule  {
0 1
  N       -1.3248030    -1.1740260    -0.2505360
  C        0.8182300    -0.4554710     0.5470430
  C       -0.5904330    -0.1723070     0.0896190
  C        1.8790820     0.1519800    -0.3759300
  C       -1.0163770     1.2764630     0.0491600
  H        0.9506150    -0.0630590     1.5639460
  H        0.9302930    -1.5419040     0.5914080
  H        2.8813100    -0.1399000    -0.0505570
  H        1.8374890     1.2445300    -0.3804150
  H        1.7381606    -0.2073829    -1.4207095
  H       -0.7901170     1.7727720     0.9986380
  H       -0.4789730     1.8177080    -0.7361320
  H       -2.0886730     1.3644810    -0.1460260
  H       -2.2520240    -0.8395090    -0.5445200
units angstrom
no_reorient  #important for SAPT in psi4, default
symmetry c1  #important for SAPT in psi4, default
}

set PROPERTIES_ORIGIN ["COM"]
properties('MP2/aug-cc-pvtz', properties = ['dipole'])
--------------------------------------------------------------------------

    Molecular point group: c1
  Charge       = 0
  Multiplicity = 1
  Basis Set: AUG-CC-PVTZ
    Blend: AUG-CC-PVTZ
  Basis Set: (AUG-CC-PVTZ AUX)
    Blend: AUG-CC-PVTZ-JKFIT

    Orbital Energies [Eh]
    ---------------------

    Doubly Occupied:

       1A    -15.541233     2A    -11.284810     3A    -11.236248
       4A    -11.227459     5A    -11.225722     6A     -1.204066
       7A     -1.043572     8A     -0.981496     9A     -0.875067
      10A     -0.731396    11A     -0.653503    12A     -0.617265
      13A     -0.604073    14A     -0.582196    15A     -0.554123
      16A     -0.522181    17A     -0.499600    18A     -0.489141
      19A     -0.411404    20A     -0.408654

  @DF-RHF Final Energy:  -211.22729637461671

   => Energetics <=

    Nuclear Repulsion Energy =            176.5631893263045242
    One-Electron Energy =                -634.1945475612619703
    Two-Electron Energy =                 246.4040618603407609
    Total Energy =                       -211.2272963746167136
  Basis Set: (AUG-CC-PVTZ AUX)
    Blend: AUG-CC-PVTZ-RI
    Molecular point group: c1

    Geometry (in Angstrom), charge = 0, multiplicity = 1:

       Center              X                  Y                   Z               Mass
    ------------   -----------------  -----------------  -----------------  -----------------
         N           -1.286590972189    -1.126222089259    -0.251733199693    14.003074004430
         C            0.856442027811    -0.407667089259     0.545845800307    12.000000000000
         C           -0.552220972189    -0.124503089259     0.088421800307    12.000000000000
         C            1.917294027811     0.199783910741    -0.377127199693    12.000000000000
         C           -0.978164972189     1.324266910741     0.047962800307    12.000000000000
         H            0.988827027811    -0.015255089259     1.562748800307     1.007825032230
         H            0.968505027811    -1.494100089259     0.590210800307     1.007825032230
         H            2.919522027811    -0.092096089259    -0.051754199693     1.007825032230
         H            1.875701027811     1.292333910741    -0.381612199693     1.007825032230
         H            1.776372627811    -0.159578989259    -1.421906699693     1.007825032230
         H           -0.751904972189     1.820575910741     0.997440800307     1.007825032230
         H           -0.440760972189     1.865511910741    -0.737329199693     1.007825032230
         H           -2.050460972189     1.412284910741    -0.147223199693     1.007825032230
         H           -2.213811972189    -0.791705089259    -0.545717199693     1.007825032230

  Basis Set: AUG-CC-PVTZ
    Blend: AUG-CC-PVTZ
  Basis Set: (AUG-CC-PVTZ AUX)
    Blend: AUG-CC-PVTZ-JKFIT
	 Reference Energy          =    -211.2272963746167136 [Eh]
	 Singles Energy            =      -0.0000000000000000 [Eh]
	 Same-Spin Energy          =      -0.2204982084706004 [Eh]
	 Opposite-Spin Energy      =      -0.7822039594716631 [Eh]
	 Correlation Energy        =      -1.0027021679422634 [Eh]
	 Total Energy              =    -212.2299985425589739 [Eh]

	 ================> DF-SCS-MP2 Energies <==================
	-----------------------------------------------------------
	 SCS Same-Spin Scale       =       0.3333333333333333 [-]
	 SCS Opposite-Spin Scale   =       1.2000000000000000 [-]
	 SCS Same-Spin Energy      =      -0.0734994028235335 [Eh]
	 SCS Opposite-Spin Energy  =      -0.9386447513659957 [Eh]
	 SCS Correlation Energy    =      -1.0121441541895291 [Eh]
	 SCS Total Energy          =    -212.2394405288062558 [Eh]
	-----------------------------------------------------------

  Dipole Moment: [D]
     X:     0.3446      Y:     2.3874      Z:     0.2457     Total:     2.4247

*** Psi4 exiting successfully. Buy a developer a beer!
