                               Psi4 1.4a3.dev225

  ==> Input File <==

--------------------------------------------------------------------------
#psi4
#
memory 32 gb

molecule  {
0 1
  N       -1.3248030    -1.1740260    -0.2505360
  C        0.8182300    -0.4554710     0.5470430
  C       -0.5904330    -0.1723070     0.0896190
  C        1.8790820     0.1519800    -0.3759300
  C       -1.0163770     1.2764630     0.0491600
  H        0.9506150    -0.0630590     1.5639460
  H        0.9302930    -1.5419040     0.5914080
  H        2.8780134    -0.1317270    -0.0336306
  H        1.8374890     1.2445300    -0.3804150
  H        1.7406910    -0.2009300    -1.4019490
  H       -0.7901170     1.7727720     0.9986380
  H       -0.4789730     1.8177080    -0.7361320
  H       -2.0886730     1.3644810    -0.1460260
  H       -2.2520240    -0.8395090    -0.5445200
units angstrom
no_reorient  #important for SAPT in psi4, default
symmetry c1  #important for SAPT in psi4, default
}

set PROPERTIES_ORIGIN ["COM"]
properties('MP2/aug-cc-pvtz', properties = ['dipole'])
--------------------------------------------------------------------------

    Molecular point group: c1
  Charge       = 0
  Multiplicity = 1
  Basis Set: AUG-CC-PVTZ
    Blend: AUG-CC-PVTZ
  Basis Set: (AUG-CC-PVTZ AUX)
    Blend: AUG-CC-PVTZ-JKFIT

    Orbital Energies [Eh]
    ---------------------

    Doubly Occupied:

       1A    -15.541151     2A    -11.284665     3A    -11.236184
       4A    -11.227098     5A    -11.223357     6A     -1.203996
       7A     -1.044112     8A     -0.981657     9A     -0.876167
      10A     -0.731589    11A     -0.653449    12A     -0.617639
      13A     -0.604499    14A     -0.583222    15A     -0.553876
      16A     -0.522414    17A     -0.501369    18A     -0.489178
      19A     -0.411314    20A     -0.408515

  @DF-RHF Final Energy:  -211.22775904834228

   => Energetics <=

    Nuclear Repulsion Energy =            176.6475589657064518
    One-Electron Energy =                -634.3597318860061023
    Two-Electron Energy =                 246.4844138719573436
    Total Energy =                       -211.2277590483422784
  Basis Set: (AUG-CC-PVTZ AUX)
    Blend: AUG-CC-PVTZ-RI
    Molecular point group: c1

    Geometry (in Angstrom), charge = 0, multiplicity = 1:

       Center              X                  Y                   Z               Mass
    ------------   -----------------  -----------------  -----------------  -----------------
         N           -1.286580107443    -1.126429485100    -0.252239241347    14.003074004430
         C            0.856452892557    -0.407874485100     0.545339758653    12.000000000000
         C           -0.552210107443    -0.124710485100     0.087915758653    12.000000000000
         C            1.917304892557     0.199576514900    -0.377633241347    12.000000000000
         C           -0.978154107443     1.324059514900     0.047456758653    12.000000000000
         H            0.988837892557    -0.015462485100     1.562242758653     1.007825032230
         H            0.968515892557    -1.494307485100     0.589704758653     1.007825032230
         H            2.916236292557    -0.084130485100    -0.035333841347     1.007825032230
         H            1.875711892557     1.292126514900    -0.382118241347     1.007825032230
         H            1.778913892557    -0.153333485100    -1.403652241347     1.007825032230
         H           -0.751894107443     1.820368514900     0.996934758653     1.007825032230
         H           -0.440750107443     1.865304514900    -0.737835241347     1.007825032230
         H           -2.050450107443     1.412077514900    -0.147729241347     1.007825032230
         H           -2.213801107443    -0.791912485100    -0.546223241347     1.007825032230

  Basis Set: AUG-CC-PVTZ
    Blend: AUG-CC-PVTZ
  Basis Set: (AUG-CC-PVTZ AUX)
    Blend: AUG-CC-PVTZ-JKFIT
	 Reference Energy          =    -211.2277590483422784 [Eh]
	 Singles Energy            =      -0.0000000000000000 [Eh]
	 Same-Spin Energy          =      -0.2205086684135736 [Eh]
	 Opposite-Spin Energy      =      -0.7820923398349009 [Eh]
	 Correlation Energy        =      -1.0026010082484744 [Eh]
	 Total Energy              =    -212.2303600565907402 [Eh]

	 ================> DF-SCS-MP2 Energies <==================
	-----------------------------------------------------------
	 SCS Same-Spin Scale       =       0.3333333333333333 [-]
	 SCS Opposite-Spin Scale   =       1.2000000000000000 [-]
	 SCS Same-Spin Energy      =      -0.0735028894711912 [Eh]
	 SCS Opposite-Spin Energy  =      -0.9385108078018810 [Eh]
	 SCS Correlation Energy    =      -1.0120136972730722 [Eh]
	 SCS Total Energy          =    -212.2397727456153405 [Eh]
	-----------------------------------------------------------

  Dipole Moment: [D]
     X:     0.3473      Y:     2.3899      Z:     0.2393     Total:     2.4268

*** Psi4 exiting successfully. Buy a developer a beer!
