                               Psi4 1.4a3.dev225

  ==> Input File <==

--------------------------------------------------------------------------
#psi4
#
memory 32 gb

molecule  {
0 1
  N       -1.3248030    -1.1740260    -0.2505360
  C        0.8182300    -0.4554710     0.5470430
  C       -0.5904330    -0.1723070     0.0896190
  C        1.8790820     0.1519800    -0.3759300
  C       -1.0163770     1.2764630     0.0491600
  H        0.9506150    -0.0630590     1.5639460
  H        0.9405449    -1.6412943     0.5954666
  H        2.8813100    -0.1399000    -0.0505570
  H        1.8374890     1.2445300    -0.3804150
  H        1.7406910    -0.2009300    -1.4019490
  H       -0.7901170     1.7727720     0.9986380
  H       -0.4789730     1.8177080    -0.7361320
  H       -2.0886730     1.3644810    -0.1460260
  H       -2.2520240    -0.8395090    -0.5445200
units angstrom
no_reorient  #important for SAPT in psi4, default
symmetry c1  #important for SAPT in psi4, default
}

set PROPERTIES_ORIGIN ["COM"]
properties('MP2/aug-cc-pvtz', properties = ['dipole'])
--------------------------------------------------------------------------

    Molecular point group: c1
  Charge       = 0
  Multiplicity = 1
  Basis Set: AUG-CC-PVTZ
    Blend: AUG-CC-PVTZ
  Basis Set: (AUG-CC-PVTZ AUX)
    Blend: AUG-CC-PVTZ-JKFIT

    Orbital Energies [Eh]
    ---------------------

    Doubly Occupied:

       1A    -15.541407     2A    -11.285488     3A    -11.238340
       4A    -11.237129     5A    -11.224105     6A     -1.203922
       7A     -1.041780     8A     -0.981517     9A     -0.873245
      10A     -0.728031    11A     -0.648890    12A     -0.617859
      13A     -0.602819    14A     -0.583521    15A     -0.554255
      16A     -0.522474    17A     -0.501354    18A     -0.475968
      19A     -0.411888    20A     -0.408764

  @DF-RHF Final Energy:  -211.22096538760803

   => Energetics <=

    Nuclear Repulsion Energy =            176.2195474255354952
    One-Electron Energy =                -633.5155112488248506
    Two-Electron Energy =                 246.0749984356813229
    Total Energy =                       -211.2209653876080324
  Basis Set: (AUG-CC-PVTZ AUX)
    Blend: AUG-CC-PVTZ-RI
    Molecular point group: c1

    Geometry (in Angstrom), charge = 0, multiplicity = 1:

       Center              X                  Y                   Z               Mass
    ------------   -----------------  -----------------  -----------------  -----------------
         N           -1.286772225709    -1.124904233250    -0.252056775434    14.003074004430
         C            0.856260774291    -0.406349233250     0.545522224566    12.000000000000
         C           -0.552402225709    -0.123185233250     0.088098224566    12.000000000000
         C            1.917112774291     0.201101766750    -0.377450775434    12.000000000000
         C           -0.978346225709     1.325584766750     0.047639224566    12.000000000000
         H            0.988645774291    -0.013937233250     1.562425224566     1.007825032230
         H            0.978575674291    -1.592172533250     0.593945824566     1.007825032230
         H            2.919340774291    -0.090778233250    -0.052077775434     1.007825032230
         H            1.875519774291     1.293651766750    -0.381935775434     1.007825032230
         H            1.778721774291    -0.151808233250    -1.403469775434     1.007825032230
         H           -0.752086225709     1.821893766750     0.997117224566     1.007825032230
         H           -0.440942225709     1.866829766750    -0.737652775434     1.007825032230
         H           -2.050642225709     1.413602766750    -0.147546775434     1.007825032230
         H           -2.213993225709    -0.790387233250    -0.546040775434     1.007825032230

  Basis Set: AUG-CC-PVTZ
    Blend: AUG-CC-PVTZ
  Basis Set: (AUG-CC-PVTZ AUX)
    Blend: AUG-CC-PVTZ-JKFIT
	 Reference Energy          =    -211.2209653876080324 [Eh]
	 Singles Energy            =      -0.0000000000000000 [Eh]
	 Same-Spin Energy          =      -0.2206368501454335 [Eh]
	 Opposite-Spin Energy      =      -0.7829980555659033 [Eh]
	 Correlation Energy        =      -1.0036349057113370 [Eh]
	 Total Energy              =    -212.2246002933193836 [Eh]

	 ================> DF-SCS-MP2 Energies <==================
	-----------------------------------------------------------
	 SCS Same-Spin Scale       =       0.3333333333333333 [-]
	 SCS Opposite-Spin Scale   =       1.2000000000000000 [-]
	 SCS Same-Spin Energy      =      -0.0735456167151445 [Eh]
	 SCS Opposite-Spin Energy  =      -0.9395976666790840 [Eh]
	 SCS Correlation Energy    =      -1.0131432833942284 [Eh]
	 SCS Total Energy          =    -212.2341086710022751 [Eh]
	-----------------------------------------------------------

  Dipole Moment: [D]
     X:     0.3275      Y:     2.4321      Z:     0.2156     Total:     2.4635

*** Psi4 exiting successfully. Buy a developer a beer!
