                               Psi4 1.4a3.dev225

  ==> Input File <==

--------------------------------------------------------------------------
#psi4
#
memory 32 gb

molecule  {
0 1
  N       -1.3248030    -1.1740260    -0.2505360
  C        0.8182300    -0.4554710     0.5470430
  C       -0.5904330    -0.1723070     0.0896190
  C        1.8790820     0.1519800    -0.3759300
  C       -1.0163770     1.2764630     0.0491600
  H        0.9506150    -0.0630590     1.5639460
  H        0.9302930    -1.5419040     0.5914080
  H        2.8813100    -0.1399000    -0.0505570
  H        1.8374890     1.2445300    -0.3804150
  H        1.7406910    -0.2009300    -1.4019490
  H       -0.9018541     1.7973600     1.0054944
  H       -0.4789730     1.8177080    -0.7361320
  H       -2.0886730     1.3644810    -0.1460260
  H       -2.2520240    -0.8395090    -0.5445200
units angstrom
no_reorient  #important for SAPT in psi4, default
symmetry c1  #important for SAPT in psi4, default
}

set PROPERTIES_ORIGIN ["COM"]
properties('MP2/aug-cc-pvtz', properties = ['dipole'])
--------------------------------------------------------------------------

    Molecular point group: c1
  Charge       = 0
  Multiplicity = 1
  Basis Set: AUG-CC-PVTZ
    Blend: AUG-CC-PVTZ
  Basis Set: (AUG-CC-PVTZ AUX)
    Blend: AUG-CC-PVTZ-JKFIT

    Orbital Energies [Eh]
    ---------------------

    Doubly Occupied:

       1A    -15.541914     2A    -11.285419     3A    -11.235821
       4A    -11.226926     5A    -11.223057     6A     -1.204327
       7A     -1.043616     8A     -0.981357     9A     -0.876415
      10A     -0.732746    11A     -0.655198    12A     -0.616911
      13A     -0.602866    14A     -0.584423    15A     -0.551532
      16A     -0.522452    17A     -0.499216    18A     -0.488538
      19A     -0.412167    20A     -0.409436

  @DF-RHF Final Energy:  -211.22649517080620

   => Energetics <=

    Nuclear Repulsion Energy =            176.5367882644854376
    One-Electron Energy =                -634.1378947300000846
    Two-Electron Energy =                 246.3746112947084441
    Total Energy =                       -211.2264951708062029
  Basis Set: (AUG-CC-PVTZ AUX)
    Blend: AUG-CC-PVTZ-RI
    Molecular point group: c1

    Geometry (in Angstrom), charge = 0, multiplicity = 1:

       Center              X                  Y                   Z               Mass
    ------------   -----------------  -----------------  -----------------  -----------------
         N           -1.285042416862    -1.126662250449    -0.252096448349    14.003074004430
         C            0.857990583138    -0.408107250449     0.545482551651    12.000000000000
         C           -0.550672416862    -0.124943250449     0.088058551651    12.000000000000
         C            1.918842583138     0.199343749551    -0.377490448349    12.000000000000
         C           -0.976616416862     1.323826749551     0.047599551651    12.000000000000
         H            0.990375583138    -0.015695250449     1.562385551651     1.007825032230
         H            0.970053583138    -1.494540250449     0.589847551651     1.007825032230
         H            2.921070583138    -0.092536250449    -0.052117448349     1.007825032230
         H            1.877249583138     1.291893749551    -0.381975448349     1.007825032230
         H            1.780451583138    -0.153566250449    -1.403509448349     1.007825032230
         H           -0.862093516862     1.844723749551     1.003933951651     1.007825032230
         H           -0.439212416862     1.865071749551    -0.737692448349     1.007825032230
         H           -2.048912416862     1.411844749551    -0.147586448349     1.007825032230
         H           -2.212263416862    -0.792145250449    -0.546080448349     1.007825032230

  Basis Set: AUG-CC-PVTZ
    Blend: AUG-CC-PVTZ
  Basis Set: (AUG-CC-PVTZ AUX)
    Blend: AUG-CC-PVTZ-JKFIT
	 Reference Energy          =    -211.2264951708062029 [Eh]
	 Singles Energy            =      -0.0000000000000000 [Eh]
	 Same-Spin Energy          =      -0.2205181209984852 [Eh]
	 Opposite-Spin Energy      =      -0.7821611239767595 [Eh]
	 Correlation Energy        =      -1.0026792449752446 [Eh]
	 Total Energy              =    -212.2291744157814435 [Eh]

	 ================> DF-SCS-MP2 Energies <==================
	-----------------------------------------------------------
	 SCS Same-Spin Scale       =       0.3333333333333333 [-]
	 SCS Opposite-Spin Scale   =       1.2000000000000000 [-]
	 SCS Same-Spin Energy      =      -0.0735060403328284 [Eh]
	 SCS Opposite-Spin Energy  =      -0.9385933487721114 [Eh]
	 SCS Correlation Energy    =      -1.0120993891049399 [Eh]
	 SCS Total Energy          =    -212.2385945599111494 [Eh]
	-----------------------------------------------------------

  Dipole Moment: [D]
     X:     0.3022      Y:     2.3812      Z:     0.2538     Total:     2.4136

*** Psi4 exiting successfully. Buy a developer a beer!
