                               Psi4 1.4a3.dev225

  ==> Input File <==

--------------------------------------------------------------------------
#psi4
#
memory 32 gb

molecule  {
0 1
  N       -1.3248030    -1.1740260    -0.2505360
  C        0.8182300    -0.4554710     0.5470430
  C       -0.5904330    -0.1723070     0.0896190
  C        1.8790820     0.1519800    -0.3759300
  C       -1.0163770     1.2764630     0.0491600
  H        0.9506150    -0.0630590     1.5639460
  H        0.9251671    -1.4922089     0.5893787
  H        2.8813100    -0.1399000    -0.0505570
  H        1.8374890     1.2445300    -0.3804150
  H        1.7406910    -0.2009300    -1.4019490
  H       -0.7901170     1.7727720     0.9986380
  H       -0.4789730     1.8177080    -0.7361320
  H       -2.0886730     1.3644810    -0.1460260
  H       -2.2520240    -0.8395090    -0.5445200
units angstrom
no_reorient  #important for SAPT in psi4, default
symmetry c1  #important for SAPT in psi4, default
}

set PROPERTIES_ORIGIN ["COM"]
properties('MP2/aug-cc-pvtz', properties = ['dipole'])
--------------------------------------------------------------------------

    Molecular point group: c1
  Charge       = 0
  Multiplicity = 1
  Basis Set: AUG-CC-PVTZ
    Blend: AUG-CC-PVTZ
  Basis Set: (AUG-CC-PVTZ AUX)
    Blend: AUG-CC-PVTZ-JKFIT

    Orbital Energies [Eh]
    ---------------------

    Doubly Occupied:

       1A    -15.541151     2A    -11.284475     3A    -11.235841
       4A    -11.223083     5A    -11.221285     6A     -1.204208
       7A     -1.045773     8A     -0.981903     9A     -0.878439
      10A     -0.734128    11A     -0.656337    12A     -0.617229
      13A     -0.605216    14A     -0.583145    15A     -0.554041
      16A     -0.523183    17A     -0.500525    18A     -0.495244
      19A     -0.411162    20A     -0.408552

  @DF-RHF Final Energy:  -211.22694449020182

   => Energetics <=

    Nuclear Repulsion Energy =            176.8693855995287834
    One-Electron Energy =                -634.7828216188620445
    Two-Electron Energy =                 246.6864915291314730
    Total Energy =                       -211.2269444902018165
  Basis Set: (AUG-CC-PVTZ AUX)
    Blend: AUG-CC-PVTZ-RI
    Molecular point group: c1

    Geometry (in Angstrom), charge = 0, multiplicity = 1:

       Center              X                  Y                   Z               Mass
    ------------   -----------------  -----------------  -----------------  -----------------
         N           -1.286554167896    -1.127018270121    -0.251970448771    14.003074004430
         C            0.856478832104    -0.408463270121     0.545608551229    12.000000000000
         C           -0.552184167896    -0.125299270121     0.088184551229    12.000000000000
         C            1.917330832104     0.198987729879    -0.377364448771    12.000000000000
         C           -0.978128167896     1.323470729879     0.047725551229    12.000000000000
         H            0.988863832104    -0.016051270121     1.562511551229     1.007825032230
         H            0.963415932104    -1.445201170121     0.587944251229     1.007825032230
         H            2.919558832104    -0.092892270121    -0.051991448771     1.007825032230
         H            1.875737832104     1.291537729879    -0.381849448771     1.007825032230
         H            1.778939832104    -0.153922270121    -1.403383448771     1.007825032230
         H           -0.751868167896     1.819779729879     0.997203551229     1.007825032230
         H           -0.440724167896     1.864715729879    -0.737566448771     1.007825032230
         H           -2.050424167896     1.411488729879    -0.147460448771     1.007825032230
         H           -2.213775167896    -0.792501270121    -0.545954448771     1.007825032230

  Basis Set: AUG-CC-PVTZ
    Blend: AUG-CC-PVTZ
  Basis Set: (AUG-CC-PVTZ AUX)
    Blend: AUG-CC-PVTZ-JKFIT
	 Reference Energy          =    -211.2269444902018165 [Eh]
	 Singles Energy            =      -0.0000000000000000 [Eh]
	 Same-Spin Energy          =      -0.2204543203047795 [Eh]
	 Opposite-Spin Energy      =      -0.7817239911779894 [Eh]
	 Correlation Energy        =      -1.0021783114827689 [Eh]
	 Total Energy              =    -212.2291228016845821 [Eh]

	 ================> DF-SCS-MP2 Energies <==================
	-----------------------------------------------------------
	 SCS Same-Spin Scale       =       0.3333333333333333 [-]
	 SCS Opposite-Spin Scale   =       1.2000000000000000 [-]
	 SCS Same-Spin Energy      =      -0.0734847734349265 [Eh]
	 SCS Opposite-Spin Energy  =      -0.9380687894135873 [Eh]
	 SCS Correlation Energy    =      -1.0115535628485137 [Eh]
	 SCS Total Energy          =    -212.2384980530503356 [Eh]
	-----------------------------------------------------------

  Dipole Moment: [D]
     X:     0.3546      Y:     2.3685      Z:     0.2425     Total:     2.4072

*** Psi4 exiting successfully. Buy a developer a beer!
