                               Psi4 1.4a3.dev225

  ==> Input File <==

--------------------------------------------------------------------------
#psi4
#
memory 32 gb

molecule  {
0 1
  N       -1.3416679    -1.1598737    -0.2550602
  C        0.8182300    -0.4554710     0.5470430
  C       -0.5904330    -0.1723070     0.0896190
  C        1.8790820     0.1519800    -0.3759300
  C       -1.0163770     1.2764630     0.0491600
  H        0.9506150    -0.0630590     1.5639460
  H        0.9302930    -1.5419040     0.5914080
  H        2.8813100    -0.1399000    -0.0505570
  H        1.8374890     1.2445300    -0.3804150
  H        1.7406910    -0.2009300    -1.4019490
  H       -0.7901170     1.7727720     0.9986380
  H       -0.4789730     1.8177080    -0.7361320
  H       -2.0886730     1.3644810    -0.1460260
  H       -2.2520240    -0.8395090    -0.5445200
units angstrom
no_reorient  #important for SAPT in psi4, default
symmetry c1  #important for SAPT in psi4, default
}

set PROPERTIES_ORIGIN ["COM"]
properties('MP2/aug-cc-pvtz', properties = ['dipole'])
--------------------------------------------------------------------------

    Molecular point group: c1
  Charge       = 0
  Multiplicity = 1
  Basis Set: AUG-CC-PVTZ
    Blend: AUG-CC-PVTZ
  Basis Set: (AUG-CC-PVTZ AUX)
    Blend: AUG-CC-PVTZ-JKFIT

    Orbital Energies [Eh]
    ---------------------

    Doubly Occupied:

       1A    -15.538039     2A    -11.285004     3A    -11.235169
       4A    -11.228013     5A    -11.223720     6A     -1.204778
       7A     -1.045256     8A     -0.980919     9A     -0.877464
      10A     -0.735697    11A     -0.655165    12A     -0.617992
      13A     -0.604332    14A     -0.583479    15A     -0.553894
      16A     -0.523257    17A     -0.501587    18A     -0.489941
      19A     -0.409651    20A     -0.408295

  @DF-RHF Final Energy:  -211.22841099486382

   => Energetics <=

    Nuclear Repulsion Energy =            176.6831122463205759
    One-Electron Energy =                -634.4197393451950120
    Two-Electron Energy =                 246.5082161040106428
    Total Energy =                       -211.2284109948638218
  Basis Set: (AUG-CC-PVTZ AUX)
    Blend: AUG-CC-PVTZ-RI
    Molecular point group: c1

    Geometry (in Angstrom), charge = 0, multiplicity = 1:

       Center              X                  Y                   Z               Mass
    ------------   -----------------  -----------------  -----------------  -----------------
         N           -1.300168989671    -1.114949612265    -0.255632055418    14.003074004430
         C            0.859728910329    -0.410546912265     0.546471144582    12.000000000000
         C           -0.548934089671    -0.127382912265     0.089047144582    12.000000000000
         C            1.920580910329     0.196904087735    -0.376501855418    12.000000000000
         C           -0.974878089671     1.321387087735     0.048588144582    12.000000000000
         H            0.992113910329    -0.018134912265     1.563374144582     1.007825032230
         H            0.971791910329    -1.496979912265     0.590836144582     1.007825032230
         H            2.922808910329    -0.094975912265    -0.051128855418     1.007825032230
         H            1.878987910329     1.289454087735    -0.380986855418     1.007825032230
         H            1.782189910329    -0.156005912265    -1.402520855418     1.007825032230
         H           -0.748618089671     1.817696087735     0.998066144582     1.007825032230
         H           -0.437474089671     1.862632087735    -0.736703855418     1.007825032230
         H           -2.047174089671     1.409405087735    -0.146597855418     1.007825032230
         H           -2.210525089671    -0.794584912265    -0.545091855418     1.007825032230

  Basis Set: AUG-CC-PVTZ
    Blend: AUG-CC-PVTZ
  Basis Set: (AUG-CC-PVTZ AUX)
    Blend: AUG-CC-PVTZ-JKFIT
	 Reference Energy          =    -211.2284109948638218 [Eh]
	 Singles Energy            =      -0.0000000000000000 [Eh]
	 Same-Spin Energy          =      -0.2203001797062037 [Eh]
	 Opposite-Spin Energy      =      -0.7815440692468404 [Eh]
	 Correlation Energy        =      -1.0018442489530441 [Eh]
	 Total Energy              =    -212.2302552438168561 [Eh]

	 ================> DF-SCS-MP2 Energies <==================
	-----------------------------------------------------------
	 SCS Same-Spin Scale       =       0.3333333333333333 [-]
	 SCS Opposite-Spin Scale   =       1.2000000000000000 [-]
	 SCS Same-Spin Energy      =      -0.0734333932354012 [Eh]
	 SCS Opposite-Spin Energy  =      -0.9378528830962084 [Eh]
	 SCS Correlation Energy    =      -1.0112862763316097 [Eh]
	 SCS Total Energy          =    -212.2396972711954390 [Eh]
	-----------------------------------------------------------

  Dipole Moment: [D]
     X:     0.3714      Y:     2.3631      Z:     0.2376     Total:     2.4038

*** Psi4 exiting successfully. Buy a developer a beer!
