                               Psi4 1.4a3.dev225

  ==> Input File <==

--------------------------------------------------------------------------
#psi4
#
memory 32 gb

molecule  {
0 1
  N       -1.3248030    -1.1740260    -0.2505360
  C        0.8182300    -0.4554710     0.5470430
  C       -0.5904330    -0.1723070     0.0896190
  C        1.8790820     0.1519800    -0.3759300
  C       -1.0163770     1.2764630     0.0491600
  H        0.9506150    -0.0630590     1.5639460
  H        0.9302930    -1.5419040     0.5914080
  H        2.8914349    -0.1716784    -0.1192017
  H        1.8374890     1.2445300    -0.3804150
  H        1.7406910    -0.2009300    -1.4019490
  H       -0.7901170     1.7727720     0.9986380
  H       -0.4789730     1.8177080    -0.7361320
  H       -2.0886730     1.3644810    -0.1460260
  H       -2.2520240    -0.8395090    -0.5445200
units angstrom
no_reorient  #important for SAPT in psi4, default
symmetry c1  #important for SAPT in psi4, default
}

set PROPERTIES_ORIGIN ["COM"]
properties('MP2/aug-cc-pvtz', properties = ['dipole'])
--------------------------------------------------------------------------

    Molecular point group: c1
  Charge       = 0
  Multiplicity = 1
  Basis Set: AUG-CC-PVTZ
    Blend: AUG-CC-PVTZ
  Basis Set: (AUG-CC-PVTZ AUX)
    Blend: AUG-CC-PVTZ-JKFIT

    Orbital Energies [Eh]
    ---------------------

    Doubly Occupied:

       1A    -15.541392     2A    -11.285122     3A    -11.236369
       4A    -11.227611     5A    -11.223138     6A     -1.204222
       7A     -1.043811     8A     -0.981753     9A     -0.877042
      10A     -0.731810    11A     -0.654248    12A     -0.616551
      13A     -0.603714    14A     -0.583653    15A     -0.554578
      16A     -0.523613    17A     -0.497665    18A     -0.490732
      19A     -0.411577    20A     -0.408885

  @DF-RHF Final Energy:  -211.22722110247875

   => Energetics <=

    Nuclear Repulsion Energy =            176.6132800618324552
    One-Electron Energy =                -634.2860263208791594
    Two-Electron Energy =                 246.4455251565679248
    Total Energy =                       -211.2272211024787509
  Basis Set: (AUG-CC-PVTZ AUX)
    Blend: AUG-CC-PVTZ-RI
    Molecular point group: c1

    Geometry (in Angstrom), charge = 0, multiplicity = 1:

       Center              X                  Y                   Z               Mass
    ------------   -----------------  -----------------  -----------------  -----------------
         N           -1.286770424844    -1.125862972667    -0.251025839763    14.003074004430
         C            0.856262575156    -0.407307972667     0.546553160237    12.000000000000
         C           -0.552400424844    -0.124143972667     0.089129160237    12.000000000000
         C            1.917114575156     0.200143027333    -0.376419839763    12.000000000000
         C           -0.978344424844     1.324626027333     0.048670160237    12.000000000000
         H            0.988647575156    -0.014895972667     1.563456160237     1.007825032230
         H            0.968325575156    -1.493740972667     0.590918160237     1.007825032230
         H            2.929467475156    -0.123515372667    -0.119691539763     1.007825032230
         H            1.875521575156     1.292693027333    -0.380904839763     1.007825032230
         H            1.778723575156    -0.152766972667    -1.402438839763     1.007825032230
         H           -0.752084424844     1.820935027333     0.998148160237     1.007825032230
         H           -0.440940424844     1.865871027333    -0.736621839763     1.007825032230
         H           -2.050640424844     1.412644027333    -0.146515839763     1.007825032230
         H           -2.213991424844    -0.791345972667    -0.545009839763     1.007825032230

  Basis Set: AUG-CC-PVTZ
    Blend: AUG-CC-PVTZ
  Basis Set: (AUG-CC-PVTZ AUX)
    Blend: AUG-CC-PVTZ-JKFIT
	 Reference Energy          =    -211.2272211024787509 [Eh]
	 Singles Energy            =      -0.0000000000000000 [Eh]
	 Same-Spin Energy          =      -0.2205279336523979 [Eh]
	 Opposite-Spin Energy      =      -0.7821029505425825 [Eh]
	 Correlation Energy        =      -1.0026308841949803 [Eh]
	 Total Energy              =    -212.2298519866737365 [Eh]

	 ================> DF-SCS-MP2 Energies <==================
	-----------------------------------------------------------
	 SCS Same-Spin Scale       =       0.3333333333333333 [-]
	 SCS Opposite-Spin Scale   =       1.2000000000000000 [-]
	 SCS Same-Spin Energy      =      -0.0735093112174660 [Eh]
	 SCS Opposite-Spin Energy  =      -0.9385235406510990 [Eh]
	 SCS Correlation Energy    =      -1.0120328518685648 [Eh]
	 SCS Total Energy          =    -212.2392539543473049 [Eh]
	-----------------------------------------------------------

  Dipole Moment: [D]
     X:     0.3429      Y:     2.3699      Z:     0.2136     Total:     2.4041

*** Psi4 exiting successfully. Buy a developer a beer!
