                               Psi4 1.4a3.dev225

  ==> Input File <==

--------------------------------------------------------------------------
#psi4
#
memory 32 gb

molecule  {
0 1
  N       -1.3248030    -1.1740260    -0.2505360
  C        0.8182300    -0.4554710     0.5470430
  C       -0.6091168    -0.1685512     0.0835519
  C        1.8790820     0.1519800    -0.3759300
  C       -1.0163770     1.2764630     0.0491600
  H        0.9506150    -0.0630590     1.5639460
  H        0.9302930    -1.5419040     0.5914080
  H        2.8813100    -0.1399000    -0.0505570
  H        1.8374890     1.2445300    -0.3804150
  H        1.7406910    -0.2009300    -1.4019490
  H       -0.7901170     1.7727720     0.9986380
  H       -0.4789730     1.8177080    -0.7361320
  H       -2.0886730     1.3644810    -0.1460260
  H       -2.2520240    -0.8395090    -0.5445200
units angstrom
no_reorient  #important for SAPT in psi4, default
symmetry c1  #important for SAPT in psi4, default
}

set PROPERTIES_ORIGIN ["COM"]
properties('MP2/aug-cc-pvtz', properties = ['dipole'])
--------------------------------------------------------------------------

    Molecular point group: c1
  Charge       = 0
  Multiplicity = 1
  Basis Set: AUG-CC-PVTZ
    Blend: AUG-CC-PVTZ
  Basis Set: (AUG-CC-PVTZ AUX)
    Blend: AUG-CC-PVTZ-JKFIT

    Orbital Energies [Eh]
    ---------------------

    Doubly Occupied:

       1A    -15.541183     2A    -11.283786     3A    -11.236239
       4A    -11.226940     5A    -11.222369     6A     -1.208051
       7A     -1.042083     8A     -0.983789     9A     -0.872769
      10A     -0.731204    11A     -0.653289    12A     -0.617770
      13A     -0.605462    14A     -0.583814    15A     -0.553596
      16A     -0.521261    17A     -0.498798    18A     -0.488460
      19A     -0.412288    20A     -0.411208

  @DF-RHF Final Energy:  -211.22791751989143

   => Energetics <=

    Nuclear Repulsion Energy =            176.6166066076534378
    One-Electron Energy =                -634.3003324417861677
    Two-Electron Energy =                 246.4558083142412670
    Total Energy =                       -211.2279175198914345
  Basis Set: (AUG-CC-PVTZ AUX)
    Blend: AUG-CC-PVTZ-RI
    Molecular point group: c1

    Geometry (in Angstrom), charge = 0, multiplicity = 1:

       Center              X                  Y                   Z               Mass
    ------------   -----------------  -----------------  -----------------  -----------------
         N           -1.283472293613    -1.126947718286    -0.250974859397    14.003074004430
         C            0.859560706387    -0.408392718286     0.546604140603    12.000000000000
         C           -0.567786093613    -0.121472918286     0.083113040603    12.000000000000
         C            1.920412706387     0.199058281714    -0.376368859397    12.000000000000
         C           -0.975046293613     1.323541281714     0.048721140603    12.000000000000
         H            0.991945706387    -0.015980718286     1.563507140603     1.007825032230
         H            0.971623706387    -1.494825718286     0.590969140603     1.007825032230
         H            2.922640706387    -0.092821718286    -0.050995859397     1.007825032230
         H            1.878819706387     1.291608281714    -0.380853859397     1.007825032230
         H            1.782021706387    -0.153851718286    -1.402387859397     1.007825032230
         H           -0.748786293613     1.819850281714     0.998199140603     1.007825032230
         H           -0.437642293613     1.864786281714    -0.736570859397     1.007825032230
         H           -2.047342293613     1.411559281714    -0.146464859397     1.007825032230
         H           -2.210693293613    -0.792430718286    -0.544958859397     1.007825032230

  Basis Set: AUG-CC-PVTZ
    Blend: AUG-CC-PVTZ
  Basis Set: (AUG-CC-PVTZ AUX)
    Blend: AUG-CC-PVTZ-JKFIT
	 Reference Energy          =    -211.2279175198914345 [Eh]
	 Singles Energy            =      -0.0000000000000000 [Eh]
	 Same-Spin Energy          =      -0.2203327940600447 [Eh]
	 Opposite-Spin Energy      =      -0.7817268346176339 [Eh]
	 Correlation Energy        =      -1.0020596286776786 [Eh]
	 Total Energy              =    -212.2299771485691053 [Eh]

	 ================> DF-SCS-MP2 Energies <==================
	-----------------------------------------------------------
	 SCS Same-Spin Scale       =       0.3333333333333333 [-]
	 SCS Opposite-Spin Scale   =       1.2000000000000000 [-]
	 SCS Same-Spin Energy      =      -0.0734442646866816 [Eh]
	 SCS Opposite-Spin Energy  =      -0.9380722015411607 [Eh]
	 SCS Correlation Energy    =      -1.0115164662278422 [Eh]
	 SCS Total Energy          =    -212.2394339861192805 [Eh]
	-----------------------------------------------------------

  Dipole Moment: [D]
     X:     0.2899      Y:     2.3927      Z:     0.2209     Total:     2.4203

*** Psi4 exiting successfully. Buy a developer a beer!
