                               Psi4 1.4a3.dev225

  ==> Input File <==

--------------------------------------------------------------------------
#psi4
#
memory 32 gb

molecule  {
0 1
  N       -1.2904074    -1.2014109    -0.2411782
  C        0.8182300    -0.4554710     0.5470430
  C       -0.5904330    -0.1723070     0.0896190
  C        1.8790820     0.1519800    -0.3759300
  C       -1.0163770     1.2764630     0.0491600
  H        0.9506150    -0.0630590     1.5639460
  H        0.9302930    -1.5419040     0.5914080
  H        2.8813100    -0.1399000    -0.0505570
  H        1.8374890     1.2445300    -0.3804150
  H        1.7406910    -0.2009300    -1.4019490
  H       -0.7901170     1.7727720     0.9986380
  H       -0.4789730     1.8177080    -0.7361320
  H       -2.0886730     1.3644810    -0.1460260
  H       -2.2520240    -0.8395090    -0.5445200
units angstrom
no_reorient  #important for SAPT in psi4, default
symmetry c1  #important for SAPT in psi4, default
}

set PROPERTIES_ORIGIN ["COM"]
properties('MP2/aug-cc-pvtz', properties = ['dipole'])
--------------------------------------------------------------------------

    Molecular point group: c1
  Charge       = 0
  Multiplicity = 1
  Basis Set: AUG-CC-PVTZ
    Blend: AUG-CC-PVTZ
  Basis Set: (AUG-CC-PVTZ AUX)
    Blend: AUG-CC-PVTZ-JKFIT

    Orbital Energies [Eh]
    ---------------------

    Doubly Occupied:

       1A    -15.547516     2A    -11.284523     3A    -11.238333
       4A    -11.225660     5A    -11.222539     6A     -1.202973
       7A     -1.041744     8A     -0.983308     9A     -0.874147
      10A     -0.724779    11A     -0.650491    12A     -0.616481
      13A     -0.604021    14A     -0.582480    15A     -0.554418
      16A     -0.521566    17A     -0.499135    18A     -0.488744
      19A     -0.413986    20A     -0.409266

  @DF-RHF Final Energy:  -211.22391484676666

   => Energetics <=

    Nuclear Repulsion Energy =            176.5720086694042266
    One-Electron Energy =                -634.2196230025471095
    Two-Electron Energy =                 246.4236994863762220
    Total Energy =                       -211.2239148467666610
  Basis Set: (AUG-CC-PVTZ AUX)
    Blend: AUG-CC-PVTZ-RI
    Molecular point group: c1

    Geometry (in Angstrom), charge = 0, multiplicity = 1:

       Center              X                  Y                   Z               Mass
    ------------   -----------------  -----------------  -----------------  -----------------
         N           -1.259007958279    -1.148303051914    -0.244485120882    14.003074004430
         C            0.849629441721    -0.402363151914     0.543736079118    12.000000000000
         C           -0.559033558279    -0.119199151914     0.086312079118    12.000000000000
         C            1.910481441721     0.205087848086    -0.379236920882    12.000000000000
         C           -0.984977558279     1.329570848086     0.045853079118    12.000000000000
         H            0.982014441721    -0.009951151914     1.560639079118     1.007825032230
         H            0.961692441721    -1.488796151914     0.588101079118     1.007825032230
         H            2.912709441721    -0.086792151914    -0.053863920882     1.007825032230
         H            1.868888441721     1.297637848086    -0.383721920882     1.007825032230
         H            1.772090441721    -0.147822151914    -1.405255920882     1.007825032230
         H           -0.758717558279     1.825879848086     0.995331079118     1.007825032230
         H           -0.447573558279     1.870815848086    -0.739438920882     1.007825032230
         H           -2.057273558279     1.417588848086    -0.149332920882     1.007825032230
         H           -2.220624558279    -0.786401151914    -0.547826920882     1.007825032230

  Basis Set: AUG-CC-PVTZ
    Blend: AUG-CC-PVTZ
  Basis Set: (AUG-CC-PVTZ AUX)
    Blend: AUG-CC-PVTZ-JKFIT
	 Reference Energy          =    -211.2239148467666610 [Eh]
	 Singles Energy            =      -0.0000000000000000 [Eh]
	 Same-Spin Energy          =      -0.2209702783256833 [Eh]
	 Opposite-Spin Energy      =      -0.7833054465934692 [Eh]
	 Correlation Energy        =      -1.0042757249191525 [Eh]
	 Total Energy              =    -212.2281905716858148 [Eh]

	 ================> DF-SCS-MP2 Energies <==================
	-----------------------------------------------------------
	 SCS Same-Spin Scale       =       0.3333333333333333 [-]
	 SCS Opposite-Spin Scale   =       1.2000000000000000 [-]
	 SCS Same-Spin Energy      =      -0.0736567594418944 [Eh]
	 SCS Opposite-Spin Energy  =      -0.9399665359121631 [Eh]
	 SCS Correlation Energy    =      -1.0136232953540574 [Eh]
	 SCS Total Energy          =    -212.2375381421207123 [Eh]
	-----------------------------------------------------------

  Dipole Moment: [D]
     X:     0.3043      Y:     2.4288      Z:     0.2302     Total:     2.4586

*** Psi4 exiting successfully. Buy a developer a beer!
