                               Psi4 1.4a3.dev225

  ==> Input File <==

--------------------------------------------------------------------------
#psi4
#
memory 32 gb

molecule  {
0 1
  N       -1.3248030    -1.1740260    -0.2505360
  C        0.8182300    -0.4554710     0.5470430
  C       -0.5904330    -0.1723070     0.0896190
  C        1.8790820     0.1519800    -0.3759300
  C       -1.0163770     1.2764630     0.0491600
  H        0.9506150    -0.0630590     1.5639460
  H        0.9302930    -1.5419040     0.5914080
  H        2.8813100    -0.1399000    -0.0505570
  H        1.8374890     1.2445300    -0.3804150
  H        1.7406910    -0.2009300    -1.4019490
  H       -0.7901170     1.7727720     0.9986380
  H       -0.4789730     1.8177080    -0.7361320
  H       -2.0886730     1.3644810    -0.1460260
  H       -2.0717402    -0.9045507    -0.4873594
units angstrom
no_reorient  #important for SAPT in psi4, default
symmetry c1  #important for SAPT in psi4, default
}

set PROPERTIES_ORIGIN ["COM"]
properties('MP2/aug-cc-pvtz', properties = ['dipole'])
--------------------------------------------------------------------------

    Molecular point group: c1
  Charge       = 0
  Multiplicity = 1
  Basis Set: AUG-CC-PVTZ
    Blend: AUG-CC-PVTZ
  Basis Set: (AUG-CC-PVTZ AUX)
    Blend: AUG-CC-PVTZ-JKFIT

    Orbital Energies [Eh]
    ---------------------

    Doubly Occupied:

       1A    -15.514846     2A    -11.286072     3A    -11.237501
       4A    -11.225915     5A    -11.223066     6A     -1.231260
       7A     -1.054031     8A     -0.985152     9A     -0.884894
      10A     -0.761720    11A     -0.666623    12A     -0.619834
      13A     -0.605968    14A     -0.585313    15A     -0.554474
      16A     -0.522878    17A     -0.501238    18A     -0.489550
      19A     -0.418100    20A     -0.410284

  @DF-RHF Final Energy:  -211.18858511683635

   => Energetics <=

    Nuclear Repulsion Energy =            177.7830977191376007
    One-Electron Energy =                -636.3859273057917108
    Two-Electron Energy =                 247.4142444698177883
    Total Energy =                       -211.1885851168363502
  Basis Set: (AUG-CC-PVTZ AUX)
    Blend: AUG-CC-PVTZ-RI
    Molecular point group: c1

    Geometry (in Angstrom), charge = 0, multiplicity = 1:

       Center              X                  Y                   Z               Mass
    ------------   -----------------  -----------------  -----------------  -----------------
         N           -1.289183284779    -1.125391297757    -0.252809763895    14.003074004430
         C            0.853849715221    -0.406836297757     0.544769236105    12.000000000000
         C           -0.554813284779    -0.123672297757     0.087345236105    12.000000000000
         C            1.914701715221     0.200614702243    -0.378203763895    12.000000000000
         C           -0.980757284779     1.325097702243     0.046886236105    12.000000000000
         H            0.986234715221    -0.014424297757     1.561672236105     1.007825032230
         H            0.965912715221    -1.493269297757     0.589134236105     1.007825032230
         H            2.916929715221    -0.091265297757    -0.052830763895     1.007825032230
         H            1.873108715221     1.293164702243    -0.382688763895     1.007825032230
         H            1.776310715221    -0.152295297757    -1.404222763895     1.007825032230
         H           -0.754497284779     1.821406702243     0.996364236105     1.007825032230
         H           -0.443353284779     1.866342702243    -0.738405763895     1.007825032230
         H           -2.053053284779     1.413115702243    -0.148299763895     1.007825032230
         H           -2.036120484779    -0.855915997757    -0.489633163895     1.007825032230

  Basis Set: AUG-CC-PVTZ
    Blend: AUG-CC-PVTZ
  Basis Set: (AUG-CC-PVTZ AUX)
    Blend: AUG-CC-PVTZ-JKFIT
	 Reference Energy          =    -211.1885851168363502 [Eh]
	 Singles Energy            =      -0.0000000000000000 [Eh]
	 Same-Spin Energy          =      -0.2193053178587195 [Eh]
	 Opposite-Spin Energy      =      -0.7789071551971515 [Eh]
	 Correlation Energy        =      -0.9982124730558710 [Eh]
	 Total Energy              =    -212.1867975898922225 [Eh]

	 ================> DF-SCS-MP2 Energies <==================
	-----------------------------------------------------------
	 SCS Same-Spin Scale       =       0.3333333333333333 [-]
	 SCS Opposite-Spin Scale   =       1.2000000000000000 [-]
	 SCS Same-Spin Energy      =      -0.0731017726195732 [Eh]
	 SCS Opposite-Spin Energy  =      -0.9346885862365817 [Eh]
	 SCS Correlation Energy    =      -1.0077903588561548 [Eh]
	 SCS Total Energy          =    -212.1963754756924914 [Eh]
	-----------------------------------------------------------

  Dipole Moment: [D]
     X:     0.3340      Y:     2.4335      Z:     0.2384     Total:     2.4679

*** Psi4 exiting successfully. Buy a developer a beer!
