                               Psi4 1.4a3.dev225

  ==> Input File <==

--------------------------------------------------------------------------
#psi4
#
memory 32 gb

molecule  {
0 1
  N       -1.3248030    -1.1740260    -0.2505360
  C        0.8182300    -0.4554710     0.5470430
  C       -0.6838521    -0.1535282     0.0592837
  C        1.8790820     0.1519800    -0.3759300
  C       -1.0163770     1.2764630     0.0491600
  H        0.9506150    -0.0630590     1.5639460
  H        0.9302930    -1.5419040     0.5914080
  H        2.8813100    -0.1399000    -0.0505570
  H        1.8374890     1.2445300    -0.3804150
  H        1.7406910    -0.2009300    -1.4019490
  H       -0.7901170     1.7727720     0.9986380
  H       -0.4789730     1.8177080    -0.7361320
  H       -2.0886730     1.3644810    -0.1460260
  H       -2.2520240    -0.8395090    -0.5445200
units angstrom
no_reorient  #important for SAPT in psi4, default
symmetry c1  #important for SAPT in psi4, default
}

set PROPERTIES_ORIGIN ["COM"]
properties('MP2/aug-cc-pvtz', properties = ['dipole'])
--------------------------------------------------------------------------

    Molecular point group: c1
  Charge       = 0
  Multiplicity = 1
  Basis Set: AUG-CC-PVTZ
    Blend: AUG-CC-PVTZ
  Basis Set: (AUG-CC-PVTZ AUX)
    Blend: AUG-CC-PVTZ-JKFIT

    Orbital Energies [Eh]
    ---------------------

    Doubly Occupied:

       1A    -15.541675     2A    -11.281033     3A    -11.237000
       4A    -11.224888     5A    -11.218730     6A     -1.225277
       7A     -1.035976     8A     -0.991695     9A     -0.859397
      10A     -0.729378    11A     -0.655122    12A     -0.621246
      13A     -0.607314    14A     -0.585711    15A     -0.551628
      16A     -0.516440    17A     -0.495789    18A     -0.483358
      19A     -0.425800    20A     -0.404349

  @DF-RHF Final Energy:  -211.21923997442147

   => Energetics <=

    Nuclear Repulsion Energy =            176.5460913252659907
    One-Electron Energy =                -634.1470448506698858
    Two-Electron Energy =                 246.3817135509824254
    Total Energy =                       -211.2192399744214697
  Basis Set: (AUG-CC-PVTZ AUX)
    Blend: AUG-CC-PVTZ-RI
    Molecular point group: c1

    Geometry (in Angstrom), charge = 0, multiplicity = 1:

       Center              X                  Y                   Z               Mass
    ------------   -----------------  -----------------  -----------------  -----------------
         N           -1.270854037739    -1.129484191118    -0.246877433452    14.003074004430
         C            0.872178962261    -0.410929191118     0.550701566548    12.000000000000
         C           -0.629903137739    -0.108986391118     0.062942266548    12.000000000000
         C            1.933030962261     0.196521808882    -0.372271433452    12.000000000000
         C           -0.962428037739     1.321004808882     0.052818566548    12.000000000000
         H            1.004563962261    -0.018517191118     1.567604566548     1.007825032230
         H            0.984241962261    -1.497362191118     0.595066566548     1.007825032230
         H            2.935258962261    -0.095358191118    -0.046898433452     1.007825032230
         H            1.891437962261     1.289071808882    -0.376756433452     1.007825032230
         H            1.794639962261    -0.156388191118    -1.398290433452     1.007825032230
         H           -0.736168037739     1.817313808882     1.002296566548     1.007825032230
         H           -0.425024037739     1.862249808882    -0.732473433452     1.007825032230
         H           -2.034724037739     1.409022808882    -0.142367433452     1.007825032230
         H           -2.198075037739    -0.794967191118    -0.540861433452     1.007825032230

  Basis Set: AUG-CC-PVTZ
    Blend: AUG-CC-PVTZ
  Basis Set: (AUG-CC-PVTZ AUX)
    Blend: AUG-CC-PVTZ-JKFIT
	 Reference Energy          =    -211.2192399744214697 [Eh]
	 Singles Energy            =      -0.0000000000000000 [Eh]
	 Same-Spin Energy          =      -0.2200733739807532 [Eh]
	 Opposite-Spin Energy      =      -0.7810617228617940 [Eh]
	 Correlation Energy        =      -1.0011350968425472 [Eh]
	 Total Energy              =    -212.2203750712640158 [Eh]

	 ================> DF-SCS-MP2 Energies <==================
	-----------------------------------------------------------
	 SCS Same-Spin Scale       =       0.3333333333333333 [-]
	 SCS Opposite-Spin Scale   =       1.2000000000000000 [-]
	 SCS Same-Spin Energy      =      -0.0733577913269177 [Eh]
	 SCS Opposite-Spin Energy  =      -0.9372740674341528 [Eh]
	 SCS Correlation Energy    =      -1.0106318587610705 [Eh]
	 SCS Total Energy          =    -212.2298718331825285 [Eh]
	-----------------------------------------------------------

  Dipole Moment: [D]
     X:     0.0590      Y:     2.4218      Z:     0.1648     Total:     2.4281

*** Psi4 exiting successfully. Buy a developer a beer!
