                               Psi4 1.4a3.dev225

  ==> Input File <==

--------------------------------------------------------------------------
#psi4
#
memory 32 gb

molecule  {
0 1
  N       -1.3248030    -1.1740260    -0.2505360
  C        0.8182300    -0.4554710     0.5470430
  C       -0.6599065    -0.1187482     0.0700059
  C        1.8790820     0.1519800    -0.3759300
  C       -1.0163770     1.2764630     0.0491600
  H        0.9506150    -0.0630590     1.5639460
  H        0.9302930    -1.5419040     0.5914080
  H        2.8813100    -0.1399000    -0.0505570
  H        1.8374890     1.2445300    -0.3804150
  H        1.7406910    -0.2009300    -1.4019490
  H       -0.7901170     1.7727720     0.9986380
  H       -0.4789730     1.8177080    -0.7361320
  H       -2.0886730     1.3644810    -0.1460260
  H       -2.2520240    -0.8395090    -0.5445200
units angstrom
no_reorient  #important for SAPT in psi4, default
symmetry c1  #important for SAPT in psi4, default
}

set PROPERTIES_ORIGIN ["COM"]
properties('MP2/aug-cc-pvtz', properties = ['dipole'])
--------------------------------------------------------------------------

    Molecular point group: c1
  Charge       = 0
  Multiplicity = 1
  Basis Set: AUG-CC-PVTZ
    Blend: AUG-CC-PVTZ
  Basis Set: (AUG-CC-PVTZ AUX)
    Blend: AUG-CC-PVTZ-JKFIT

    Orbital Energies [Eh]
    ---------------------

    Doubly Occupied:

       1A    -15.543857     2A    -11.285034     3A    -11.237032
       4A    -11.227048     5A    -11.219832     6A     -1.207403
       7A     -1.038371     8A     -0.997441     9A     -0.862241
      10A     -0.730215    11A     -0.653116    12A     -0.624151
      13A     -0.608304    14A     -0.586362    15A     -0.554854
      16A     -0.516095    17A     -0.491720    18A     -0.484249
      19A     -0.413800    20A     -0.410356

  @DF-RHF Final Energy:  -211.21856804530384

   => Energetics <=

    Nuclear Repulsion Energy =            176.4610654855490850
    One-Electron Energy =                -633.9763033686809877
    Two-Electron Energy =                 246.2966698378280910
    Total Energy =                       -211.2185680453038401
  Basis Set: (AUG-CC-PVTZ AUX)
    Blend: AUG-CC-PVTZ-RI
    Molecular point group: c1

    Geometry (in Angstrom), charge = 0, multiplicity = 1:

       Center              X                  Y                   Z               Mass
    ------------   -----------------  -----------------  -----------------  -----------------
         N           -1.274896996125    -1.135356422036    -0.248687762214    14.003074004430
         C            0.868136003875    -0.416801422036     0.548891237786    12.000000000000
         C           -0.610000496125    -0.080078622036     0.071854137786    12.000000000000
         C            1.928988003875     0.190649577964    -0.374081762214    12.000000000000
         C           -0.966470996125     1.315132577964     0.051008237786    12.000000000000
         H            1.000521003875    -0.024389422036     1.565794237786     1.007825032230
         H            0.980199003875    -1.503234422036     0.593256237786     1.007825032230
         H            2.931216003875    -0.101230422036    -0.048708762214     1.007825032230
         H            1.887395003875     1.283199577964    -0.378566762214     1.007825032230
         H            1.790597003875    -0.162260422036    -1.400100762214     1.007825032230
         H           -0.740210996125     1.811441577964     1.000486237786     1.007825032230
         H           -0.429066996125     1.856377577964    -0.734283762214     1.007825032230
         H           -2.038766996125     1.403150577964    -0.144177762214     1.007825032230
         H           -2.202117996125    -0.800839422036    -0.542671762214     1.007825032230

  Basis Set: AUG-CC-PVTZ
    Blend: AUG-CC-PVTZ
  Basis Set: (AUG-CC-PVTZ AUX)
    Blend: AUG-CC-PVTZ-JKFIT
	 Reference Energy          =    -211.2185680453038401 [Eh]
	 Singles Energy            =      -0.0000000000000000 [Eh]
	 Same-Spin Energy          =      -0.2209959263338302 [Eh]
	 Opposite-Spin Energy      =      -0.7829938960686440 [Eh]
	 Correlation Energy        =      -1.0039898224024741 [Eh]
	 Total Energy              =    -212.2225578677063140 [Eh]

	 ================> DF-SCS-MP2 Energies <==================
	-----------------------------------------------------------
	 SCS Same-Spin Scale       =       0.3333333333333333 [-]
	 SCS Opposite-Spin Scale   =       1.2000000000000000 [-]
	 SCS Same-Spin Energy      =      -0.0736653087779434 [Eh]
	 SCS Opposite-Spin Energy  =      -0.9395926752823728 [Eh]
	 SCS Correlation Energy    =      -1.0132579840603162 [Eh]
	 SCS Total Energy          =    -212.2318260293641572 [Eh]
	-----------------------------------------------------------

  Dipole Moment: [D]
     X:     0.1459      Y:     2.5149      Z:     0.1970     Total:     2.5268

*** Psi4 exiting successfully. Buy a developer a beer!
