                               Psi4 1.4a3.dev225

  ==> Input File <==

--------------------------------------------------------------------------
#psi4
#
memory 32 gb

molecule  {
0 1
  N       -1.3248030    -1.1740260    -0.2505360
  C        0.8182300    -0.4554710     0.5470430
  C       -0.5904330    -0.1723070     0.0896190
  C        1.8790820     0.1519800    -0.3759300
  C       -1.0163770     1.2764630     0.0491600
  H        0.9506150    -0.0630590     1.5639460
  H        0.9302930    -1.5419040     0.5914080
  H        2.8843013    -0.1479841    -0.0675825
  H        1.8374890     1.2445300    -0.3804150
  H        1.7406910    -0.2009300    -1.4019490
  H       -0.7901170     1.7727720     0.9986380
  H       -0.4789730     1.8177080    -0.7361320
  H       -2.0886730     1.3644810    -0.1460260
  H       -2.2520240    -0.8395090    -0.5445200
units angstrom
no_reorient  #important for SAPT in psi4, default
symmetry c1  #important for SAPT in psi4, default
}

set PROPERTIES_ORIGIN ["COM"]
properties('MP2/aug-cc-pvtz', properties = ['dipole'])
--------------------------------------------------------------------------

    Molecular point group: c1
  Charge       = 0
  Multiplicity = 1
  Basis Set: AUG-CC-PVTZ
    Blend: AUG-CC-PVTZ
  Basis Set: (AUG-CC-PVTZ AUX)
    Blend: AUG-CC-PVTZ-JKFIT

    Orbital Energies [Eh]
    ---------------------

    Doubly Occupied:

       1A    -15.541252     2A    -11.284855     3A    -11.236261
       4A    -11.227294     5A    -11.223265     6A     -1.204090
       7A     -1.043973     8A     -0.981693     9A     -0.876492
      10A     -0.731668    11A     -0.653754    12A     -0.617137
      13A     -0.604187    14A     -0.583293    15A     -0.554232
      16A     -0.522899    17A     -0.500009    18A     -0.489868
      19A     -0.411430    20A     -0.408673

  @DF-RHF Final Energy:  -211.22775237988054

   => Energetics <=

    Nuclear Repulsion Energy =            176.6328062187454009
    One-Electron Energy =                -634.3284639737547650
    Two-Electron Energy =                 246.4679053751288507
    Total Energy =                       -211.2277523798805419
  Basis Set: (AUG-CC-PVTZ AUX)
    Blend: AUG-CC-PVTZ-RI
    Molecular point group: c1

    Geometry (in Angstrom), charge = 0, multiplicity = 1:

       Center              X                  Y                   Z               Mass
    ------------   -----------------  -----------------  -----------------  -----------------
         N           -1.286669270113    -1.126198958779    -0.251757802062    14.003074004430
         C            0.856363729887    -0.407643958779     0.545821197938    12.000000000000
         C           -0.552299270113    -0.124479958779     0.088397197938    12.000000000000
         C            1.917215729887     0.199807041221    -0.377151802062    12.000000000000
         C           -0.978243270113     1.324290041221     0.047938197938    12.000000000000
         H            0.988748729887    -0.015231958779     1.562724197938     1.007825032230
         H            0.968426729887    -1.494076958779     0.590186197938     1.007825032230
         H            2.922435029887    -0.100157058779    -0.068804302062     1.007825032230
         H            1.875622729887     1.292357041221    -0.381636802062     1.007825032230
         H            1.778824729887    -0.153102958779    -1.403170802062     1.007825032230
         H           -0.751983270113     1.820599041221     0.997416197938     1.007825032230
         H           -0.440839270113     1.865535041221    -0.737353802062     1.007825032230
         H           -2.050539270113     1.412308041221    -0.147247802062     1.007825032230
         H           -2.213890270113    -0.791681958779    -0.545741802062     1.007825032230

  Basis Set: AUG-CC-PVTZ
    Blend: AUG-CC-PVTZ
  Basis Set: (AUG-CC-PVTZ AUX)
    Blend: AUG-CC-PVTZ-JKFIT
	 Reference Energy          =    -211.2277523798805419 [Eh]
	 Singles Energy            =      -0.0000000000000000 [Eh]
	 Same-Spin Energy          =      -0.2205067167177424 [Eh]
	 Opposite-Spin Energy      =      -0.7820830475570398 [Eh]
	 Correlation Energy        =      -1.0025897642747823 [Eh]
	 Total Energy              =    -212.2303421441553155 [Eh]

	 ================> DF-SCS-MP2 Energies <==================
	-----------------------------------------------------------
	 SCS Same-Spin Scale       =       0.3333333333333333 [-]
	 SCS Opposite-Spin Scale   =       1.2000000000000000 [-]
	 SCS Same-Spin Energy      =      -0.0735022389059141 [Eh]
	 SCS Opposite-Spin Energy  =      -0.9384996570684477 [Eh]
	 SCS Correlation Energy    =      -1.0120018959743620 [Eh]
	 SCS Total Energy          =    -212.2397542758548923 [Eh]
	-----------------------------------------------------------

  Dipole Moment: [D]
     X:     0.3458      Y:     2.3819      Z:     0.2295     Total:     2.4178

*** Psi4 exiting successfully. Buy a developer a beer!
