                               Psi4 1.4a3.dev225

  ==> Input File <==

--------------------------------------------------------------------------
#psi4
#
memory 32 gb

molecule  {
0 1
  N       -1.3248030    -1.1740260    -0.2505360
  C        0.8182300    -0.4554710     0.5470430
  C       -0.5904330    -0.1723070     0.0896190
  C        1.9318862     0.0024721    -0.3997098
  C       -1.0163770     1.2764630     0.0491600
  H        0.9506150    -0.0630590     1.5639460
  H        0.9302930    -1.5419040     0.5914080
  H        2.8813100    -0.1399000    -0.0505570
  H        1.8374890     1.2445300    -0.3804150
  H        1.7406910    -0.2009300    -1.4019490
  H       -0.7901170     1.7727720     0.9986380
  H       -0.4789730     1.8177080    -0.7361320
  H       -2.0886730     1.3644810    -0.1460260
  H       -2.2520240    -0.8395090    -0.5445200
units angstrom
no_reorient  #important for SAPT in psi4, default
symmetry c1  #important for SAPT in psi4, default
}

set PROPERTIES_ORIGIN ["COM"]
properties('MP2/aug-cc-pvtz', properties = ['dipole'])
--------------------------------------------------------------------------

    Molecular point group: c1
  Charge       = 0
  Multiplicity = 1
  Basis Set: AUG-CC-PVTZ
    Blend: AUG-CC-PVTZ
  Basis Set: (AUG-CC-PVTZ AUX)
    Blend: AUG-CC-PVTZ-JKFIT

    Orbital Energies [Eh]
    ---------------------

    Doubly Occupied:

       1A    -15.542986     2A    -11.286664     3A    -11.235872
       4A    -11.228409     5A    -11.227585     6A     -1.205233
       7A     -1.044228     8A     -0.983139     9A     -0.879337
      10A     -0.733335    11A     -0.652045    12A     -0.631322
      13A     -0.601910    14A     -0.585906    15A     -0.553300
      16A     -0.531180    17A     -0.512745    18A     -0.451817
      19A     -0.413726    20A     -0.409549

  @DF-RHF Final Energy:  -211.20454182257060

   => Energetics <=

    Nuclear Repulsion Energy =            176.2547227800717167
    One-Electron Energy =                -633.4979517389632520
    Two-Electron Energy =                 246.0386871363209593
    Total Energy =                       -211.2045418225706044
  Basis Set: (AUG-CC-PVTZ AUX)
    Blend: AUG-CC-PVTZ-RI
    Molecular point group: c1

    Geometry (in Angstrom), charge = 0, multiplicity = 1:

       Center              X                  Y                   Z               Mass
    ------------   -----------------  -----------------  -----------------  -----------------
         N           -1.295542277623    -1.101070782181    -0.247984259495    14.003074004430
         C            0.847490722377    -0.382515782181     0.549594740505    12.000000000000
         C           -0.561172277623    -0.099351782181     0.092170740505    12.000000000000
         C            1.961146922377     0.075427317819    -0.397158059495    12.000000000000
         C           -0.987116277623     1.349418217819     0.051711740505    12.000000000000
         H            0.979875722377     0.009896217819     1.566497740505     1.007825032230
         H            0.959553722377    -1.468948782181     0.593959740505     1.007825032230
         H            2.910570722377    -0.066944782181    -0.048005259495     1.007825032230
         H            1.866749722377     1.317485217819    -0.377863259495     1.007825032230
         H            1.769951722377    -0.127974782181    -1.399397259495     1.007825032230
         H           -0.760856277623     1.845727217819     1.001189740505     1.007825032230
         H           -0.449712277623     1.890663217819    -0.733580259495     1.007825032230
         H           -2.059412277623     1.437436217819    -0.143474259495     1.007825032230
         H           -2.222763277623    -0.766553782181    -0.541968259495     1.007825032230

  Basis Set: AUG-CC-PVTZ
    Blend: AUG-CC-PVTZ
  Basis Set: (AUG-CC-PVTZ AUX)
    Blend: AUG-CC-PVTZ-JKFIT
	 Reference Energy          =    -211.2045418225706044 [Eh]
	 Singles Energy            =      -0.0000000000000000 [Eh]
	 Same-Spin Energy          =      -0.2206990700198447 [Eh]
	 Opposite-Spin Energy      =      -0.7830944171055184 [Eh]
	 Correlation Energy        =      -1.0037934871253631 [Eh]
	 Total Energy              =    -212.2083353096959684 [Eh]

	 ================> DF-SCS-MP2 Energies <==================
	-----------------------------------------------------------
	 SCS Same-Spin Scale       =       0.3333333333333333 [-]
	 SCS Opposite-Spin Scale   =       1.2000000000000000 [-]
	 SCS Same-Spin Energy      =      -0.0735663566732816 [Eh]
	 SCS Opposite-Spin Energy  =      -0.9397133005266221 [Eh]
	 SCS Correlation Energy    =      -1.0132796571999036 [Eh]
	 SCS Total Energy          =    -212.2178214797705209 [Eh]
	-----------------------------------------------------------

  Dipole Moment: [D]
     X:     0.3103      Y:     2.2766      Z:     0.2254     Total:     2.3087

*** Psi4 exiting successfully. Buy a developer a beer!
