                               Psi4 1.4a3.dev225

  ==> Input File <==

--------------------------------------------------------------------------
#psi4
#
memory 32 gb

molecule  {
0 1
  N       -1.3248030    -1.1740260    -0.2505360
  C        0.8182300    -0.4554710     0.5470430
  C       -0.5904330    -0.1723070     0.0896190
  C        1.8790820     0.1519800    -0.3759300
  C       -1.0163770     1.2764630     0.0491600
  H        0.9506150    -0.0630590     1.5639460
  H        0.9302930    -1.5419040     0.5914080
  H        2.8813100    -0.1399000    -0.0505570
  H        1.8374890     1.2445300    -0.3804150
  H        1.7406910    -0.2009300    -1.4019490
  H       -0.8271473     1.7815868     1.0020854
  H       -0.4789730     1.8177080    -0.7361320
  H       -2.0886730     1.3644810    -0.1460260
  H       -2.2520240    -0.8395090    -0.5445200
units angstrom
no_reorient  #important for SAPT in psi4, default
symmetry c1  #important for SAPT in psi4, default
}

set PROPERTIES_ORIGIN ["COM"]
properties('MP2/aug-cc-pvtz', properties = ['dipole'])
--------------------------------------------------------------------------

    Molecular point group: c1
  Charge       = 0
  Multiplicity = 1
  Basis Set: AUG-CC-PVTZ
    Blend: AUG-CC-PVTZ
  Basis Set: (AUG-CC-PVTZ AUX)
    Blend: AUG-CC-PVTZ-JKFIT

    Orbital Energies [Eh]
    ---------------------

    Doubly Occupied:

       1A    -15.541449     2A    -11.284975     3A    -11.236084
       4A    -11.227101     5A    -11.223220     6A     -1.204138
       7A     -1.043885     8A     -0.981523     9A     -0.876346
      10A     -0.731980    11A     -0.654043    12A     -0.617045
      13A     -0.603945    14A     -0.583617    15A     -0.553340
      16A     -0.522673    17A     -0.500252    18A     -0.489241
      19A     -0.411628    20A     -0.408919

  @DF-RHF Final Energy:  -211.22763473146750

   => Energetics <=

    Nuclear Repulsion Energy =            176.6038268817704591
    One-Electron Energy =                -634.2721178082164215
    Two-Electron Energy =                 246.4406561949784304
    Total Energy =                       -211.2276347314675036
  Basis Set: (AUG-CC-PVTZ AUX)
    Blend: AUG-CC-PVTZ-RI
    Molecular point group: c1

    Geometry (in Angstrom), charge = 0, multiplicity = 1:

       Center              X                  Y                   Z               Mass
    ------------   -----------------  -----------------  -----------------  -----------------
         N           -1.286101762242    -1.126438585849    -0.252048108594    14.003074004430
         C            0.856931237758    -0.407883585849     0.545530891406    12.000000000000
         C           -0.551731762242    -0.124719585849     0.088106891406    12.000000000000
         C            1.917783237758     0.199567414151    -0.377442108594    12.000000000000
         C           -0.977675762242     1.324050414151     0.047647891406    12.000000000000
         H            0.989316237758    -0.015471585849     1.562433891406     1.007825032230
         H            0.968994237758    -1.494316585849     0.589895891406     1.007825032230
         H            2.920011237758    -0.092312585849    -0.052069108594     1.007825032230
         H            1.876190237758     1.292117414151    -0.381927108594     1.007825032230
         H            1.779392237758    -0.153342585849    -1.403461108594     1.007825032230
         H           -0.788446062242     1.829174214151     1.000573291406     1.007825032230
         H           -0.440271762242     1.865295414151    -0.737644108594     1.007825032230
         H           -2.049971762242     1.412068414151    -0.147538108594     1.007825032230
         H           -2.213322762242    -0.791921585849    -0.546032108594     1.007825032230

  Basis Set: AUG-CC-PVTZ
    Blend: AUG-CC-PVTZ
  Basis Set: (AUG-CC-PVTZ AUX)
    Blend: AUG-CC-PVTZ-JKFIT
	 Reference Energy          =    -211.2276347314675036 [Eh]
	 Singles Energy            =      -0.0000000000000000 [Eh]
	 Same-Spin Energy          =      -0.2204956397368216 [Eh]
	 Opposite-Spin Energy      =      -0.7820903806922914 [Eh]
	 Correlation Energy        =      -1.0025860204291130 [Eh]
	 Total Energy              =    -212.2302207518966100 [Eh]

	 ================> DF-SCS-MP2 Energies <==================
	-----------------------------------------------------------
	 SCS Same-Spin Scale       =       0.3333333333333333 [-]
	 SCS Opposite-Spin Scale   =       1.2000000000000000 [-]
	 SCS Same-Spin Energy      =      -0.0734985465789405 [Eh]
	 SCS Opposite-Spin Energy  =      -0.9385084568307497 [Eh]
	 SCS Correlation Energy    =      -1.0120070034096902 [Eh]
	 SCS Total Energy          =    -212.2396417348771820 [Eh]
	-----------------------------------------------------------

  Dipole Moment: [D]
     X:     0.3324      Y:     2.3845      Z:     0.2416     Total:     2.4196

*** Psi4 exiting successfully. Buy a developer a beer!
