                               Psi4 1.4a3.dev225

  ==> Input File <==

--------------------------------------------------------------------------
#psi4
#
memory 32 gb

molecule  {
0 1
  N       -1.3248030    -1.1740260    -0.2505360
  C        0.8182300    -0.4554710     0.5470430
  C       -0.5904330    -0.1723070     0.0896190
  C        1.8790820     0.1519800    -0.3759300
  C       -1.0163770     1.2764630     0.0491600
  H        0.9506150    -0.0630590     1.5639460
  H        0.9302930    -1.5419040     0.5914080
  H        2.8813100    -0.1399000    -0.0505570
  H        1.8374890     1.2445300    -0.3804150
  H        1.7432214    -0.1944771    -1.3831885
  H       -0.7901170     1.7727720     0.9986380
  H       -0.4789730     1.8177080    -0.7361320
  H       -2.0886730     1.3644810    -0.1460260
  H       -2.2520240    -0.8395090    -0.5445200
units angstrom
no_reorient  #important for SAPT in psi4, default
symmetry c1  #important for SAPT in psi4, default
}

set PROPERTIES_ORIGIN ["COM"]
properties('MP2/aug-cc-pvtz', properties = ['dipole'])
--------------------------------------------------------------------------

    Molecular point group: c1
  Charge       = 0
  Multiplicity = 1
  Basis Set: AUG-CC-PVTZ
    Blend: AUG-CC-PVTZ
  Basis Set: (AUG-CC-PVTZ AUX)
    Blend: AUG-CC-PVTZ-JKFIT

    Orbital Energies [Eh]
    ---------------------

    Doubly Occupied:

       1A    -15.541175     2A    -11.284716     3A    -11.236201
       4A    -11.226963     5A    -11.220853     6A     -1.204025
       7A     -1.044571     8A     -0.981873     9A     -0.877672
      10A     -0.731880    11A     -0.653715    12A     -0.617524
      13A     -0.604661    14A     -0.584313    15A     -0.554018
      16A     -0.523207    17A     -0.501795    18A     -0.489783
      19A     -0.411346    20A     -0.408540

  @DF-RHF Final Energy:  -211.22779477483724

   => Energetics <=

    Nuclear Repulsion Energy =            176.7188473543723717
    One-Electron Energy =                -634.4956212226092021
    Two-Electron Energy =                 246.5489790933995948
    Total Energy =                       -211.2277947748372355
  Basis Set: (AUG-CC-PVTZ AUX)
    Blend: AUG-CC-PVTZ-RI
    Molecular point group: c1

    Geometry (in Angstrom), charge = 0, multiplicity = 1:

       Center              X                  Y                   Z               Mass
    ------------   -----------------  -----------------  -----------------  -----------------
         N           -1.286662734533    -1.126405094014    -0.252265248958    14.003074004430
         C            0.856370265467    -0.407850094014     0.545313751042    12.000000000000
         C           -0.552292734533    -0.124686094014     0.087889751042    12.000000000000
         C            1.917222265467     0.199600905986    -0.377659248958    12.000000000000
         C           -0.978236734533     1.324083905986     0.047430751042    12.000000000000
         H            0.988755265467    -0.015438094014     1.562216751042     1.007825032230
         H            0.968433265467    -1.494283094014     0.589678751042     1.007825032230
         H            2.919450265467    -0.092279094014    -0.052286248958     1.007825032230
         H            1.875629265467     1.292150905986    -0.382144248958     1.007825032230
         H            1.781361665467    -0.146856194014    -1.384917748958     1.007825032230
         H           -0.751976734533     1.820392905986     0.996908751042     1.007825032230
         H           -0.440832734533     1.865328905986    -0.737861248958     1.007825032230
         H           -2.050532734533     1.412101905986    -0.147755248958     1.007825032230
         H           -2.213883734533    -0.791888094014    -0.546249248958     1.007825032230

  Basis Set: AUG-CC-PVTZ
    Blend: AUG-CC-PVTZ
  Basis Set: (AUG-CC-PVTZ AUX)
    Blend: AUG-CC-PVTZ-JKFIT
	 Reference Energy          =    -211.2277947748372355 [Eh]
	 Singles Energy            =      -0.0000000000000000 [Eh]
	 Same-Spin Energy          =      -0.2205148857271129 [Eh]
	 Opposite-Spin Energy      =      -0.7819764495631755 [Eh]
	 Correlation Energy        =      -1.0024913352902884 [Eh]
	 Total Energy              =    -212.2302861101275369 [Eh]

	 ================> DF-SCS-MP2 Energies <==================
	-----------------------------------------------------------
	 SCS Same-Spin Scale       =       0.3333333333333333 [-]
	 SCS Opposite-Spin Scale   =       1.2000000000000000 [-]
	 SCS Same-Spin Energy      =      -0.0735049619090376 [Eh]
	 SCS Opposite-Spin Energy  =      -0.9383717394758105 [Eh]
	 SCS Correlation Energy    =      -1.0118767013848482 [Eh]
	 SCS Total Energy          =    -212.2396714762220711 [Eh]
	-----------------------------------------------------------

  Dipole Moment: [D]
     X:     0.3485      Y:     2.3845      Z:     0.2238     Total:     2.4202

*** Psi4 exiting successfully. Buy a developer a beer!
