                               Psi4 1.4a3.dev225

  ==> Input File <==

--------------------------------------------------------------------------
#psi4
#
memory 32 gb

molecule  {
0 1
  N       -1.3248030    -1.1740260    -0.2505360
  C        0.8182300    -0.4554710     0.5470430
  C       -0.5519641    -0.2436776    -0.0457991
  C        1.8790820     0.1519800    -0.3759300
  C       -1.0163770     1.2764630     0.0491600
  H        0.9506150    -0.0630590     1.5639460
  H        0.9302930    -1.5419040     0.5914080
  H        2.8813100    -0.1399000    -0.0505570
  H        1.8374890     1.2445300    -0.3804150
  H        1.7406910    -0.2009300    -1.4019490
  H       -0.7901170     1.7727720     0.9986380
  H       -0.4789730     1.8177080    -0.7361320
  H       -2.0886730     1.3644810    -0.1460260
  H       -2.2520240    -0.8395090    -0.5445200
units angstrom
no_reorient  #important for SAPT in psi4, default
symmetry c1  #important for SAPT in psi4, default
}

set PROPERTIES_ORIGIN ["COM"]
properties('MP2/aug-cc-pvtz', properties = ['dipole'])
--------------------------------------------------------------------------

    Molecular point group: c1
  Charge       = 0
  Multiplicity = 1
  Basis Set: AUG-CC-PVTZ
    Blend: AUG-CC-PVTZ
  Basis Set: (AUG-CC-PVTZ AUX)
    Blend: AUG-CC-PVTZ-JKFIT

    Orbital Energies [Eh]
    ---------------------

    Doubly Occupied:

       1A    -15.538974     2A    -11.280066     3A    -11.233686
       4A    -11.226301     5A    -11.221302     6A     -1.228620
       7A     -1.045684     8A     -0.964343     9A     -0.873786
      10A     -0.736862    11A     -0.653320    12A     -0.618676
      13A     -0.601083    14A     -0.576087    15A     -0.548285
      16A     -0.524079    17A     -0.510649    18A     -0.484448
      19A     -0.429735    20A     -0.394400

  @DF-RHF Final Energy:  -211.21615877352681

   => Energetics <=

    Nuclear Repulsion Energy =            176.9270659580585345
    One-Electron Energy =                -634.9056806849202985
    Two-Electron Energy =                 246.7624559533349782
    Total Energy =                       -211.2161587735268142
  Basis Set: (AUG-CC-PVTZ AUX)
    Blend: AUG-CC-PVTZ-RI
    Molecular point group: c1

    Geometry (in Angstrom), charge = 0, multiplicity = 1:

       Center              X                  Y                   Z               Mass
    ------------   -----------------  -----------------  -----------------  -----------------
         N           -1.293121915580    -1.114263429361    -0.229135326865    14.003074004430
         C            0.849911084420    -0.395708429361     0.568443673135    12.000000000000
         C           -0.520283015580    -0.183915029361    -0.024398426865    12.000000000000
         C            1.910763084420     0.211742570639    -0.354529326865    12.000000000000
         C           -0.984695915580     1.336225570639     0.070560673135    12.000000000000
         H            0.982296084420    -0.003296429361     1.585346673135     1.007825032230
         H            0.961974084420    -1.482141429361     0.612808673135     1.007825032230
         H            2.912991084420    -0.080137429361    -0.029156326865     1.007825032230
         H            1.869170084420     1.304292570639    -0.359014326865     1.007825032230
         H            1.772372084420    -0.141167429361    -1.380548326865     1.007825032230
         H           -0.758435915580     1.832534570639     1.020038673135     1.007825032230
         H           -0.447291915580     1.877470570639    -0.714731326865     1.007825032230
         H           -2.056991915580     1.424243570639    -0.124625326865     1.007825032230
         H           -2.220342915580    -0.779746429361    -0.523119326865     1.007825032230

  Basis Set: AUG-CC-PVTZ
    Blend: AUG-CC-PVTZ
  Basis Set: (AUG-CC-PVTZ AUX)
    Blend: AUG-CC-PVTZ-JKFIT
	 Reference Energy          =    -211.2161587735268142 [Eh]
	 Singles Energy            =      -0.0000000000000000 [Eh]
	 Same-Spin Energy          =      -0.2196628648011910 [Eh]
	 Opposite-Spin Energy      =      -0.7806758935090680 [Eh]
	 Correlation Energy        =      -1.0003387583102590 [Eh]
	 Total Energy              =    -212.2164975318370637 [Eh]

	 ================> DF-SCS-MP2 Energies <==================
	-----------------------------------------------------------
	 SCS Same-Spin Scale       =       0.3333333333333333 [-]
	 SCS Opposite-Spin Scale   =       1.2000000000000000 [-]
	 SCS Same-Spin Energy      =      -0.0732209549337303 [Eh]
	 SCS Opposite-Spin Energy  =      -0.9368110722108816 [Eh]
	 SCS Correlation Energy    =      -1.0100320271446119 [Eh]
	 SCS Total Energy          =    -212.2261908006714179 [Eh]
	-----------------------------------------------------------

  Dipole Moment: [D]
     X:     0.2813      Y:     2.1051      Z:     0.2329     Total:     2.1366

*** Psi4 exiting successfully. Buy a developer a beer!
