                               Psi4 1.4a3.dev225

  ==> Input File <==

--------------------------------------------------------------------------
#psi4
#
memory 32 gb

molecule  {
0 1
  N       -1.3248030    -1.1740260    -0.2505360
  C        0.8182300    -0.4554710     0.5470430
  C       -0.5904330    -0.1723070     0.0896190
  C        1.8790820     0.1519800    -0.3759300
  C       -1.0163770     1.2764630     0.0491600
  H        0.9506150    -0.0630590     1.5639460
  H        0.9302930    -1.5419040     0.5914080
  H        2.8569895    -0.0896165     0.0493353
  H        1.8374890     1.2445300    -0.3804150
  H        1.7406910    -0.2009300    -1.4019490
  H       -0.7901170     1.7727720     0.9986380
  H       -0.4789730     1.8177080    -0.7361320
  H       -2.0886730     1.3644810    -0.1460260
  H       -2.2520240    -0.8395090    -0.5445200
units angstrom
no_reorient  #important for SAPT in psi4, default
symmetry c1  #important for SAPT in psi4, default
}

set PROPERTIES_ORIGIN ["COM"]
properties('MP2/aug-cc-pvtz', properties = ['dipole'])
--------------------------------------------------------------------------

    Molecular point group: c1
  Charge       = 0
  Multiplicity = 1
  Basis Set: AUG-CC-PVTZ
    Blend: AUG-CC-PVTZ
  Basis Set: (AUG-CC-PVTZ AUX)
    Blend: AUG-CC-PVTZ-JKFIT

    Orbital Energies [Eh]
    ---------------------

    Doubly Occupied:

       1A    -15.540879     2A    -11.284153     3A    -11.235975
       4A    -11.226665     5A    -11.223617     6A     -1.203746
       7A     -1.044576     8A     -0.981585     9A     -0.875487
      10A     -0.731455    11A     -0.652787    12A     -0.619331
      13A     -0.605222    14A     -0.583516    15A     -0.552620
      16A     -0.521255    17A     -0.503957    18A     -0.487098
      19A     -0.410973    20A     -0.408058

  @DF-RHF Final Energy:  -211.22655515019568

   => Energetics <=

    Nuclear Repulsion Energy =            176.6905447590551717
    One-Electron Energy =                -634.4482866894933295
    Two-Electron Energy =                 246.5311867802424786
    Total Energy =                       -211.2265551501956793
  Basis Set: (AUG-CC-PVTZ AUX)
    Blend: AUG-CC-PVTZ-RI
    Molecular point group: c1

    Geometry (in Angstrom), charge = 0, multiplicity = 1:

       Center              X                  Y                   Z               Mass
    ------------   -----------------  -----------------  -----------------  -----------------
         N           -1.286281987709    -1.127026613656    -0.253415701092    14.003074004430
         C            0.856751012291    -0.408471613656     0.544163298908    12.000000000000
         C           -0.551911987709    -0.125307613656     0.086739298908    12.000000000000
         C            1.917603012291     0.198979386344    -0.378809701092    12.000000000000
         C           -0.977855987709     1.323462386344     0.046280298908    12.000000000000
         H            0.989136012291    -0.016059613656     1.561066298908     1.007825032230
         H            0.968814012291    -1.494904613656     0.588528298908     1.007825032230
         H            2.895510512291    -0.042617113656     0.046455598908     1.007825032230
         H            1.876010012291     1.291529386344    -0.383294701092     1.007825032230
         H            1.779212012291    -0.153930613656    -1.404828701092     1.007825032230
         H           -0.751595987709     1.819771386344     0.995758298908     1.007825032230
         H           -0.440451987709     1.864707386344    -0.739011701092     1.007825032230
         H           -2.050151987709     1.411480386344    -0.148905701092     1.007825032230
         H           -2.213502987709    -0.792509613656    -0.547399701092     1.007825032230

  Basis Set: AUG-CC-PVTZ
    Blend: AUG-CC-PVTZ
  Basis Set: (AUG-CC-PVTZ AUX)
    Blend: AUG-CC-PVTZ-JKFIT
	 Reference Energy          =    -211.2265551501956793 [Eh]
	 Singles Energy            =      -0.0000000000000000 [Eh]
	 Same-Spin Energy          =      -0.2205692258687198 [Eh]
	 Opposite-Spin Energy      =      -0.7821916511080041 [Eh]
	 Correlation Energy        =      -1.0027608769767240 [Eh]
	 Total Energy              =    -212.2293160271724162 [Eh]

	 ================> DF-SCS-MP2 Energies <==================
	-----------------------------------------------------------
	 SCS Same-Spin Scale       =       0.3333333333333333 [-]
	 SCS Opposite-Spin Scale   =       1.2000000000000000 [-]
	 SCS Same-Spin Energy      =      -0.0735230752895733 [Eh]
	 SCS Opposite-Spin Energy  =      -0.9386299813296050 [Eh]
	 SCS Correlation Energy    =      -1.0121530566191783 [Eh]
	 SCS Total Energy          =    -212.2387082068148629 [Eh]
	-----------------------------------------------------------

  Dipole Moment: [D]
     X:     0.3493      Y:     2.4093      Z:     0.2609     Total:     2.4485

*** Psi4 exiting successfully. Buy a developer a beer!
