                               Psi4 1.4a3.dev225

  ==> Input File <==

--------------------------------------------------------------------------
#psi4
#
memory 32 gb

molecule  {
0 1
  N       -1.3248030    -1.1740260    -0.2505360
  C        0.8182300    -0.4554710     0.5470430
  C       -0.5904330    -0.1723070     0.0896190
  C        1.8790820     0.1519800    -0.3759300
  C       -1.0163770     1.2764630     0.0491600
  H        0.9506150    -0.0630590     1.5639460
  H        0.9282426    -1.5220259     0.5905963
  H        2.8813100    -0.1399000    -0.0505570
  H        1.8374890     1.2445300    -0.3804150
  H        1.7406910    -0.2009300    -1.4019490
  H       -0.7901170     1.7727720     0.9986380
  H       -0.4789730     1.8177080    -0.7361320
  H       -2.0886730     1.3644810    -0.1460260
  H       -2.2520240    -0.8395090    -0.5445200
units angstrom
no_reorient  #important for SAPT in psi4, default
symmetry c1  #important for SAPT in psi4, default
}

set PROPERTIES_ORIGIN ["COM"]
properties('MP2/aug-cc-pvtz', properties = ['dipole'])
--------------------------------------------------------------------------

    Molecular point group: c1
  Charge       = 0
  Multiplicity = 1
  Basis Set: AUG-CC-PVTZ
    Blend: AUG-CC-PVTZ
  Basis Set: (AUG-CC-PVTZ AUX)
    Blend: AUG-CC-PVTZ-JKFIT

    Orbital Energies [Eh]
    ---------------------

    Doubly Occupied:

       1A    -15.541178     2A    -11.284640     3A    -11.236065
       4A    -11.224907     5A    -11.223153     6A     -1.204101
       7A     -1.044678     8A     -0.981753     9A     -0.877122
      10A     -0.732567    11A     -0.654669    12A     -0.617310
      13A     -0.604687    14A     -0.583200    15A     -0.554051
      16A     -0.522825    17A     -0.500621    18A     -0.491921
      19A     -0.411285    20A     -0.408575

  @DF-RHF Final Energy:  -211.22787376829908

   => Energetics <=

    Nuclear Repulsion Energy =            176.7300758148402622
    One-Electron Energy =                -634.5172823437654870
    Two-Electron Energy =                 246.5593327606261767
    Total Energy =                       -211.2278737682990766
  Basis Set: (AUG-CC-PVTZ AUX)
    Blend: AUG-CC-PVTZ-RI
    Molecular point group: c1

    Geometry (in Angstrom), charge = 0, multiplicity = 1:

       Center              X                  Y                   Z               Mass
    ------------   -----------------  -----------------  -----------------  -----------------
         N           -1.286597778608    -1.126595463881    -0.251987714387    14.003074004430
         C            0.856435221392    -0.408040463881     0.545591285613    12.000000000000
         C           -0.552227778608    -0.124876463881     0.088167285613    12.000000000000
         C            1.917287221392     0.199410536119    -0.377381714387    12.000000000000
         C           -0.978171778608     1.323893536119     0.047708285613    12.000000000000
         H            0.988820221392    -0.015628463881     1.562494285613     1.007825032230
         H            0.966447821392    -1.474595363881     0.589144585613     1.007825032230
         H            2.919515221392    -0.092469463881    -0.052008714387     1.007825032230
         H            1.875694221392     1.291960536119    -0.381866714387     1.007825032230
         H            1.778896221392    -0.153499463881    -1.403400714387     1.007825032230
         H           -0.751911778608     1.820202536119     0.997186285613     1.007825032230
         H           -0.440767778608     1.865138536119    -0.737583714387     1.007825032230
         H           -2.050467778608     1.411911536119    -0.147477714387     1.007825032230
         H           -2.213818778608    -0.792078463881    -0.545971714387     1.007825032230

  Basis Set: AUG-CC-PVTZ
    Blend: AUG-CC-PVTZ
  Basis Set: (AUG-CC-PVTZ AUX)
    Blend: AUG-CC-PVTZ-JKFIT
	 Reference Energy          =    -211.2278737682990766 [Eh]
	 Singles Energy            =      -0.0000000000000000 [Eh]
	 Same-Spin Energy          =      -0.2204838627759497 [Eh]
	 Opposite-Spin Energy      =      -0.7819317210790969 [Eh]
	 Correlation Energy        =      -1.0024155838550466 [Eh]
	 Total Energy              =    -212.2302893521541307 [Eh]

	 ================> DF-SCS-MP2 Energies <==================
	-----------------------------------------------------------
	 SCS Same-Spin Scale       =       0.3333333333333333 [-]
	 SCS Opposite-Spin Scale   =       1.2000000000000000 [-]
	 SCS Same-Spin Energy      =      -0.0734946209253166 [Eh]
	 SCS Opposite-Spin Energy  =      -0.9383180652949162 [Eh]
	 SCS Correlation Energy    =      -1.0118126862202328 [Eh]
	 SCS Total Energy          =    -212.2396864545193012 [Eh]
	-----------------------------------------------------------

  Dipole Moment: [D]
     X:     0.3499      Y:     2.3785      Z:     0.2378     Total:     2.4158

*** Psi4 exiting successfully. Buy a developer a beer!
