                               Psi4 1.4a3.dev225

  ==> Input File <==

--------------------------------------------------------------------------
#psi4
#
memory 32 gb

molecule  {
0 1
  N       -1.3248030    -1.1740260    -0.2505360
  C        0.8182300    -0.4554710     0.5470430
  C       -0.5904330    -0.1723070     0.0896190
  C        1.8098248     0.1123229    -0.3156742
  C       -1.0163770     1.2764630     0.0491600
  H        0.9506150    -0.0630590     1.5639460
  H        0.9302930    -1.5419040     0.5914080
  H        2.8813100    -0.1399000    -0.0505570
  H        1.8374890     1.2445300    -0.3804150
  H        1.7406910    -0.2009300    -1.4019490
  H       -0.7901170     1.7727720     0.9986380
  H       -0.4789730     1.8177080    -0.7361320
  H       -2.0886730     1.3644810    -0.1460260
  H       -2.2520240    -0.8395090    -0.5445200
units angstrom
no_reorient  #important for SAPT in psi4, default
symmetry c1  #important for SAPT in psi4, default
}

set PROPERTIES_ORIGIN ["COM"]
properties('MP2/aug-cc-pvtz', properties = ['dipole'])
--------------------------------------------------------------------------

    Molecular point group: c1
  Charge       = 0
  Multiplicity = 1
  Basis Set: AUG-CC-PVTZ
    Blend: AUG-CC-PVTZ
  Basis Set: (AUG-CC-PVTZ AUX)
    Blend: AUG-CC-PVTZ-JKFIT

    Orbital Energies [Eh]
    ---------------------

    Doubly Occupied:

       1A    -15.542247     2A    -11.285530     3A    -11.236468
       4A    -11.228707     5A    -11.223121     6A     -1.205987
       7A     -1.061450     8A     -0.983897     9A     -0.866737
      10A     -0.735242    11A     -0.656762    12A     -0.619034
      13A     -0.608605    14A     -0.582169    15A     -0.554241
      16A     -0.542910    17A     -0.486096    18A     -0.473012
      19A     -0.411790    20A     -0.411038

  @DF-RHF Final Energy:  -211.21631304820099

   => Energetics <=

    Nuclear Repulsion Energy =            177.8966601998323540
    One-Electron Energy =                -636.7958617672884429
    Two-Electron Energy =                 247.6828885192551013
    Total Energy =                       -211.2163130482009876
  Basis Set: (AUG-CC-PVTZ AUX)
    Blend: AUG-CC-PVTZ-RI
    Molecular point group: c1

    Geometry (in Angstrom), charge = 0, multiplicity = 1:

       Center              X                  Y                   Z               Mass
    ------------   -----------------  -----------------  -----------------  -----------------
         N           -1.274933516066    -1.119617914560    -0.262172771529    14.003074004430
         C            0.868099483934    -0.401062914560     0.535406228471    12.000000000000
         C           -0.540563516066    -0.117898914560     0.077982228471    12.000000000000
         C            1.859694283934     0.166730985440    -0.327310971529    12.000000000000
         C           -0.966507516066     1.330871085440     0.037523228471    12.000000000000
         H            1.000484483934    -0.008650914560     1.552309228471     1.007825032230
         H            0.980162483934    -1.487495914560     0.579771228471     1.007825032230
         H            2.931179483934    -0.085491914560    -0.062193771529     1.007825032230
         H            1.887358483934     1.298938085440    -0.392051771529     1.007825032230
         H            1.790560483934    -0.146521914560    -1.413585771529     1.007825032230
         H           -0.740247516066     1.827180085440     0.987001228471     1.007825032230
         H           -0.429103516066     1.872116085440    -0.747768771529     1.007825032230
         H           -2.038803516066     1.418889085440    -0.157662771529     1.007825032230
         H           -2.202154516066    -0.785100914560    -0.556156771529     1.007825032230

  Basis Set: AUG-CC-PVTZ
    Blend: AUG-CC-PVTZ
  Basis Set: (AUG-CC-PVTZ AUX)
    Blend: AUG-CC-PVTZ-JKFIT
	 Reference Energy          =    -211.2163130482009876 [Eh]
	 Singles Energy            =      -0.0000000000000000 [Eh]
	 Same-Spin Energy          =      -0.2214496292308988 [Eh]
	 Opposite-Spin Energy      =      -0.7832590129759811 [Eh]
	 Correlation Energy        =      -1.0047086422068798 [Eh]
	 Total Energy              =    -212.2210216904078663 [Eh]

	 ================> DF-SCS-MP2 Energies <==================
	-----------------------------------------------------------
	 SCS Same-Spin Scale       =       0.3333333333333333 [-]
	 SCS Opposite-Spin Scale   =       1.2000000000000000 [-]
	 SCS Same-Spin Energy      =      -0.0738165430769663 [Eh]
	 SCS Opposite-Spin Energy  =      -0.9399108155711773 [Eh]
	 SCS Correlation Energy    =      -1.0137273586481435 [Eh]
	 SCS Total Energy          =    -212.2300404068491275 [Eh]
	-----------------------------------------------------------

  Dipole Moment: [D]
     X:     0.3064      Y:     2.3700      Z:     0.2498     Total:     2.4027

*** Psi4 exiting successfully. Buy a developer a beer!
