                               Psi4 1.4a3.dev225

  ==> Input File <==

--------------------------------------------------------------------------
#psi4
#
memory 32 gb

molecule  {
0 1
  N       -1.3248030    -1.1740260    -0.2505360
  C        0.8182300    -0.4554710     0.5470430
  C       -0.5904330    -0.1723070     0.0896190
  C        1.8790820     0.1519800    -0.3759300
  C       -1.0163770     1.2764630     0.0491600
  H        0.9506150    -0.0630590     1.5639460
  H        0.9302930    -1.5419040     0.5914080
  H        2.8813100    -0.1399000    -0.0505570
  H        1.8374890     1.2445300    -0.3804150
  H        1.7343649    -0.2170622    -1.4488503
  H       -0.7901170     1.7727720     0.9986380
  H       -0.4789730     1.8177080    -0.7361320
  H       -2.0886730     1.3644810    -0.1460260
  H       -2.2520240    -0.8395090    -0.5445200
units angstrom
no_reorient  #important for SAPT in psi4, default
symmetry c1  #important for SAPT in psi4, default
}

set PROPERTIES_ORIGIN ["COM"]
properties('MP2/aug-cc-pvtz', properties = ['dipole'])
--------------------------------------------------------------------------

    Molecular point group: c1
  Charge       = 0
  Multiplicity = 1
  Basis Set: AUG-CC-PVTZ
    Blend: AUG-CC-PVTZ
  Basis Set: (AUG-CC-PVTZ AUX)
    Blend: AUG-CC-PVTZ-JKFIT

    Orbital Energies [Eh]
    ---------------------

    Doubly Occupied:

       1A    -15.541283     2A    -11.284892     3A    -11.236288
       4A    -11.229442     5A    -11.227726     6A     -1.204106
       7A     -1.042981     8A     -0.981267     9A     -0.873344
      10A     -0.731090    11A     -0.653394    12A     -0.617157
      13A     -0.603747    14A     -0.580703    15A     -0.554227
      16A     -0.521613    17A     -0.498028    18A     -0.488146
      19A     -0.411455    20A     -0.408748

  @DF-RHF Final Energy:  -211.22575038421104

   => Energetics <=

    Nuclear Repulsion Energy =            176.4515274351294920
    One-Electron Energy =                -633.9752831282529542
    Two-Electron Energy =                 246.2980053089124226
    Total Energy =                       -211.2257503842110395
  Basis Set: (AUG-CC-PVTZ AUX)
    Blend: AUG-CC-PVTZ-RI
    Molecular point group: c1

    Geometry (in Angstrom), charge = 0, multiplicity = 1:

       Center              X                  Y                   Z               Mass
    ------------   -----------------  -----------------  -----------------  -----------------
         N           -1.286537149013    -1.126084836402    -0.251334162035    14.003074004430
         C            0.856495850987    -0.407529836402     0.546244837965    12.000000000000
         C           -0.552167149013    -0.124365836402     0.088820837965    12.000000000000
         C            1.917347850987     0.199921163598    -0.376728162035    12.000000000000
         C           -0.978111149013     1.324404163598     0.048361837965    12.000000000000
         H            0.988880850987    -0.015117836402     1.563147837965     1.007825032230
         H            0.968558850987    -1.493962836402     0.590609837965     1.007825032230
         H            2.919575850987    -0.091958836402    -0.051355162035     1.007825032230
         H            1.875754850987     1.292471163598    -0.381213162035     1.007825032230
         H            1.772630750987    -0.169121036402    -1.449648462035     1.007825032230
         H           -0.751851149013     1.820713163598     0.997839837965     1.007825032230
         H           -0.440707149013     1.865649163598    -0.736930162035     1.007825032230
         H           -2.050407149013     1.412422163598    -0.146824162035     1.007825032230
         H           -2.213758149013    -0.791567836402    -0.545318162035     1.007825032230

  Basis Set: AUG-CC-PVTZ
    Blend: AUG-CC-PVTZ
  Basis Set: (AUG-CC-PVTZ AUX)
    Blend: AUG-CC-PVTZ-JKFIT
	 Reference Energy          =    -211.2257503842110395 [Eh]
	 Singles Energy            =      -0.0000000000000000 [Eh]
	 Same-Spin Energy          =      -0.2204874685979213 [Eh]
	 Opposite-Spin Energy      =      -0.7823973901718687 [Eh]
	 Correlation Energy        =      -1.0028848587697901 [Eh]
	 Total Energy              =    -212.2286352429808289 [Eh]

	 ================> DF-SCS-MP2 Energies <==================
	-----------------------------------------------------------
	 SCS Same-Spin Scale       =       0.3333333333333333 [-]
	 SCS Opposite-Spin Scale   =       1.2000000000000000 [-]
	 SCS Same-Spin Energy      =      -0.0734958228659738 [Eh]
	 SCS Opposite-Spin Energy  =      -0.9388768682062424 [Eh]
	 SCS Correlation Energy    =      -1.0123726910722162 [Eh]
	 SCS Total Energy          =    -212.2381230752832550 [Eh]
	-----------------------------------------------------------

  Dipole Moment: [D]
     X:     0.3414      Y:     2.3900      Z:     0.2637     Total:     2.4286

*** Psi4 exiting successfully. Buy a developer a beer!
