                               Psi4 1.4a3.dev225

  ==> Input File <==

--------------------------------------------------------------------------
#psi4
#
memory 32 gb

molecule  {
0 1
  N       -1.3248030    -1.1740260    -0.2505360
  C        0.8182300    -0.4554710     0.5470430
  C       -0.5904330    -0.1723070     0.0896190
  C        1.8790820     0.1519800    -0.3759300
  C       -1.0163770     1.2764630     0.0491600
  H        0.9506150    -0.0630590     1.5639460
  H        0.9302930    -1.5419040     0.5914080
  H        2.8813100    -0.1399000    -0.0505570
  H        1.8374890     1.2445300    -0.3804150
  H        1.7280388    -0.2331944    -1.4957516
  H       -0.7901170     1.7727720     0.9986380
  H       -0.4789730     1.8177080    -0.7361320
  H       -2.0886730     1.3644810    -0.1460260
  H       -2.2520240    -0.8395090    -0.5445200
units angstrom
no_reorient  #important for SAPT in psi4, default
symmetry c1  #important for SAPT in psi4, default
}

set PROPERTIES_ORIGIN ["COM"]
properties('MP2/aug-cc-pvtz', properties = ['dipole'])
--------------------------------------------------------------------------

    Molecular point group: c1
  Charge       = 0
  Multiplicity = 1
  Basis Set: AUG-CC-PVTZ
    Blend: AUG-CC-PVTZ
  Basis Set: (AUG-CC-PVTZ AUX)
    Blend: AUG-CC-PVTZ-JKFIT

    Orbital Energies [Eh]
    ---------------------

    Doubly Occupied:

       1A    -15.541380     2A    -11.285048     3A    -11.236369
       4A    -11.235279     5A    -11.228446     6A     -1.204192
       7A     -1.042256     8A     -0.980981     9A     -0.870892
      10A     -0.730687    11A     -0.653296    12A     -0.617101
      13A     -0.603384    14A     -0.578489    15A     -0.554446
      16A     -0.521030    17A     -0.496224    18A     -0.484900
      19A     -0.411550    20A     -0.408919

  @DF-RHF Final Energy:  -211.22139923405609

   => Energetics <=

    Nuclear Repulsion Energy =            176.2741884864029203
    One-Electron Energy =                -633.6214374311655320
    Two-Electron Energy =                 246.1258497107065182
    Total Energy =                       -211.2213992340560935
  Basis Set: (AUG-CC-PVTZ AUX)
    Blend: AUG-CC-PVTZ-RI
    Molecular point group: c1

    Geometry (in Angstrom), charge = 0, multiplicity = 1:

       Center              X                  Y                   Z               Mass
    ------------   -----------------  -----------------  -----------------  -----------------
         N           -1.286447444664    -1.125856081168    -0.250669099746    14.003074004430
         C            0.856585555336    -0.407301081168     0.546909900254    12.000000000000
         C           -0.552077444664    -0.124137081168     0.089485900254    12.000000000000
         C            1.917437555336     0.200149918832    -0.376063099746    12.000000000000
         C           -0.978021444664     1.324632918832     0.049026900254    12.000000000000
         H            0.988970555336    -0.014889081168     1.563812900254     1.007825032230
         H            0.968648555336    -1.493734081168     0.591274900254     1.007825032230
         H            2.919665555336    -0.091730081168    -0.050690099746     1.007825032230
         H            1.875844555336     1.292699918832    -0.380548099746     1.007825032230
         H            1.766394355336    -0.185024481168    -1.495884699746     1.007825032230
         H           -0.751761444664     1.820941918832     0.998504900254     1.007825032230
         H           -0.440617444664     1.865877918832    -0.736265099746     1.007825032230
         H           -2.050317444664     1.412650918832    -0.146159099746     1.007825032230
         H           -2.213668444664    -0.791339081168    -0.544653099746     1.007825032230

  Basis Set: AUG-CC-PVTZ
    Blend: AUG-CC-PVTZ
  Basis Set: (AUG-CC-PVTZ AUX)
    Blend: AUG-CC-PVTZ-JKFIT
	 Reference Energy          =    -211.2213992340560935 [Eh]
	 Singles Energy            =      -0.0000000000000000 [Eh]
	 Same-Spin Energy          =      -0.2204704354193597 [Eh]
	 Opposite-Spin Energy      =      -0.7827550776801726 [Eh]
	 Correlation Energy        =      -1.0032255130995322 [Eh]
	 Total Energy              =    -212.2246247471556160 [Eh]

	 ================> DF-SCS-MP2 Energies <==================
	-----------------------------------------------------------
	 SCS Same-Spin Scale       =       0.3333333333333333 [-]
	 SCS Opposite-Spin Scale   =       1.2000000000000000 [-]
	 SCS Same-Spin Energy      =      -0.0734901451397866 [Eh]
	 SCS Opposite-Spin Energy  =      -0.9393060932162071 [Eh]
	 SCS Correlation Energy    =      -1.0127962383559936 [Eh]
	 SCS Total Energy          =    -212.2341954724120967 [Eh]
	-----------------------------------------------------------

  Dipole Moment: [D]
     X:     0.3357      Y:     2.3947      Z:     0.2964     Total:     2.4363

*** Psi4 exiting successfully. Buy a developer a beer!
