                               Psi4 1.4a3.dev225

  ==> Input File <==

--------------------------------------------------------------------------
#psi4
#
memory 32 gb

molecule  {
0 1
  N       -1.3248030    -1.1740260    -0.2505360
  C        0.8182300    -0.4554710     0.5470430
  C       -0.5334081    -0.0945221     0.1160325
  C        1.8790820     0.1519800    -0.3759300
  C       -1.0163770     1.2764630     0.0491600
  H        0.9506150    -0.0630590     1.5639460
  H        0.9302930    -1.5419040     0.5914080
  H        2.8813100    -0.1399000    -0.0505570
  H        1.8374890     1.2445300    -0.3804150
  H        1.7406910    -0.2009300    -1.4019490
  H       -0.7901170     1.7727720     0.9986380
  H       -0.4789730     1.8177080    -0.7361320
  H       -2.0886730     1.3644810    -0.1460260
  H       -2.2520240    -0.8395090    -0.5445200
units angstrom
no_reorient  #important for SAPT in psi4, default
symmetry c1  #important for SAPT in psi4, default
}

set PROPERTIES_ORIGIN ["COM"]
properties('MP2/aug-cc-pvtz', properties = ['dipole'])
--------------------------------------------------------------------------

    Molecular point group: c1
  Charge       = 0
  Multiplicity = 1
  Basis Set: AUG-CC-PVTZ
    Blend: AUG-CC-PVTZ
  Basis Set: (AUG-CC-PVTZ AUX)
    Blend: AUG-CC-PVTZ-JKFIT

    Orbital Energies [Eh]
    ---------------------

    Doubly Occupied:

       1A    -15.544307     2A    -11.294717     3A    -11.238590
       4A    -11.230128     5A    -11.226031     6A     -1.175153
       7A     -1.045324     8A     -0.993911     9A     -0.884061
      10A     -0.734038    11A     -0.653183    12A     -0.622881
      13A     -0.603940    14A     -0.584540    15A     -0.563187
      16A     -0.523066    17A     -0.503208    18A     -0.489695
      19A     -0.416769    20A     -0.376901

  @DF-RHF Final Energy:  -211.20576222270861

   => Energetics <=

    Nuclear Repulsion Energy =            176.5713403318710277
    One-Electron Energy =                -634.1469481885231971
    Two-Electron Energy =                 246.3698456339435268
    Total Energy =                       -211.2057622227086142
  Basis Set: (AUG-CC-PVTZ AUX)
    Blend: AUG-CC-PVTZ-RI
    Molecular point group: c1

    Geometry (in Angstrom), charge = 0, multiplicity = 1:

       Center              X                  Y                   Z               Mass
    ------------   -----------------  -----------------  -----------------  -----------------
         N           -1.296254897664    -1.139446739846    -0.256458861224    14.003074004430
         C            0.846778102336    -0.420891739846     0.541120138776    12.000000000000
         C           -0.504859997664    -0.059942839846     0.110109638776    12.000000000000
         C            1.907630102336     0.186559260154    -0.381852861224    12.000000000000
         C           -0.987828897664     1.311042260154     0.043237138776    12.000000000000
         H            0.979163102336    -0.028479739846     1.558023138776     1.007825032230
         H            0.958841102336    -1.507324739846     0.585485138776     1.007825032230
         H            2.909858102336    -0.105320739846    -0.056479861224     1.007825032230
         H            1.866037102336     1.279109260154    -0.386337861224     1.007825032230
         H            1.769239102336    -0.166350739846    -1.407871861224     1.007825032230
         H           -0.761568897664     1.807351260154     0.992715138776     1.007825032230
         H           -0.450424897664     1.852287260154    -0.742054861224     1.007825032230
         H           -2.060124897664     1.399060260154    -0.151948861224     1.007825032230
         H           -2.223475897664    -0.804929739846    -0.550442861224     1.007825032230

  Basis Set: AUG-CC-PVTZ
    Blend: AUG-CC-PVTZ
  Basis Set: (AUG-CC-PVTZ AUX)
    Blend: AUG-CC-PVTZ-JKFIT
	 Reference Energy          =    -211.2057622227086142 [Eh]
	 Singles Energy            =      -0.0000000000000000 [Eh]
	 Same-Spin Energy          =      -0.2233623450642182 [Eh]
	 Opposite-Spin Energy      =      -0.7876363890649063 [Eh]
	 Correlation Energy        =      -1.0109987341291244 [Eh]
	 Total Energy              =    -212.2167609568377316 [Eh]

	 ================> DF-SCS-MP2 Energies <==================
	-----------------------------------------------------------
	 SCS Same-Spin Scale       =       0.3333333333333333 [-]
	 SCS Opposite-Spin Scale   =       1.2000000000000000 [-]
	 SCS Same-Spin Energy      =      -0.0744541150214061 [Eh]
	 SCS Opposite-Spin Energy  =      -0.9451636668778876 [Eh]
	 SCS Correlation Energy    =      -1.0196177818992935 [Eh]
	 SCS Total Energy          =    -212.2253800046078993 [Eh]
	-----------------------------------------------------------

  Dipole Moment: [D]
     X:     0.4975      Y:     2.5698      Z:     0.2907     Total:     2.6336

*** Psi4 exiting successfully. Buy a developer a beer!
