                               Psi4 1.4a3.dev225

  ==> Input File <==

--------------------------------------------------------------------------
#psi4
#
memory 32 gb

molecule  {
0 1
  N       -1.3248030    -1.1740260    -0.2505360
  C        0.8182300    -0.4554710     0.5470430
  C       -0.5904330    -0.1723070     0.0896190
  C        1.9156147     0.0529478    -0.3929252
  C       -1.0163770     1.2764630     0.0491600
  H        0.9506150    -0.0630590     1.5639460
  H        0.9302930    -1.5419040     0.5914080
  H        2.8813100    -0.1399000    -0.0505570
  H        1.8374890     1.2445300    -0.3804150
  H        1.7406910    -0.2009300    -1.4019490
  H       -0.7901170     1.7727720     0.9986380
  H       -0.4789730     1.8177080    -0.7361320
  H       -2.0886730     1.3644810    -0.1460260
  H       -2.2520240    -0.8395090    -0.5445200
units angstrom
no_reorient  #important for SAPT in psi4, default
symmetry c1  #important for SAPT in psi4, default
}

set PROPERTIES_ORIGIN ["COM"]
properties('MP2/aug-cc-pvtz', properties = ['dipole'])
--------------------------------------------------------------------------

    Molecular point group: c1
  Charge       = 0
  Multiplicity = 1
  Basis Set: AUG-CC-PVTZ
    Blend: AUG-CC-PVTZ
  Basis Set: (AUG-CC-PVTZ AUX)
    Blend: AUG-CC-PVTZ-JKFIT

    Orbital Energies [Eh]
    ---------------------

    Doubly Occupied:

       1A    -15.542302     2A    -11.285924     3A    -11.235957
       4A    -11.227504     5A    -11.225192     6A     -1.204726
       7A     -1.043764     8A     -0.982559     9A     -0.877778
      10A     -0.732427    11A     -0.652334    12A     -0.625188
      13A     -0.601697    14A     -0.584240    15A     -0.554849
      16A     -0.527740    17A     -0.509975    18A     -0.466091
      19A     -0.412843    20A     -0.409428

  @DF-RHF Final Energy:  -211.21685102179305

   => Energetics <=

    Nuclear Repulsion Energy =            176.3788948064107558
    One-Electron Energy =                -633.7864559774645841
    Two-Electron Energy =                 246.1907101492607808
    Total Energy =                       -211.2168510217930475
  Basis Set: (AUG-CC-PVTZ AUX)
    Blend: AUG-CC-PVTZ-RI
    Molecular point group: c1

    Geometry (in Angstrom), charge = 0, multiplicity = 1:

       Center              X                  Y                   Z               Mass
    ------------   -----------------  -----------------  -----------------  -----------------
         N           -1.292795008923    -1.109593064129    -0.249129766623    14.003074004430
         C            0.850237991077    -0.391038064129     0.548449233377    12.000000000000
         C           -0.558425008923    -0.107874064129     0.091025233377    12.000000000000
         C            1.947622691077     0.117380735871    -0.391518966623    12.000000000000
         C           -0.984369008923     1.340895935871     0.050566233377    12.000000000000
         H            0.982622991077     0.001373935871     1.565352233377     1.007825032230
         H            0.962300991077    -1.477471064129     0.592814233377     1.007825032230
         H            2.913317991077    -0.075467064129    -0.049150766623     1.007825032230
         H            1.869496991077     1.308962935871    -0.379008766623     1.007825032230
         H            1.772698991077    -0.136497064129    -1.400542766623     1.007825032230
         H           -0.758109008923     1.837204935871     1.000044233377     1.007825032230
         H           -0.446965008923     1.882140935871    -0.734725766623     1.007825032230
         H           -2.056665008923     1.428913935871    -0.144619766623     1.007825032230
         H           -2.220016008923    -0.775076064129    -0.543113766623     1.007825032230

  Basis Set: AUG-CC-PVTZ
    Blend: AUG-CC-PVTZ
  Basis Set: (AUG-CC-PVTZ AUX)
    Blend: AUG-CC-PVTZ-JKFIT
	 Reference Energy          =    -211.2168510217930475 [Eh]
	 Singles Energy            =      -0.0000000000000000 [Eh]
	 Same-Spin Energy          =      -0.2205529771196174 [Eh]
	 Opposite-Spin Energy      =      -0.7825038249072476 [Eh]
	 Correlation Energy        =      -1.0030568020268649 [Eh]
	 Total Energy              =    -212.2199078238199093 [Eh]

	 ================> DF-SCS-MP2 Energies <==================
	-----------------------------------------------------------
	 SCS Same-Spin Scale       =       0.3333333333333333 [-]
	 SCS Opposite-Spin Scale   =       1.2000000000000000 [-]
	 SCS Same-Spin Energy      =      -0.0735176590398725 [Eh]
	 SCS Opposite-Spin Energy  =      -0.9390045898886971 [Eh]
	 SCS Correlation Energy    =      -1.0125222489285695 [Eh]
	 SCS Total Energy          =    -212.2293732707216236 [Eh]
	-----------------------------------------------------------

  Dipole Moment: [D]
     X:     0.3282      Y:     2.3205      Z:     0.2250     Total:     2.3544

*** Psi4 exiting successfully. Buy a developer a beer!
