                               Psi4 1.4a3.dev225

  ==> Input File <==

--------------------------------------------------------------------------
#psi4
#
memory 32 gb

molecule  {
0 1
  N       -1.3248030    -1.1740260    -0.2505360
  C        0.8182300    -0.4554710     0.5470430
  C       -0.5904330    -0.1723070     0.0896190
  C        1.8790820     0.1519800    -0.3759300
  C       -1.0163770     1.2764630     0.0491600
  H        0.9506150    -0.0630590     1.5639460
  H        0.9302930    -1.5419040     0.5914080
  H        2.8744125    -0.1234676    -0.0168085
  H        1.8374890     1.2445300    -0.3804150
  H        1.7406910    -0.2009300    -1.4019490
  H       -0.7901170     1.7727720     0.9986380
  H       -0.4789730     1.8177080    -0.7361320
  H       -2.0886730     1.3644810    -0.1460260
  H       -2.2520240    -0.8395090    -0.5445200
units angstrom
no_reorient  #important for SAPT in psi4, default
symmetry c1  #important for SAPT in psi4, default
}

set PROPERTIES_ORIGIN ["COM"]
properties('MP2/aug-cc-pvtz', properties = ['dipole'])
--------------------------------------------------------------------------

    Molecular point group: c1
  Charge       = 0
  Multiplicity = 1
  Basis Set: AUG-CC-PVTZ
    Blend: AUG-CC-PVTZ
  Basis Set: (AUG-CC-PVTZ AUX)
    Blend: AUG-CC-PVTZ-JKFIT

    Orbital Energies [Eh]
    ---------------------

    Doubly Occupied:

       1A    -15.541099     2A    -11.284566     3A    -11.236144
       4A    -11.227004     5A    -11.223406     6A     -1.203948
       7A     -1.044192     8A     -0.981640     9A     -0.876016
      10A     -0.731555    11A     -0.653305    12A     -0.617927
      13A     -0.604651    14A     -0.583232    15A     -0.553663
      16A     -0.522173    17A     -0.501981    18A     -0.488803
      19A     -0.411251    20A     -0.408432

  @DF-RHF Final Energy:  -211.22765791602927

   => Energetics <=

    Nuclear Repulsion Energy =            176.6554573409419504
    One-Electron Energy =                -634.3762570811666137
    Two-Electron Energy =                 246.4931418241953907
    Total Energy =                       -211.2276579160292727
  Basis Set: (AUG-CC-PVTZ AUX)
    Blend: AUG-CC-PVTZ-RI
    Molecular point group: c1

    Geometry (in Angstrom), charge = 0, multiplicity = 1:

       Center              X                  Y                   Z               Mass
    ------------   -----------------  -----------------  -----------------  -----------------
         N           -1.286529046538    -1.126546603719    -0.252477779391    14.003074004430
         C            0.856503953462    -0.407991603719     0.545101220609    12.000000000000
         C           -0.552159046538    -0.124827603719     0.087677220609    12.000000000000
         C            1.917355953462     0.199459396281    -0.377871779391    12.000000000000
         C           -0.978103046538     1.323942396281     0.047218220609    12.000000000000
         H            0.988888953462    -0.015579603719     1.562004220609     1.007825032230
         H            0.968566953462    -1.494424603719     0.589466220609     1.007825032230
         H            2.912686453462    -0.075988203719    -0.018750279391     1.007825032230
         H            1.875762953462     1.292009396281    -0.382356779391     1.007825032230
         H            1.778964953462    -0.153450603719    -1.403890779391     1.007825032230
         H           -0.751843046538     1.820251396281     0.996696220609     1.007825032230
         H           -0.440699046538     1.865187396281    -0.738073779391     1.007825032230
         H           -2.050399046538     1.411960396281    -0.147967779391     1.007825032230
         H           -2.213750046538    -0.792029603719    -0.546461779391     1.007825032230

  Basis Set: AUG-CC-PVTZ
    Blend: AUG-CC-PVTZ
  Basis Set: (AUG-CC-PVTZ AUX)
    Blend: AUG-CC-PVTZ-JKFIT
	 Reference Energy          =    -211.2276579160292727 [Eh]
	 Singles Energy            =      -0.0000000000000000 [Eh]
	 Same-Spin Energy          =      -0.2205144332122486 [Eh]
	 Opposite-Spin Energy      =      -0.7821035893893635 [Eh]
	 Correlation Energy        =      -1.0026180226016121 [Eh]
	 Total Energy              =    -212.2302759386308821 [Eh]

	 ================> DF-SCS-MP2 Energies <==================
	-----------------------------------------------------------
	 SCS Same-Spin Scale       =       0.3333333333333333 [-]
	 SCS Opposite-Spin Scale   =       1.2000000000000000 [-]
	 SCS Same-Spin Energy      =      -0.0735048110707495 [Eh]
	 SCS Opposite-Spin Energy  =      -0.9385243072672362 [Eh]
	 SCS Correlation Energy    =      -1.0120291183379857 [Eh]
	 SCS Total Energy          =    -212.2396870343672504 [Eh]
	-----------------------------------------------------------

  Dipole Moment: [D]
     X:     0.3479      Y:     2.3938      Z:     0.2439     Total:     2.4312

*** Psi4 exiting successfully. Buy a developer a beer!
