                               Psi4 1.4a3.dev225

  ==> Input File <==

--------------------------------------------------------------------------
#psi4
#
memory 32 gb

molecule  {
0 1
  N       -1.3248030    -1.1740260    -0.2505360
  C        0.8182300    -0.4554710     0.5470430
  C       -0.5904330    -0.1723070     0.0896190
  C        1.8790820     0.1519800    -0.3759300
  C       -1.0163770     1.2764630     0.0491600
  H        0.9506150    -0.0630590     1.5639460
  H        0.9302930    -1.5419040     0.5914080
  H        2.8813100    -0.1399000    -0.0505570
  H        1.8374890     1.2445300    -0.3804150
  H        1.7406910    -0.2009300    -1.4019490
  H       -0.7901170     1.7727720     0.9986380
  H       -0.4789730     1.8177080    -0.7361320
  H       -2.0886730     1.3644810    -0.1460260
  H       -2.2970949    -0.8232486    -0.5588102
units angstrom
no_reorient  #important for SAPT in psi4, default
symmetry c1  #important for SAPT in psi4, default
}

set PROPERTIES_ORIGIN ["COM"]
properties('MP2/aug-cc-pvtz', properties = ['dipole'])
--------------------------------------------------------------------------

    Molecular point group: c1
  Charge       = 0
  Multiplicity = 1
  Basis Set: AUG-CC-PVTZ
    Blend: AUG-CC-PVTZ
  Basis Set: (AUG-CC-PVTZ AUX)
    Blend: AUG-CC-PVTZ-JKFIT

    Orbital Energies [Eh]
    ---------------------

    Doubly Occupied:

       1A    -15.547183     2A    -11.284715     3A    -11.236056
       4A    -11.227802     5A    -11.223534     6A     -1.200242
       7A     -1.042527     8A     -0.981117     9A     -0.875040
      10A     -0.726110    11A     -0.649665    12A     -0.616725
      13A     -0.603578    14A     -0.582615    15A     -0.554069
      16A     -0.522749    17A     -0.500780    18A     -0.489674
      19A     -0.409484    20A     -0.408477

  @DF-RHF Final Energy:  -211.22415875294385

   => Energetics <=

    Nuclear Repulsion Energy =            176.4067282575394700
    One-Electron Energy =                -633.8974938255124698
    Two-Electron Energy =                 246.2666068150291210
    Total Energy =                       -211.2241587529438505
  Basis Set: (AUG-CC-PVTZ AUX)
    Blend: AUG-CC-PVTZ-RI
    Molecular point group: c1

    Geometry (in Angstrom), charge = 0, multiplicity = 1:

       Center              X                  Y                   Z               Mass
    ------------   -----------------  -----------------  -----------------  -----------------
         N           -1.285987746216    -1.126544164752    -0.251796588724    14.003074004430
         C            0.857045253784    -0.407989164752     0.545782411276    12.000000000000
         C           -0.551617746216    -0.124825164752     0.088358411276    12.000000000000
         C            1.917897253784     0.199461835248    -0.377190588724    12.000000000000
         C           -0.977561746216     1.323944835248     0.047899411276    12.000000000000
         H            0.989430253784    -0.015577164752     1.562685411276     1.007825032230
         H            0.969108253784    -1.494422164752     0.590147411276     1.007825032230
         H            2.920125253784    -0.092418164752    -0.051817588724     1.007825032230
         H            1.876304253784     1.292011835248    -0.381675588724     1.007825032230
         H            1.779506253784    -0.153448164752    -1.403209588724     1.007825032230
         H           -0.751301746216     1.820253835248     0.997377411276     1.007825032230
         H           -0.440157746216     1.865189835248    -0.737392588724     1.007825032230
         H           -2.049857746216     1.411962835248    -0.147286588724     1.007825032230
         H           -2.258279646216    -0.775766764752    -0.560070788724     1.007825032230

  Basis Set: AUG-CC-PVTZ
    Blend: AUG-CC-PVTZ
  Basis Set: (AUG-CC-PVTZ AUX)
    Blend: AUG-CC-PVTZ-JKFIT
	 Reference Energy          =    -211.2241587529438505 [Eh]
	 Singles Energy            =      -0.0000000000000000 [Eh]
	 Same-Spin Energy          =      -0.2208427367873784 [Eh]
	 Opposite-Spin Energy      =      -0.7831255546908705 [Eh]
	 Correlation Energy        =      -1.0039682914782488 [Eh]
	 Total Energy              =    -212.2281270444221093 [Eh]

	 ================> DF-SCS-MP2 Energies <==================
	-----------------------------------------------------------
	 SCS Same-Spin Scale       =       0.3333333333333333 [-]
	 SCS Opposite-Spin Scale   =       1.2000000000000000 [-]
	 SCS Same-Spin Energy      =      -0.0736142455957928 [Eh]
	 SCS Opposite-Spin Energy  =      -0.9397506656290446 [Eh]
	 SCS Correlation Energy    =      -1.0133649112248375 [Eh]
	 SCS Total Energy          =    -212.2375236641686911 [Eh]
	-----------------------------------------------------------

  Dipole Moment: [D]
     X:     0.3677      Y:     2.3785      Z:     0.2392     Total:     2.4186

*** Psi4 exiting successfully. Buy a developer a beer!
