                               Psi4 1.4a3.dev225

  ==> Input File <==

--------------------------------------------------------------------------
#psi4
#
memory 32 gb

molecule  {
0 1
  N       -1.3248030    -1.1740260    -0.2505360
  C        0.8182300    -0.4554710     0.5470430
  C       -0.5904330    -0.1723070     0.0896190
  C        2.0175963     0.2312942    -0.4964416
  C       -1.0163770     1.2764630     0.0491600
  H        0.9506150    -0.0630590     1.5639460
  H        0.9302930    -1.5419040     0.5914080
  H        2.8813100    -0.1399000    -0.0505570
  H        1.8374890     1.2445300    -0.3804150
  H        1.7406910    -0.2009300    -1.4019490
  H       -0.7901170     1.7727720     0.9986380
  H       -0.4789730     1.8177080    -0.7361320
  H       -2.0886730     1.3644810    -0.1460260
  H       -2.2520240    -0.8395090    -0.5445200
units angstrom
no_reorient  #important for SAPT in psi4, default
symmetry c1  #important for SAPT in psi4, default
}

set PROPERTIES_ORIGIN ["COM"]
properties('MP2/aug-cc-pvtz', properties = ['dipole'])
--------------------------------------------------------------------------

    Molecular point group: c1
  Charge       = 0
  Multiplicity = 1
  Basis Set: AUG-CC-PVTZ
    Blend: AUG-CC-PVTZ
  Basis Set: (AUG-CC-PVTZ AUX)
    Blend: AUG-CC-PVTZ-JKFIT

    Orbital Energies [Eh]
    ---------------------

    Doubly Occupied:

       1A    -15.539517     2A    -11.284214     3A    -11.235938
       4A    -11.233183     5A    -11.222439     6A     -1.201717
       7A     -1.023897     8A     -0.977882     9A     -0.891289
      10A     -0.726800    11A     -0.650482    12A     -0.619583
      13A     -0.608415    14A     -0.588058    15A     -0.572905
      16A     -0.519671    17A     -0.504468    18A     -0.469855
      19A     -0.410901    20A     -0.395325

  @DF-RHF Final Energy:  -211.20162917055336

   => Energetics <=

    Nuclear Repulsion Energy =            174.3525429985250526
    One-Electron Energy =                -629.7552629286544743
    Two-Electron Energy =                 244.2010907595760614
    Total Energy =                       -211.2016291705533604
  Basis Set: (AUG-CC-PVTZ AUX)
    Blend: AUG-CC-PVTZ-RI
    Molecular point group: c1

    Geometry (in Angstrom), charge = 0, multiplicity = 1:

       Center              X                  Y                   Z               Mass
    ------------   -----------------  -----------------  -----------------  -----------------
         N           -1.310013511068    -1.139704945790    -0.231652129918    14.003074004430
         C            0.833019488932    -0.421149945790     0.565926870082    12.000000000000
         C           -0.575643511068    -0.137985945790     0.108502870082    12.000000000000
         C            2.032385788932     0.265615254210    -0.477557729918    12.000000000000
         C           -1.001587511068     1.310784054210     0.068043870082    12.000000000000
         H            0.965404488932    -0.028737945790     1.582829870082     1.007825032230
         H            0.945082488932    -1.507582945790     0.610291870082     1.007825032230
         H            2.896099488932    -0.105578945790    -0.031673129918     1.007825032230
         H            1.852278488932     1.278851054210    -0.361531129918     1.007825032230
         H            1.755480488932    -0.166608945790    -1.383065129918     1.007825032230
         H           -0.775327511068     1.807093054210     1.017521870082     1.007825032230
         H           -0.464183511068     1.852029054210    -0.717248129918     1.007825032230
         H           -2.073883511068     1.398802054210    -0.127142129918     1.007825032230
         H           -2.237234511068    -0.805187945790    -0.525636129918     1.007825032230

  Basis Set: AUG-CC-PVTZ
    Blend: AUG-CC-PVTZ
  Basis Set: (AUG-CC-PVTZ AUX)
    Blend: AUG-CC-PVTZ-JKFIT
	 Reference Energy          =    -211.2016291705533604 [Eh]
	 Singles Energy            =      -0.0000000000000000 [Eh]
	 Same-Spin Energy          =      -0.2205651744837119 [Eh]
	 Opposite-Spin Energy      =      -0.7832456383326339 [Eh]
	 Correlation Energy        =      -1.0038108128163459 [Eh]
	 Total Energy              =    -212.2054399833697005 [Eh]

	 ================> DF-SCS-MP2 Energies <==================
	-----------------------------------------------------------
	 SCS Same-Spin Scale       =       0.3333333333333333 [-]
	 SCS Opposite-Spin Scale   =       1.2000000000000000 [-]
	 SCS Same-Spin Energy      =      -0.0735217248279040 [Eh]
	 SCS Opposite-Spin Energy  =      -0.9398947659991607 [Eh]
	 SCS Correlation Energy    =      -1.0134164908270646 [Eh]
	 SCS Total Energy          =    -212.2150456613804295 [Eh]
	-----------------------------------------------------------

  Dipole Moment: [D]
     X:     0.3648      Y:     2.3815      Z:     0.2495     Total:     2.4222

*** Psi4 exiting successfully. Buy a developer a beer!
