                               Psi4 1.4a3.dev225

  ==> Input File <==

--------------------------------------------------------------------------
#psi4
#
memory 32 gb

molecule  {
0 1
  N       -1.3248030    -1.1740260    -0.2505360
  C        0.8182300    -0.4554710     0.5470430
  C       -0.5437234    -0.1816964     0.1047866
  C        1.8790820     0.1519800    -0.3759300
  C       -1.0163770     1.2764630     0.0491600
  H        0.9506150    -0.0630590     1.5639460
  H        0.9302930    -1.5419040     0.5914080
  H        2.8813100    -0.1399000    -0.0505570
  H        1.8374890     1.2445300    -0.3804150
  H        1.7406910    -0.2009300    -1.4019490
  H       -0.7901170     1.7727720     0.9986380
  H       -0.4789730     1.8177080    -0.7361320
  H       -2.0886730     1.3644810    -0.1460260
  H       -2.2520240    -0.8395090    -0.5445200
units angstrom
no_reorient  #important for SAPT in psi4, default
symmetry c1  #important for SAPT in psi4, default
}

set PROPERTIES_ORIGIN ["COM"]
properties('MP2/aug-cc-pvtz', properties = ['dipole'])
--------------------------------------------------------------------------

    Molecular point group: c1
  Charge       = 0
  Multiplicity = 1
  Basis Set: AUG-CC-PVTZ
    Blend: AUG-CC-PVTZ
  Basis Set: (AUG-CC-PVTZ AUX)
    Blend: AUG-CC-PVTZ-JKFIT

    Orbital Energies [Eh]
    ---------------------

    Doubly Occupied:

       1A    -15.541359     2A    -11.287544     3A    -11.236435
       4A    -11.227471     5A    -11.225757     6A     -1.194791
       7A     -1.049409     8A     -0.976344     9A     -0.885537
      10A     -0.732591    11A     -0.655379    12A     -0.618013
      13A     -0.600022    14A     -0.581753    15A     -0.555254
      16A     -0.526453    17A     -0.507119    18A     -0.491349
      19A     -0.408776    20A     -0.399777

  @DF-RHF Final Energy:  -211.22304702916603

   => Energetics <=

    Nuclear Repulsion Energy =            176.7133745913834559
    One-Electron Energy =                -634.4705759578183688
    Two-Electron Energy =                 246.5341543372688875
    Total Energy =                       -211.2230470291660254
  Basis Set: (AUG-CC-PVTZ AUX)
    Blend: AUG-CC-PVTZ-RI
    Molecular point group: c1

    Geometry (in Angstrom), charge = 0, multiplicity = 1:

       Center              X                  Y                   Z               Mass
    ------------   -----------------  -----------------  -----------------  -----------------
         N           -1.294513269614    -1.124728291896    -0.254560111320    14.003074004430
         C            0.848519730386    -0.406173291896     0.543018888680    12.000000000000
         C           -0.513433669614    -0.132398691896     0.100762488680    12.000000000000
         C            1.909371730386     0.201277708104    -0.379954111320    12.000000000000
         C           -0.986087269614     1.325760708104     0.045135888680    12.000000000000
         H            0.980904730386    -0.013761291896     1.559921888680     1.007825032230
         H            0.960582730386    -1.492606291896     0.587383888680     1.007825032230
         H            2.911599730386    -0.090602291896    -0.054581111320     1.007825032230
         H            1.867778730386     1.293827708104    -0.384439111320     1.007825032230
         H            1.770980730386    -0.151632291896    -1.405973111320     1.007825032230
         H           -0.759827269614     1.822069708104     0.994613888680     1.007825032230
         H           -0.448683269614     1.867005708104    -0.740156111320     1.007825032230
         H           -2.058383269614     1.413778708104    -0.150050111320     1.007825032230
         H           -2.221734269614    -0.790211291896    -0.548544111320     1.007825032230

  Basis Set: AUG-CC-PVTZ
    Blend: AUG-CC-PVTZ
  Basis Set: (AUG-CC-PVTZ AUX)
    Blend: AUG-CC-PVTZ-JKFIT
	 Reference Energy          =    -211.2230470291660254 [Eh]
	 Singles Energy            =      -0.0000000000000000 [Eh]
	 Same-Spin Energy          =      -0.2211389840000791 [Eh]
	 Opposite-Spin Energy      =      -0.7833318106193952 [Eh]
	 Correlation Energy        =      -1.0044707946194742 [Eh]
	 Total Energy              =    -212.2275178237854902 [Eh]

	 ================> DF-SCS-MP2 Energies <==================
	-----------------------------------------------------------
	 SCS Same-Spin Scale       =       0.3333333333333333 [-]
	 SCS Opposite-Spin Scale   =       1.2000000000000000 [-]
	 SCS Same-Spin Energy      =      -0.0737129946666930 [Eh]
	 SCS Opposite-Spin Energy  =      -0.9399981727432741 [Eh]
	 SCS Correlation Energy    =      -1.0137111674099673 [Eh]
	 SCS Total Energy          =    -212.2367581965760053 [Eh]
	-----------------------------------------------------------

  Dipole Moment: [D]
     X:     0.4891      Y:     2.3698      Z:     0.2681     Total:     2.4345

*** Psi4 exiting successfully. Buy a developer a beer!
