                               Psi4 1.4a3.dev225

  ==> Input File <==

--------------------------------------------------------------------------
#psi4
#
memory 32 gb

molecule  {
0 1
  N       -1.3248030    -1.1740260    -0.2505360
  C        0.8182300    -0.4554710     0.5470430
  C       -0.5904330    -0.1723070     0.0896190
  C        1.8790820     0.1519800    -0.3759300
  C       -1.0163770     1.2764630     0.0491600
  H        0.9506150    -0.0630590     1.5639460
  H        0.9097893    -1.3431235     0.5832907
  H        2.8813100    -0.1399000    -0.0505570
  H        1.8374890     1.2445300    -0.3804150
  H        1.7406910    -0.2009300    -1.4019490
  H       -0.7901170     1.7727720     0.9986380
  H       -0.4789730     1.8177080    -0.7361320
  H       -2.0886730     1.3644810    -0.1460260
  H       -2.2520240    -0.8395090    -0.5445200
units angstrom
no_reorient  #important for SAPT in psi4, default
symmetry c1  #important for SAPT in psi4, default
}

set PROPERTIES_ORIGIN ["COM"]
properties('MP2/aug-cc-pvtz', properties = ['dipole'])
--------------------------------------------------------------------------

    Molecular point group: c1
  Charge       = 0
  Multiplicity = 1
  Basis Set: AUG-CC-PVTZ
    Blend: AUG-CC-PVTZ
  Basis Set: (AUG-CC-PVTZ AUX)
    Blend: AUG-CC-PVTZ-JKFIT

    Orbital Energies [Eh]
    ---------------------

    Doubly Occupied:

       1A    -15.541163     2A    -11.283933     3A    -11.234979
       4A    -11.222474     5A    -11.203641     6A     -1.205163
       7A     -1.054286     8A     -0.983200     9A     -0.887391
      10A     -0.744718    11A     -0.665159    12A     -0.617152
      13A     -0.607902    14A     -0.583008    15A     -0.554233
      16A     -0.527312    17A     -0.507311    18A     -0.499958
      19A     -0.410709    20A     -0.408558

  @DF-RHF Final Energy:  -211.19419784024745

   => Energetics <=

    Nuclear Repulsion Energy =            177.6569847376241000
    One-Electron Energy =                -636.2178676710663012
    Two-Electron Energy =                 247.3666850931947465
    Total Energy =                       -211.1941978402474547
  Basis Set: (AUG-CC-PVTZ AUX)
    Blend: AUG-CC-PVTZ-RI
    Molecular point group: c1

    Geometry (in Angstrom), charge = 0, multiplicity = 1:

       Center              X                  Y                   Z               Mass
    ------------   -----------------  -----------------  -----------------  -----------------
         N           -1.286336110084    -1.129132306992    -0.251884120690    14.003074004430
         C            0.856696889916    -0.410577306992     0.545694879310    12.000000000000
         C           -0.551966110084    -0.127413306992     0.088270879310    12.000000000000
         C            1.917548889916     0.196873693008    -0.377278120690    12.000000000000
         C           -0.977910110084     1.321356693008     0.047811879310    12.000000000000
         H            0.989081889916    -0.018165306992     1.562597879310     1.007825032230
         H            0.948256189916    -1.298229806992     0.581942579310     1.007825032230
         H            2.919776889916    -0.095006306992    -0.051905120690     1.007825032230
         H            1.875955889916     1.289423693008    -0.381763120690     1.007825032230
         H            1.779157889916    -0.156036306992    -1.403297120690     1.007825032230
         H           -0.751650110084     1.817665693008     0.997289879310     1.007825032230
         H           -0.440506110084     1.862601693008    -0.737480120690     1.007825032230
         H           -2.050206110084     1.409374693008    -0.147374120690     1.007825032230
         H           -2.213557110084    -0.794615306992    -0.545868120690     1.007825032230

  Basis Set: AUG-CC-PVTZ
    Blend: AUG-CC-PVTZ
  Basis Set: (AUG-CC-PVTZ AUX)
    Blend: AUG-CC-PVTZ-JKFIT
	 Reference Energy          =    -211.1941978402474547 [Eh]
	 Singles Energy            =      -0.0000000000000000 [Eh]
	 Same-Spin Energy          =      -0.2204058278769498 [Eh]
	 Opposite-Spin Energy      =      -0.7812168834377093 [Eh]
	 Correlation Energy        =      -1.0016227113146592 [Eh]
	 Total Energy              =    -212.1958205515621216 [Eh]

	 ================> DF-SCS-MP2 Energies <==================
	-----------------------------------------------------------
	 SCS Same-Spin Scale       =       0.3333333333333333 [-]
	 SCS Opposite-Spin Scale   =       1.2000000000000000 [-]
	 SCS Same-Spin Energy      =      -0.0734686092923166 [Eh]
	 SCS Opposite-Spin Energy  =      -0.9374602601252512 [Eh]
	 SCS Correlation Energy    =      -1.0109288694175678 [Eh]
	 SCS Total Energy          =    -212.2051267096650236 [Eh]
	-----------------------------------------------------------

  Dipole Moment: [D]
     X:     0.3719      Y:     2.3392      Z:     0.2608     Total:     2.3829

*** Psi4 exiting successfully. Buy a developer a beer!
