                               Psi4 1.4a3.dev225

  ==> Input File <==

--------------------------------------------------------------------------
#psi4
#
memory 32 gb

molecule  {
0 1
  N       -1.3248030    -1.1740260    -0.2505360
  C        0.8182300    -0.4554710     0.5470430
  C       -0.5904330    -0.1723070     0.0896190
  C        1.8790820     0.1519800    -0.3759300
  C       -1.0163770     1.2764630     0.0491600
  H        0.9506150    -0.0630590     1.5639460
  H        0.9302930    -1.5419040     0.5914080
  H        2.8813100    -0.1399000    -0.0505570
  H        1.8374890     1.2445300    -0.3804150
  H        1.7153865    -0.2654588    -1.5895542
  H       -0.7901170     1.7727720     0.9986380
  H       -0.4789730     1.8177080    -0.7361320
  H       -2.0886730     1.3644810    -0.1460260
  H       -2.2520240    -0.8395090    -0.5445200
units angstrom
no_reorient  #important for SAPT in psi4, default
symmetry c1  #important for SAPT in psi4, default
}

set PROPERTIES_ORIGIN ["COM"]
properties('MP2/aug-cc-pvtz', properties = ['dipole'])
--------------------------------------------------------------------------

    Molecular point group: c1
  Charge       = 0
  Multiplicity = 1
  Basis Set: AUG-CC-PVTZ
    Blend: AUG-CC-PVTZ
  Basis Set: (AUG-CC-PVTZ AUX)
    Blend: AUG-CC-PVTZ-JKFIT

    Orbital Energies [Eh]
    ---------------------

    Doubly Occupied:

       1A    -15.541635     2A    -11.285439     3A    -11.246440
       4A    -11.236580     5A    -11.230020     6A     -1.204434
       7A     -1.041612     8A     -0.980721     9A     -0.867416
      10A     -0.730261    11A     -0.653371    12A     -0.617328
      13A     -0.603162    14A     -0.575296    15A     -0.555058
      16A     -0.520946    17A     -0.495603    18A     -0.473237
      19A     -0.411777    20A     -0.409318

  @DF-RHF Final Energy:  -211.20800029666464

   => Energetics <=

    Nuclear Repulsion Energy =            175.9481025592569097
    One-Electron Energy =                -632.9528983843509877
    Two-Electron Energy =                 245.7967955284294703
    Total Energy =                       -211.2080002966646362
  Basis Set: (AUG-CC-PVTZ AUX)
    Blend: AUG-CC-PVTZ-RI
    Molecular point group: c1

    Geometry (in Angstrom), charge = 0, multiplicity = 1:

       Center              X                  Y                   Z               Mass
    ------------   -----------------  -----------------  -----------------  -----------------
         N           -1.286268034550    -1.125398570699    -0.249338975166    14.003074004430
         C            0.856764965450    -0.406843570699     0.548240024834    12.000000000000
         C           -0.551898034550    -0.123679570699     0.090816024834    12.000000000000
         C            1.917616965450     0.200607429301    -0.374732975166    12.000000000000
         C           -0.977842034550     1.325090429301     0.050357024834    12.000000000000
         H            0.989149965450    -0.014431570699     1.565143024834     1.007825032230
         H            0.968827965450    -1.493276570699     0.592605024834     1.007825032230
         H            2.919844965450    -0.091272570699    -0.049359975166     1.007825032230
         H            1.876023965450     1.293157429301    -0.379217975166     1.007825032230
         H            1.753921465450    -0.216831370699    -1.588357175166     1.007825032230
         H           -0.751582034550     1.821399429301     0.999835024834     1.007825032230
         H           -0.440438034550     1.866335429301    -0.734934975166     1.007825032230
         H           -2.050138034550     1.413108429301    -0.144828975166     1.007825032230
         H           -2.213489034550    -0.790881570699    -0.543322975166     1.007825032230

  Basis Set: AUG-CC-PVTZ
    Blend: AUG-CC-PVTZ
  Basis Set: (AUG-CC-PVTZ AUX)
    Blend: AUG-CC-PVTZ-JKFIT
	 Reference Energy          =    -211.2080002966646362 [Eh]
	 Singles Energy            =      -0.0000000000000000 [Eh]
	 Same-Spin Energy          =      -0.2204307632625834 [Eh]
	 Opposite-Spin Energy      =      -0.7835750025577117 [Eh]
	 Correlation Energy        =      -1.0040057658202950 [Eh]
	 Total Energy              =    -212.2120060624849316 [Eh]

	 ================> DF-SCS-MP2 Energies <==================
	-----------------------------------------------------------
	 SCS Same-Spin Scale       =       0.3333333333333333 [-]
	 SCS Opposite-Spin Scale   =       1.2000000000000000 [-]
	 SCS Same-Spin Energy      =      -0.0734769210875278 [Eh]
	 SCS Opposite-Spin Energy  =      -0.9402900030692540 [Eh]
	 SCS Correlation Energy    =      -1.0137669241567817 [Eh]
	 SCS Total Energy          =    -212.2217672208214196 [Eh]
	-----------------------------------------------------------

  Dipole Moment: [D]
     X:     0.3227      Y:     2.4063      Z:     0.3717     Total:     2.4561

*** Psi4 exiting successfully. Buy a developer a beer!
