                               Psi4 1.4a3.dev225

  ==> Input File <==

--------------------------------------------------------------------------
#psi4
#
memory 32 gb

molecule  {
0 1
  N       -1.3248030    -1.1740260    -0.2505360
  C        0.8182300    -0.4554710     0.5470430
  C       -0.5904330    -0.1723070     0.0896190
  C        1.8887071     0.1274808    -0.3806040
  C       -1.0163770     1.2764630     0.0491600
  H        0.9506150    -0.0630590     1.5639460
  H        0.9302930    -1.5419040     0.5914080
  H        2.8813100    -0.1399000    -0.0505570
  H        1.8374890     1.2445300    -0.3804150
  H        1.7406910    -0.2009300    -1.4019490
  H       -0.7901170     1.7727720     0.9986380
  H       -0.4789730     1.8177080    -0.7361320
  H       -2.0886730     1.3644810    -0.1460260
  H       -2.2520240    -0.8395090    -0.5445200
units angstrom
no_reorient  #important for SAPT in psi4, default
symmetry c1  #important for SAPT in psi4, default
}

set PROPERTIES_ORIGIN ["COM"]
properties('MP2/aug-cc-pvtz', properties = ['dipole'])
--------------------------------------------------------------------------

    Molecular point group: c1
  Charge       = 0
  Multiplicity = 1
  Basis Set: AUG-CC-PVTZ
    Blend: AUG-CC-PVTZ
  Basis Set: (AUG-CC-PVTZ AUX)
    Blend: AUG-CC-PVTZ-JKFIT

    Orbital Energies [Eh]
    ---------------------

    Doubly Occupied:

       1A    -15.541441     2A    -11.285008     3A    -11.236143
       4A    -11.227091     5A    -11.223404     6A     -1.204170
       7A     -1.043813     8A     -0.981855     9A     -0.876402
      10A     -0.731671    11A     -0.653214    12A     -0.618731
      13A     -0.603149    14A     -0.583091    15A     -0.554853
      16A     -0.523287    17A     -0.503639    18A     -0.484810
      19A     -0.411696    20A     -0.408853

  @DF-RHF Final Energy:  -211.22707646451252

   => Energetics <=

    Nuclear Repulsion Energy =            176.5720693399577215
    One-Electron Energy =                -634.2056515741351177
    Two-Electron Energy =                 246.4065057696649035
    Total Energy =                       -211.2270764645125212
  Basis Set: (AUG-CC-PVTZ AUX)
    Blend: AUG-CC-PVTZ-RI
    Molecular point group: c1

    Geometry (in Angstrom), charge = 0, multiplicity = 1:

       Center              X                  Y                   Z               Mass
    ------------   -----------------  -----------------  -----------------  -----------------
         N           -1.288251948525    -1.122177163813    -0.251210069428    14.003074004430
         C            0.854781051475    -0.403622163813     0.546368930572    12.000000000000
         C           -0.553881948525    -0.120458163813     0.088944930572    12.000000000000
         C            1.925258151475     0.179329636187    -0.381278069428    12.000000000000
         C           -0.979825948525     1.328311836187     0.048485930572    12.000000000000
         H            0.987166051475    -0.011210163813     1.563271930572     1.007825032230
         H            0.966844051475    -1.490055163813     0.590733930572     1.007825032230
         H            2.917861051475    -0.088051163813    -0.051231069428     1.007825032230
         H            1.874040051475     1.296378836187    -0.381089069428     1.007825032230
         H            1.777242051475    -0.149081163813    -1.402623069428     1.007825032230
         H           -0.753565948525     1.824620836187     0.997963930572     1.007825032230
         H           -0.442421948525     1.869556836187    -0.736806069428     1.007825032230
         H           -2.052121948525     1.416329836187    -0.146700069428     1.007825032230
         H           -2.215472948525    -0.787660163813    -0.545194069428     1.007825032230

  Basis Set: AUG-CC-PVTZ
    Blend: AUG-CC-PVTZ
  Basis Set: (AUG-CC-PVTZ AUX)
    Blend: AUG-CC-PVTZ-JKFIT
	 Reference Energy          =    -211.2270764645125212 [Eh]
	 Singles Energy            =      -0.0000000000000000 [Eh]
	 Same-Spin Energy          =      -0.2204857403223890 [Eh]
	 Opposite-Spin Energy      =      -0.7820908898622624 [Eh]
	 Correlation Energy        =      -1.0025766301846515 [Eh]
	 Total Energy              =    -212.2296530946971700 [Eh]

	 ================> DF-SCS-MP2 Energies <==================
	-----------------------------------------------------------
	 SCS Same-Spin Scale       =       0.3333333333333333 [-]
	 SCS Opposite-Spin Scale   =       1.2000000000000000 [-]
	 SCS Same-Spin Energy      =      -0.0734952467741297 [Eh]
	 SCS Opposite-Spin Energy  =      -0.9385090678347148 [Eh]
	 SCS Correlation Energy    =      -1.0120043146088444 [Eh]
	 SCS Total Energy          =    -212.2390807791213660 [Eh]
	-----------------------------------------------------------

  Dipole Moment: [D]
     X:     0.3443      Y:     2.3729      Z:     0.2308     Total:     2.4088

*** Psi4 exiting successfully. Buy a developer a beer!
