                               Psi4 1.4a3.dev225

  ==> Input File <==

--------------------------------------------------------------------------
#psi4
#
memory 32 gb

molecule  {
0 1
  N       -1.3248030    -1.1740260    -0.2505360
  C        0.8182300    -0.4554710     0.5470430
  C       -0.5953529    -0.1606929     0.1127169
  C        1.8790820     0.1519800    -0.3759300
  C       -1.0163770     1.2764630     0.0491600
  H        0.9506150    -0.0630590     1.5639460
  H        0.9302930    -1.5419040     0.5914080
  H        2.8813100    -0.1399000    -0.0505570
  H        1.8374890     1.2445300    -0.3804150
  H        1.7406910    -0.2009300    -1.4019490
  H       -0.7901170     1.7727720     0.9986380
  H       -0.4789730     1.8177080    -0.7361320
  H       -2.0886730     1.3644810    -0.1460260
  H       -2.2520240    -0.8395090    -0.5445200
units angstrom
no_reorient  #important for SAPT in psi4, default
symmetry c1  #important for SAPT in psi4, default
}

set PROPERTIES_ORIGIN ["COM"]
properties('MP2/aug-cc-pvtz', properties = ['dipole'])
--------------------------------------------------------------------------

    Molecular point group: c1
  Charge       = 0
  Multiplicity = 1
  Basis Set: AUG-CC-PVTZ
    Blend: AUG-CC-PVTZ
  Basis Set: (AUG-CC-PVTZ AUX)
    Blend: AUG-CC-PVTZ-JKFIT

    Orbital Energies [Eh]
    ---------------------

    Doubly Occupied:

       1A    -15.542085     2A    -11.286042     3A    -11.236560
       4A    -11.227568     5A    -11.223680     6A     -1.199722
       7A     -1.043675     8A     -0.984272     9A     -0.876852
      10A     -0.731175    11A     -0.653440    12A     -0.618211
      13A     -0.603961    14A     -0.584060    15A     -0.554880
      16A     -0.522534    17A     -0.498613    18A     -0.490579
      19A     -0.413459    20A     -0.404533

  @DF-RHF Final Energy:  -211.22619991512752

   => Energetics <=

    Nuclear Repulsion Energy =            176.5597404227837046
    One-Electron Energy =                -634.1800758874547910
    Two-Electron Energy =                 246.3941355495435630
    Total Energy =                       -211.2261999151275234
  Basis Set: (AUG-CC-PVTZ AUX)
    Blend: AUG-CC-PVTZ-RI
    Molecular point group: c1

    Geometry (in Angstrom), charge = 0, multiplicity = 1:

       Center              X                  Y                   Z               Mass
    ------------   -----------------  -----------------  -----------------  -----------------
         N           -1.285796180880    -1.128274508172    -0.255899057635    14.003074004430
         C            0.857236819120    -0.409719508172     0.541679942365    12.000000000000
         C           -0.556346080880    -0.114941408172     0.107353842365    12.000000000000
         C            1.918088819120     0.197731491828    -0.381293057635    12.000000000000
         C           -0.977370180880     1.322214491828     0.043796942365    12.000000000000
         H            0.989621819120    -0.017307508172     1.558582942365     1.007825032230
         H            0.969299819120    -1.496152508172     0.586044942365     1.007825032230
         H            2.920316819120    -0.094148508172    -0.055920057635     1.007825032230
         H            1.876495819120     1.290281491828    -0.385778057635     1.007825032230
         H            1.779697819120    -0.155178508172    -1.407312057635     1.007825032230
         H           -0.751110180880     1.818523491828     0.993274942365     1.007825032230
         H           -0.439966180880     1.863459491828    -0.741495057635     1.007825032230
         H           -2.049666180880     1.410232491828    -0.151389057635     1.007825032230
         H           -2.213017180880    -0.793757508172    -0.549883057635     1.007825032230

  Basis Set: AUG-CC-PVTZ
    Blend: AUG-CC-PVTZ
  Basis Set: (AUG-CC-PVTZ AUX)
    Blend: AUG-CC-PVTZ-JKFIT
	 Reference Energy          =    -211.2261999151275234 [Eh]
	 Singles Energy            =      -0.0000000000000000 [Eh]
	 Same-Spin Energy          =      -0.2208131267889842 [Eh]
	 Opposite-Spin Energy      =      -0.7827303349721504 [Eh]
	 Correlation Energy        =      -1.0035434617611345 [Eh]
	 Total Energy              =    -212.2297433768886492 [Eh]

	 ================> DF-SCS-MP2 Energies <==================
	-----------------------------------------------------------
	 SCS Same-Spin Scale       =       0.3333333333333333 [-]
	 SCS Opposite-Spin Scale   =       1.2000000000000000 [-]
	 SCS Same-Spin Energy      =      -0.0736043755963280 [Eh]
	 SCS Opposite-Spin Energy  =      -0.9392764019665805 [Eh]
	 SCS Correlation Energy    =      -1.0128807775629085 [Eh]
	 SCS Total Energy          =    -212.2390806926904361 [Eh]
	-----------------------------------------------------------

  Dipole Moment: [D]
     X:     0.3579      Y:     2.4207      Z:     0.2296     Total:     2.4578

*** Psi4 exiting successfully. Buy a developer a beer!
