                               Psi4 1.4a3.dev225

  ==> Input File <==

--------------------------------------------------------------------------
#psi4
#
memory 32 gb

molecule  {
0 1
  N       -1.3248030    -1.1740260    -0.2505360
  C        0.8182300    -0.4554710     0.5470430
  C       -0.5904330    -0.1723070     0.0896190
  C        1.8790820     0.1519800    -0.3759300
  C       -1.0163770     1.2764630     0.0491600
  H        0.9506150    -0.0630590     1.5639460
  H        0.9302930    -1.5419040     0.5914080
  H        2.8869864    -0.1559768    -0.0847019
  H        1.8374890     1.2445300    -0.3804150
  H        1.7406910    -0.2009300    -1.4019490
  H       -0.7901170     1.7727720     0.9986380
  H       -0.4789730     1.8177080    -0.7361320
  H       -2.0886730     1.3644810    -0.1460260
  H       -2.2520240    -0.8395090    -0.5445200
units angstrom
no_reorient  #important for SAPT in psi4, default
symmetry c1  #important for SAPT in psi4, default
}

set PROPERTIES_ORIGIN ["COM"]
properties('MP2/aug-cc-pvtz', properties = ['dipole'])
--------------------------------------------------------------------------

    Molecular point group: c1
  Charge       = 0
  Multiplicity = 1
  Basis Set: AUG-CC-PVTZ
    Blend: AUG-CC-PVTZ
  Basis Set: (AUG-CC-PVTZ AUX)
    Blend: AUG-CC-PVTZ-JKFIT

    Orbital Energies [Eh]
    ---------------------

    Doubly Occupied:

       1A    -15.541300     2A    -11.284947     3A    -11.236298
       4A    -11.227397     5A    -11.223221     6A     -1.204135
       7A     -1.043913     8A     -0.981712     9A     -0.876666
      10A     -0.731712    11A     -0.653914    12A     -0.616920
      13A     -0.604030    14A     -0.583378    15A     -0.554374
      16A     -0.523140    17A     -0.499265    18A     -0.490182
      19A     -0.411483    20A     -0.408747

  @DF-RHF Final Energy:  -211.22764472198486

   => Energetics <=

    Nuclear Repulsion Energy =            176.6259508367370756
    One-Electron Energy =                -634.3137222790504666
    Two-Electron Energy =                 246.4601267203285602
    Total Energy =                       -211.2276447219848592
  Basis Set: (AUG-CC-PVTZ AUX)
    Blend: AUG-CC-PVTZ-RI
    Molecular point group: c1

    Geometry (in Angstrom), charge = 0, multiplicity = 1:

       Center              X                  Y                   Z               Mass
    ------------   -----------------  -----------------  -----------------  -----------------
         N           -1.286707344938    -1.126085621976    -0.251515048292    14.003074004430
         C            0.856325655062    -0.407530621976     0.546063951708    12.000000000000
         C           -0.552337344938    -0.124366621976     0.088639951708    12.000000000000
         C            1.917177655062     0.199920378024    -0.376909048292    12.000000000000
         C           -0.978281344938     1.324403378024     0.048180951708    12.000000000000
         H            0.988710655062    -0.015118621976     1.562966951708     1.007825032230
         H            0.968388655062    -1.493963621976     0.590428951708     1.007825032230
         H            2.925082055062    -0.108036421976    -0.085680948292     1.007825032230
         H            1.875584655062     1.292470378024    -0.381394048292     1.007825032230
         H            1.778786655062    -0.152989621976    -1.402928048292     1.007825032230
         H           -0.752021344938     1.820712378024     0.997658951708     1.007825032230
         H           -0.440877344938     1.865648378024    -0.737111048292     1.007825032230
         H           -2.050577344938     1.412421378024    -0.147005048292     1.007825032230
         H           -2.213928344938    -0.791568621976    -0.545499048292     1.007825032230

  Basis Set: AUG-CC-PVTZ
    Blend: AUG-CC-PVTZ
  Basis Set: (AUG-CC-PVTZ AUX)
    Blend: AUG-CC-PVTZ-JKFIT
	 Reference Energy          =    -211.2276447219848592 [Eh]
	 Singles Energy            =      -0.0000000000000000 [Eh]
	 Same-Spin Energy          =      -0.2205105544335817 [Eh]
	 Opposite-Spin Energy      =      -0.7820851101993112 [Eh]
	 Correlation Energy        =      -1.0025956646328928 [Eh]
	 Total Energy              =    -212.2302403866177656 [Eh]

	 ================> DF-SCS-MP2 Energies <==================
	-----------------------------------------------------------
	 SCS Same-Spin Scale       =       0.3333333333333333 [-]
	 SCS Opposite-Spin Scale   =       1.2000000000000000 [-]
	 SCS Same-Spin Energy      =      -0.0735035181445272 [Eh]
	 SCS Opposite-Spin Energy  =      -0.9385021322391733 [Eh]
	 SCS Correlation Energy    =      -1.0120056503837005 [Eh]
	 SCS Total Energy          =    -212.2396503723685726 [Eh]
	-----------------------------------------------------------

  Dipole Moment: [D]
     X:     0.3449      Y:     2.3779      Z:     0.2244     Total:     2.4133

*** Psi4 exiting successfully. Buy a developer a beer!
