                               Psi4 1.4a3.dev225

  ==> Input File <==

--------------------------------------------------------------------------
#psi4
#
memory 32 gb

molecule  {
0 1
  N       -1.3248030    -1.1740260    -0.2505360
  C        0.8182300    -0.4554710     0.5470430
  C       -0.5904330    -0.1723070     0.0896190
  C        1.9483392     0.1916371    -0.4361858
  C       -1.0163770     1.2764630     0.0491600
  H        0.9506150    -0.0630590     1.5639460
  H        0.9302930    -1.5419040     0.5914080
  H        2.8813100    -0.1399000    -0.0505570
  H        1.8374890     1.2445300    -0.3804150
  H        1.7406910    -0.2009300    -1.4019490
  H       -0.7901170     1.7727720     0.9986380
  H       -0.4789730     1.8177080    -0.7361320
  H       -2.0886730     1.3644810    -0.1460260
  H       -2.2520240    -0.8395090    -0.5445200
units angstrom
no_reorient  #important for SAPT in psi4, default
symmetry c1  #important for SAPT in psi4, default
}

set PROPERTIES_ORIGIN ["COM"]
properties('MP2/aug-cc-pvtz', properties = ['dipole'])
--------------------------------------------------------------------------

    Molecular point group: c1
  Charge       = 0
  Multiplicity = 1
  Basis Set: AUG-CC-PVTZ
    Blend: AUG-CC-PVTZ
  Basis Set: (AUG-CC-PVTZ AUX)
    Blend: AUG-CC-PVTZ-JKFIT

    Orbital Energies [Eh]
    ---------------------

    Doubly Occupied:

       1A    -15.540288     2A    -11.284349     3A    -11.236051
       4A    -11.230439     5A    -11.221166     6A     -1.202680
       7A     -1.032013     8A     -0.979618     9A     -0.884496
      10A     -0.728817    11A     -0.651614    12A     -0.617714
      13A     -0.604399    14A     -0.585887    15A     -0.563224
      16A     -0.512300    17A     -0.500969    18A     -0.492817
      19A     -0.411182    20A     -0.403633

  @DF-RHF Final Energy:  -211.22073045558011

   => Energetics <=

    Nuclear Repulsion Energy =            175.4705385755346470
    One-Electron Energy =                -632.0152283585861142
    Two-Electron Energy =                 245.3239593274713570
    Total Energy =                       -211.2207304555801102
  Basis Set: (AUG-CC-PVTZ AUX)
    Blend: AUG-CC-PVTZ-RI
    Molecular point group: c1

    Geometry (in Angstrom), charge = 0, multiplicity = 1:

       Center              X                  Y                   Z               Mass
    ------------   -----------------  -----------------  -----------------  -----------------
         N           -1.298320190656    -1.133009268713    -0.241825677122    14.003074004430
         C            0.844712809344    -0.414454268713     0.555753322878    12.000000000000
         C           -0.563950190656    -0.131290268713     0.098329322878    12.000000000000
         C            1.974822009344     0.232653831287    -0.427475477122    12.000000000000
         C           -0.989894190656     1.317479731287     0.057870322878    12.000000000000
         H            0.977097809344    -0.022042268713     1.572656322878     1.007825032230
         H            0.956775809344    -1.500887268713     0.600118322878     1.007825032230
         H            2.907792809344    -0.098883268713    -0.041846677122     1.007825032230
         H            1.863971809344     1.285546731287    -0.371704677122     1.007825032230
         H            1.767173809344    -0.159913268713    -1.393238677122     1.007825032230
         H           -0.763634190656     1.813788731287     1.007348322878     1.007825032230
         H           -0.452490190656     1.858724731287    -0.727421677122     1.007825032230
         H           -2.062190190656     1.405497731287    -0.137315677122     1.007825032230
         H           -2.225541190656    -0.798492268713    -0.535809677122     1.007825032230

  Basis Set: AUG-CC-PVTZ
    Blend: AUG-CC-PVTZ
  Basis Set: (AUG-CC-PVTZ AUX)
    Blend: AUG-CC-PVTZ-JKFIT
	 Reference Energy          =    -211.2207304555801102 [Eh]
	 Singles Energy            =      -0.0000000000000000 [Eh]
	 Same-Spin Energy          =      -0.2202503606839412 [Eh]
	 Opposite-Spin Energy      =      -0.7821280095543595 [Eh]
	 Correlation Energy        =      -1.0023783702383007 [Eh]
	 Total Energy              =    -212.2231088258184002 [Eh]

	 ================> DF-SCS-MP2 Energies <==================
	-----------------------------------------------------------
	 SCS Same-Spin Scale       =       0.3333333333333333 [-]
	 SCS Opposite-Spin Scale   =       1.2000000000000000 [-]
	 SCS Same-Spin Energy      =      -0.0734167868946471 [Eh]
	 SCS Opposite-Spin Energy  =      -0.9385536114652313 [Eh]
	 SCS Correlation Energy    =      -1.0119703983598785 [Eh]
	 SCS Total Energy          =    -212.2327008539400026 [Eh]
	-----------------------------------------------------------

  Dipole Moment: [D]
     X:     0.3676      Y:     2.3903      Z:     0.2338     Total:     2.4297

*** Psi4 exiting successfully. Buy a developer a beer!
