                               Psi4 1.4a3.dev225

  ==> Input File <==

--------------------------------------------------------------------------
#psi4
#
memory 32 gb

molecule  {
0 1
  N       -1.3248030    -1.1740260    -0.2505360
  C        0.8182300    -0.4554710     0.5470430
  C       -0.5245373    -0.2307460     0.1075748
  C        1.8790820     0.1519800    -0.3759300
  C       -1.0163770     1.2764630     0.0491600
  H        0.9506150    -0.0630590     1.5639460
  H        0.9302930    -1.5419040     0.5914080
  H        2.8813100    -0.1399000    -0.0505570
  H        1.8374890     1.2445300    -0.3804150
  H        1.7406910    -0.2009300    -1.4019490
  H       -0.7901170     1.7727720     0.9986380
  H       -0.4789730     1.8177080    -0.7361320
  H       -2.0886730     1.3644810    -0.1460260
  H       -2.2520240    -0.8395090    -0.5445200
units angstrom
no_reorient  #important for SAPT in psi4, default
symmetry c1  #important for SAPT in psi4, default
}

set PROPERTIES_ORIGIN ["COM"]
properties('MP2/aug-cc-pvtz', properties = ['dipole'])
--------------------------------------------------------------------------

    Molecular point group: c1
  Charge       = 0
  Multiplicity = 1
  Basis Set: AUG-CC-PVTZ
    Blend: AUG-CC-PVTZ
  Basis Set: (AUG-CC-PVTZ AUX)
    Blend: AUG-CC-PVTZ-JKFIT

    Orbital Energies [Eh]
    ---------------------

    Doubly Occupied:

       1A    -15.539681     2A    -11.285890     3A    -11.234674
       4A    -11.227308     5A    -11.226526     6A     -1.202491
       7A     -1.054211     8A     -0.965238     9A     -0.891209
      10A     -0.733704    11A     -0.657547    12A     -0.620106
      13A     -0.594956    14A     -0.578863    15A     -0.551771
      16A     -0.531486    17A     -0.513387    18A     -0.489764
      19A     -0.407011    20A     -0.399684

  @DF-RHF Final Energy:  -211.21969280462164

   => Energetics <=

    Nuclear Repulsion Energy =            176.8596430942107247
    One-Electron Energy =                -634.7476541938332275
    Two-Electron Energy =                 246.6683182950008870
    Total Energy =                       -211.2196928046216442
  Basis Set: (AUG-CC-PVTZ AUX)
    Blend: AUG-CC-PVTZ-RI
    Molecular point group: c1

    Geometry (in Angstrom), charge = 0, multiplicity = 1:

       Center              X                  Y                   Z               Mass
    ------------   -----------------  -----------------  -----------------  -----------------
         N           -1.297752637343    -1.116446791676    -0.255030869061    14.003074004430
         C            0.845280362657    -0.397891791676     0.542548130939    12.000000000000
         C           -0.497486937343    -0.173166791676     0.103079930939    12.000000000000
         C            1.906132362657     0.209559208324    -0.380424869061    12.000000000000
         C           -0.989326637343     1.334042208324     0.044665130939    12.000000000000
         H            0.977665362657    -0.005479791676     1.559451130939     1.007825032230
         H            0.957343362657    -1.484324791676     0.586913130939     1.007825032230
         H            2.908360362657    -0.082320791676    -0.055051869061     1.007825032230
         H            1.864539362657     1.302109208324    -0.384909869061     1.007825032230
         H            1.767741362657    -0.143350791676    -1.406443869061     1.007825032230
         H           -0.763066637343     1.830351208324     0.994143130939     1.007825032230
         H           -0.451922637343     1.875287208324    -0.740626869061     1.007825032230
         H           -2.061622637343     1.422060208324    -0.150520869061     1.007825032230
         H           -2.224973637343    -0.781929791676    -0.549014869061     1.007825032230

  Basis Set: AUG-CC-PVTZ
    Blend: AUG-CC-PVTZ
  Basis Set: (AUG-CC-PVTZ AUX)
    Blend: AUG-CC-PVTZ-JKFIT
	 Reference Energy          =    -211.2196928046216442 [Eh]
	 Singles Energy            =      -0.0000000000000000 [Eh]
	 Same-Spin Energy          =      -0.2207901096361011 [Eh]
	 Opposite-Spin Energy      =      -0.7825354433012526 [Eh]
	 Correlation Energy        =      -1.0033255529373537 [Eh]
	 Total Energy              =    -212.2230183575589990 [Eh]

	 ================> DF-SCS-MP2 Energies <==================
	-----------------------------------------------------------
	 SCS Same-Spin Scale       =       0.3333333333333333 [-]
	 SCS Opposite-Spin Scale   =       1.2000000000000000 [-]
	 SCS Same-Spin Energy      =      -0.0735967032120337 [Eh]
	 SCS Opposite-Spin Energy  =      -0.9390425319615030 [Eh]
	 SCS Correlation Energy    =      -1.0126392351735367 [Eh]
	 SCS Total Energy          =    -212.2323320397951818 [Eh]
	-----------------------------------------------------------

  Dipole Moment: [D]
     X:     0.5576      Y:     2.2337      Z:     0.2701     Total:     2.3180

*** Psi4 exiting successfully. Buy a developer a beer!
