                               Psi4 1.4a3.dev225

  ==> Input File <==

--------------------------------------------------------------------------
#psi4
#
memory 32 gb

molecule  {
0 1
  N       -1.3077144    -1.1878731    -0.2459082
  C        0.8182300    -0.4554710     0.5470430
  C       -0.5904330    -0.1723070     0.0896190
  C        1.8790820     0.1519800    -0.3759300
  C       -1.0163770     1.2764630     0.0491600
  H        0.9506150    -0.0630590     1.5639460
  H        0.9302930    -1.5419040     0.5914080
  H        2.8813100    -0.1399000    -0.0505570
  H        1.8374890     1.2445300    -0.3804150
  H        1.7406910    -0.2009300    -1.4019490
  H       -0.7901170     1.7727720     0.9986380
  H       -0.4789730     1.8177080    -0.7361320
  H       -2.0886730     1.3644810    -0.1460260
  H       -2.2520240    -0.8395090    -0.5445200
units angstrom
no_reorient  #important for SAPT in psi4, default
symmetry c1  #important for SAPT in psi4, default
}

set PROPERTIES_ORIGIN ["COM"]
properties('MP2/aug-cc-pvtz', properties = ['dipole'])
--------------------------------------------------------------------------

    Molecular point group: c1
  Charge       = 0
  Multiplicity = 1
  Basis Set: AUG-CC-PVTZ
    Blend: AUG-CC-PVTZ
  Basis Set: (AUG-CC-PVTZ AUX)
    Blend: AUG-CC-PVTZ-JKFIT

    Orbital Energies [Eh]
    ---------------------

    Doubly Occupied:

       1A    -15.544363     2A    -11.284600     3A    -11.237278
       4A    -11.226409     5A    -11.222916     6A     -1.203442
       7A     -1.042869     8A     -0.982472     9A     -0.875219
      10A     -0.727988    11A     -0.652033    12A     -0.616869
      13A     -0.604237    14A     -0.582913    15A     -0.554240
      16A     -0.522091    17A     -0.499888    18A     -0.489133
      19A     -0.412834    20A     -0.408914

  @DF-RHF Final Energy:  -211.22626557694258

   => Energetics <=

    Nuclear Repulsion Energy =            176.6029861670872378
    One-Electron Energy =                -634.2770866368175575
    Two-Electron Energy =                 246.4478348927877391
    Total Energy =                       -211.2262655769425805
  Basis Set: (AUG-CC-PVTZ AUX)
    Blend: AUG-CC-PVTZ-RI
    Molecular point group: c1

    Geometry (in Angstrom), charge = 0, multiplicity = 1:

       Center              X                  Y                   Z               Mass
    ------------   -----------------  -----------------  -----------------  -----------------
         N           -1.272905090970    -1.137432502256    -0.248283204757    14.003074004430
         C            0.853039309030    -0.405030402256     0.544667995243    12.000000000000
         C           -0.555623690970    -0.121866402256     0.087243995243    12.000000000000
         C            1.913891309030     0.202420597744    -0.378305004757    12.000000000000
         C           -0.981567690970     1.326903597744     0.046784995243    12.000000000000
         H            0.985424309030    -0.012618402256     1.561570995243     1.007825032230
         H            0.965102309030    -1.491463402256     0.589032995243     1.007825032230
         H            2.916119309030    -0.089459402256    -0.052932004757     1.007825032230
         H            1.872298309030     1.294970597744    -0.382790004757     1.007825032230
         H            1.775500309030    -0.150489402256    -1.404324004757     1.007825032230
         H           -0.755307690970     1.823212597744     0.996262995243     1.007825032230
         H           -0.444163690970     1.868148597744    -0.738507004757     1.007825032230
         H           -2.053863690970     1.414921597744    -0.148401004757     1.007825032230
         H           -2.217214690970    -0.789068402256    -0.546895004757     1.007825032230

  Basis Set: AUG-CC-PVTZ
    Blend: AUG-CC-PVTZ
  Basis Set: (AUG-CC-PVTZ AUX)
    Blend: AUG-CC-PVTZ-JKFIT
	 Reference Energy          =    -211.2262655769425805 [Eh]
	 Singles Energy            =      -0.0000000000000000 [Eh]
	 Same-Spin Energy          =      -0.2207297827423670 [Eh]
	 Opposite-Spin Energy      =      -0.7826729781654134 [Eh]
	 Correlation Energy        =      -1.0034027609077805 [Eh]
	 Total Energy              =    -212.2296683378503701 [Eh]

	 ================> DF-SCS-MP2 Energies <==================
	-----------------------------------------------------------
	 SCS Same-Spin Scale       =       0.3333333333333333 [-]
	 SCS Opposite-Spin Scale   =       1.2000000000000000 [-]
	 SCS Same-Spin Energy      =      -0.0735765942474557 [Eh]
	 SCS Opposite-Spin Energy  =      -0.9392075737984960 [Eh]
	 SCS Correlation Energy    =      -1.0127841680459517 [Eh]
	 SCS Total Energy          =    -212.2390497449885345 [Eh]
	-----------------------------------------------------------

  Dipole Moment: [D]
     X:     0.3242      Y:     2.4078      Z:     0.2320     Total:     2.4406

*** Psi4 exiting successfully. Buy a developer a beer!
