                               Psi4 1.4a3.dev225

  ==> Input File <==

--------------------------------------------------------------------------
#psi4
#
memory 32 gb

molecule  {
0 1
  N       -1.3248030    -1.1740260    -0.2505360
  C        0.8182300    -0.4554710     0.5470430
  C       -0.5904330    -0.1723070     0.0896190
  C        1.8790820     0.1519800    -0.3759300
  C       -1.0163770     1.2764630     0.0491600
  H        0.9506150    -0.0630590     1.5639460
  H        0.9302930    -1.5419040     0.5914080
  H        2.8813100    -0.1399000    -0.0505570
  H        1.8374890     1.2445300    -0.3804150
  H        1.7406910    -0.2009300    -1.4019490
  H       -0.6808588     1.7427463     0.9813789
  H       -0.4789730     1.8177080    -0.7361320
  H       -2.0886730     1.3644810    -0.1460260
  H       -2.2520240    -0.8395090    -0.5445200
units angstrom
no_reorient  #important for SAPT in psi4, default
symmetry c1  #important for SAPT in psi4, default
}

set PROPERTIES_ORIGIN ["COM"]
properties('MP2/aug-cc-pvtz', properties = ['dipole'])
--------------------------------------------------------------------------

    Molecular point group: c1
  Charge       = 0
  Multiplicity = 1
  Basis Set: AUG-CC-PVTZ
    Blend: AUG-CC-PVTZ
  Basis Set: (AUG-CC-PVTZ AUX)
    Blend: AUG-CC-PVTZ-JKFIT

    Orbital Energies [Eh]
    ---------------------

    Doubly Occupied:

       1A    -15.540423     2A    -11.284156     3A    -11.236667
       4A    -11.227509     5A    -11.223624     6A     -1.203768
       7A     -1.044602     8A     -0.982378     9A     -0.876330
      10A     -0.730684    11A     -0.652889    12A     -0.619503
      13A     -0.604815    14A     -0.582286    15A     -0.555348
      16A     -0.522099    17A     -0.501895    18A     -0.490283
      19A     -0.410701    20A     -0.407353

  @DF-RHF Final Energy:  -211.22658836679622

   => Energetics <=

    Nuclear Repulsion Energy =            176.7593023858186143
    One-Electron Energy =                -634.5771556517316867
    Two-Electron Energy =                 246.5912648991168510
    Total Energy =                       -211.2265883667962214
  Basis Set: (AUG-CC-PVTZ AUX)
    Blend: AUG-CC-PVTZ-RI
    Molecular point group: c1

    Geometry (in Angstrom), charge = 0, multiplicity = 1:

       Center              X                  Y                   Z               Mass
    ------------   -----------------  -----------------  -----------------  -----------------
         N           -1.288176138960    -1.125887826022    -0.251754489604    14.003074004430
         C            0.854856861040    -0.407332826022     0.545824510396    12.000000000000
         C           -0.553806138960    -0.124168826022     0.088400510396    12.000000000000
         C            1.915708861040     0.200118173978    -0.377148489604    12.000000000000
         C           -0.979750138960     1.324601173978     0.047941510396    12.000000000000
         H            0.987241861040    -0.014920826022     1.562727510396     1.007825032230
         H            0.966919861040    -1.493765826022     0.590189510396     1.007825032230
         H            2.917936861040    -0.091761826022    -0.051775489604     1.007825032230
         H            1.874115861040     1.292668173978    -0.381633489604     1.007825032230
         H            1.777317861040    -0.152791826022    -1.403167489604     1.007825032230
         H           -0.644231938960     1.790884473978     0.980160410396     1.007825032230
         H           -0.442346138960     1.865846173978    -0.737350489604     1.007825032230
         H           -2.052046138960     1.412619173978    -0.147244489604     1.007825032230
         H           -2.215397138960    -0.791370826022    -0.545738489604     1.007825032230

  Basis Set: AUG-CC-PVTZ
    Blend: AUG-CC-PVTZ
  Basis Set: (AUG-CC-PVTZ AUX)
    Blend: AUG-CC-PVTZ-JKFIT
	 Reference Energy          =    -211.2265883667962214 [Eh]
	 Singles Energy            =      -0.0000000000000000 [Eh]
	 Same-Spin Energy          =      -0.2206243111635690 [Eh]
	 Opposite-Spin Energy      =      -0.7821894325540067 [Eh]
	 Correlation Energy        =      -1.0028137437175757 [Eh]
	 Total Energy              =    -212.2294021105138029 [Eh]

	 ================> DF-SCS-MP2 Energies <==================
	-----------------------------------------------------------
	 SCS Same-Spin Scale       =       0.3333333333333333 [-]
	 SCS Opposite-Spin Scale   =       1.2000000000000000 [-]
	 SCS Same-Spin Energy      =      -0.0735414370545230 [Eh]
	 SCS Opposite-Spin Energy  =      -0.9386273190648080 [Eh]
	 SCS Correlation Energy    =      -1.0121687561193311 [Eh]
	 SCS Total Energy          =    -212.2387571229155583 [Eh]
	-----------------------------------------------------------

  Dipole Moment: [D]
     X:     0.3860      Y:     2.3889      Z:     0.2097     Total:     2.4290

*** Psi4 exiting successfully. Buy a developer a beer!
