                               Psi4 1.4a3.dev225

  ==> Input File <==

--------------------------------------------------------------------------
#psi4
#
memory 32 gb

molecule  {
0 1
  N       -1.3248030    -1.1740260    -0.2505360
  C        0.8182300    -0.4554710     0.5470430
  C       -0.5904330    -0.1723070     0.0896190
  C        1.8146549     0.2948325    -0.3420380
  C       -1.0163770     1.2764630     0.0491600
  H        0.9506150    -0.0630590     1.5639460
  H        0.9302930    -1.5419040     0.5914080
  H        2.8813100    -0.1399000    -0.0505570
  H        1.8374890     1.2445300    -0.3804150
  H        1.7406910    -0.2009300    -1.4019490
  H       -0.7901170     1.7727720     0.9986380
  H       -0.4789730     1.8177080    -0.7361320
  H       -2.0886730     1.3644810    -0.1460260
  H       -2.2520240    -0.8395090    -0.5445200
units angstrom
no_reorient  #important for SAPT in psi4, default
symmetry c1  #important for SAPT in psi4, default
}

set PROPERTIES_ORIGIN ["COM"]
properties('MP2/aug-cc-pvtz', properties = ['dipole'])
--------------------------------------------------------------------------

    Molecular point group: c1
  Charge       = 0
  Multiplicity = 1
  Basis Set: AUG-CC-PVTZ
    Blend: AUG-CC-PVTZ
  Basis Set: (AUG-CC-PVTZ AUX)
    Blend: AUG-CC-PVTZ-JKFIT

    Orbital Energies [Eh]
    ---------------------

    Doubly Occupied:

       1A    -15.540350     2A    -11.283948     3A    -11.236929
       4A    -11.230517     5A    -11.227759     6A     -1.203973
       7A     -1.047722     8A     -0.981306     9A     -0.882356
      10A     -0.734235    11A     -0.656082    12A     -0.623647
      13A     -0.611797    14A     -0.585068    15A     -0.549398
      16A     -0.532864    17A     -0.493305    18A     -0.474434
      19A     -0.410062    20A     -0.406454

  @DF-RHF Final Energy:  -211.19579140828728

   => Energetics <=

    Nuclear Repulsion Energy =            177.1109121220458746
    One-Electron Energy =                -635.1889916703064500
    Two-Electron Energy =                 246.8822881399732978
    Total Energy =                       -211.1957914082872776
  Basis Set: (AUG-CC-PVTZ AUX)
    Blend: AUG-CC-PVTZ-RI
    Molecular point group: c1

    Geometry (in Angstrom), charge = 0, multiplicity = 1:

       Center              X                  Y                   Z               Mass
    ------------   -----------------  -----------------  -----------------  -----------------
         N           -1.275749026778    -1.150432708002    -0.257721525943    14.003074004430
         C            0.867283973222    -0.431877708002     0.539857474057    12.000000000000
         C           -0.541379026778    -0.148713708002     0.082433474057    12.000000000000
         C            1.863708873222     0.318425791998    -0.349223525943    12.000000000000
         C           -0.967323026778     1.300056291998     0.041974474057    12.000000000000
         H            0.999668973222    -0.039465708002     1.556760474057     1.007825032230
         H            0.979346973222    -1.518310708002     0.584222474057     1.007825032230
         H            2.930363973222    -0.116306708002    -0.057742525943     1.007825032230
         H            1.886542973222     1.268123291998    -0.387600525943     1.007825032230
         H            1.789744973222    -0.177336708002    -1.409134525943     1.007825032230
         H           -0.741063026778     1.796365291998     0.991452474057     1.007825032230
         H           -0.429919026778     1.841301291998    -0.743317525943     1.007825032230
         H           -2.039619026778     1.388074291998    -0.153211525943     1.007825032230
         H           -2.202970026778    -0.815915708002    -0.551705525943     1.007825032230

  Basis Set: AUG-CC-PVTZ
    Blend: AUG-CC-PVTZ
  Basis Set: (AUG-CC-PVTZ AUX)
    Blend: AUG-CC-PVTZ-JKFIT
	 Reference Energy          =    -211.1957914082872776 [Eh]
	 Singles Energy            =      -0.0000000000000000 [Eh]
	 Same-Spin Energy          =      -0.2211266410941701 [Eh]
	 Opposite-Spin Energy      =      -0.7836172411721076 [Eh]
	 Correlation Energy        =      -1.0047438822662778 [Eh]
	 Total Energy              =    -212.2005352905535460 [Eh]

	 ================> DF-SCS-MP2 Energies <==================
	-----------------------------------------------------------
	 SCS Same-Spin Scale       =       0.3333333333333333 [-]
	 SCS Opposite-Spin Scale   =       1.2000000000000000 [-]
	 SCS Same-Spin Energy      =      -0.0737088803647234 [Eh]
	 SCS Opposite-Spin Energy  =      -0.9403406894065292 [Eh]
	 SCS Correlation Energy    =      -1.0140495697712526 [Eh]
	 SCS Total Energy          =    -212.2098409780585371 [Eh]
	-----------------------------------------------------------

  Dipole Moment: [D]
     X:     0.3235      Y:     2.4117      Z:     0.2779     Total:     2.4491

*** Psi4 exiting successfully. Buy a developer a beer!
