                               Psi4 1.4a3.dev225

  ==> Input File <==

--------------------------------------------------------------------------
#psi4
#
memory 32 gb

molecule  {
0 1
  N       -1.3583039    -1.1454207    -0.2594794
  C        0.8182300    -0.4554710     0.5470430
  C       -0.5904330    -0.1723070     0.0896190
  C        1.8790820     0.1519800    -0.3759300
  C       -1.0163770     1.2764630     0.0491600
  H        0.9506150    -0.0630590     1.5639460
  H        0.9302930    -1.5419040     0.5914080
  H        2.8813100    -0.1399000    -0.0505570
  H        1.8374890     1.2445300    -0.3804150
  H        1.7406910    -0.2009300    -1.4019490
  H       -0.7901170     1.7727720     0.9986380
  H       -0.4789730     1.8177080    -0.7361320
  H       -2.0886730     1.3644810    -0.1460260
  H       -2.2520240    -0.8395090    -0.5445200
units angstrom
no_reorient  #important for SAPT in psi4, default
symmetry c1  #important for SAPT in psi4, default
}

set PROPERTIES_ORIGIN ["COM"]
properties('MP2/aug-cc-pvtz', properties = ['dipole'])
--------------------------------------------------------------------------

    Molecular point group: c1
  Charge       = 0
  Multiplicity = 1
  Basis Set: AUG-CC-PVTZ
    Blend: AUG-CC-PVTZ
  Basis Set: (AUG-CC-PVTZ AUX)
    Blend: AUG-CC-PVTZ-JKFIT

    Orbital Energies [Eh]
    ---------------------

    Doubly Occupied:

       1A    -15.534877     2A    -11.285329     3A    -11.234116
       4A    -11.228862     5A    -11.224145     6A     -1.205644
       7A     -1.046515     8A     -0.980211     9A     -0.878636
      10A     -0.740187    11A     -0.656708    12A     -0.618701
      13A     -0.604204    14A     -0.583640    15A     -0.553725
      16A     -0.523887    17A     -0.502495    18A     -0.490353
      19A     -0.408208    20A     -0.407499

  @DF-RHF Final Energy:  -211.22804374941896

   => Energetics <=

    Nuclear Repulsion Energy =            176.7323203906493916
    One-Electron Energy =                -634.5048487615199519
    Two-Electron Energy =                 246.5444846214515735
    Total Energy =                       -211.2280437494189584
  Basis Set: (AUG-CC-PVTZ AUX)
    Blend: AUG-CC-PVTZ-RI
    Molecular point group: c1

    Geometry (in Angstrom), charge = 0, multiplicity = 1:

       Center              X                  Y                   Z               Mass
    ------------   -----------------  -----------------  -----------------  -----------------
         N           -1.313527324417    -1.103344177540    -0.259180573866    14.003074004430
         C            0.863006575583    -0.413394477540     0.547341826134    12.000000000000
         C           -0.545656424417    -0.130230477540     0.089917826134    12.000000000000
         C            1.923858575583     0.194056522460    -0.375631173866    12.000000000000
         C           -0.971600424417     1.318539522460     0.049458826134    12.000000000000
         H            0.995391575583    -0.020982477540     1.564244826134     1.007825032230
         H            0.975069575583    -1.499827477540     0.591706826134     1.007825032230
         H            2.926086575583    -0.097823477540    -0.050258173866     1.007825032230
         H            1.882265575583     1.286606522460    -0.380116173866     1.007825032230
         H            1.785467575583    -0.158853477540    -1.401650173866     1.007825032230
         H           -0.745340424417     1.814848522460     0.998936826134     1.007825032230
         H           -0.434196424417     1.859784522460    -0.735833173866     1.007825032230
         H           -2.043896424417     1.406557522460    -0.145727173866     1.007825032230
         H           -2.207247424417    -0.797432477540    -0.544221173866     1.007825032230

  Basis Set: AUG-CC-PVTZ
    Blend: AUG-CC-PVTZ
  Basis Set: (AUG-CC-PVTZ AUX)
    Blend: AUG-CC-PVTZ-JKFIT
	 Reference Energy          =    -211.2280437494189584 [Eh]
	 Singles Energy            =      -0.0000000000000000 [Eh]
	 Same-Spin Energy          =      -0.2201130413817357 [Eh]
	 Opposite-Spin Energy      =      -0.7810500441117063 [Eh]
	 Correlation Energy        =      -1.0011630854934419 [Eh]
	 Total Energy              =    -212.2292068349123895 [Eh]

	 ================> DF-SCS-MP2 Energies <==================
	-----------------------------------------------------------
	 SCS Same-Spin Scale       =       0.3333333333333333 [-]
	 SCS Opposite-Spin Scale   =       1.2000000000000000 [-]
	 SCS Same-Spin Energy      =      -0.0733710137939119 [Eh]
	 SCS Opposite-Spin Energy  =      -0.9372600529340476 [Eh]
	 SCS Correlation Energy    =      -1.0106310667279594 [Eh]
	 SCS Total Energy          =    -212.2386748161469257 [Eh]
	-----------------------------------------------------------

  Dipole Moment: [D]
     X:     0.3985      Y:     2.3392      Z:     0.2414     Total:     2.3851

*** Psi4 exiting successfully. Buy a developer a beer!
