                               Psi4 1.4a3.dev225

  ==> Input File <==

--------------------------------------------------------------------------
#psi4
#
memory 32 gb

molecule  {
0 1
  N       -1.3908693    -1.1156298    -0.2679975
  C        0.8182300    -0.4554710     0.5470430
  C       -0.5904330    -0.1723070     0.0896190
  C        1.8790820     0.1519800    -0.3759300
  C       -1.0163770     1.2764630     0.0491600
  H        0.9506150    -0.0630590     1.5639460
  H        0.9302930    -1.5419040     0.5914080
  H        2.8813100    -0.1399000    -0.0505570
  H        1.8374890     1.2445300    -0.3804150
  H        1.7406910    -0.2009300    -1.4019490
  H       -0.7901170     1.7727720     0.9986380
  H       -0.4789730     1.8177080    -0.7361320
  H       -2.0886730     1.3644810    -0.1460260
  H       -2.2520240    -0.8395090    -0.5445200
units angstrom
no_reorient  #important for SAPT in psi4, default
symmetry c1  #important for SAPT in psi4, default
}

set PROPERTIES_ORIGIN ["COM"]
properties('MP2/aug-cc-pvtz', properties = ['dipole'])
--------------------------------------------------------------------------

    Molecular point group: c1
  Charge       = 0
  Multiplicity = 1
  Basis Set: AUG-CC-PVTZ
    Blend: AUG-CC-PVTZ
  Basis Set: (AUG-CC-PVTZ AUX)
    Blend: AUG-CC-PVTZ-JKFIT

    Orbital Energies [Eh]
    ---------------------

    Doubly Occupied:

       1A    -15.528584     2A    -11.286221     3A    -11.232006
       4A    -11.230644     5A    -11.225032     6A     -1.207758
       7A     -1.049157     8A     -0.978964     9A     -0.881069
      10A     -0.750332    11A     -0.659654    12A     -0.620313
      13A     -0.603634    14A     -0.583777    15A     -0.553393
      16A     -0.525215    17A     -0.504356    18A     -0.491179
      19A     -0.407738    20A     -0.402935

  @DF-RHF Final Energy:  -211.22399332238933

   => Energetics <=

    Nuclear Repulsion Energy =            176.8491174502822503
    One-Electron Energy =                -634.7022983438848769
    Two-Electron Energy =                 246.6291875712132651
    Total Energy =                       -211.2239933223893331
  Basis Set: (AUG-CC-PVTZ AUX)
    Blend: AUG-CC-PVTZ-RI
    Molecular point group: c1

    Geometry (in Angstrom), charge = 0, multiplicity = 1:

       Center              X                  Y                   Z               Mass
    ------------   -----------------  -----------------  -----------------  -----------------
         N           -1.339676609962    -1.079422753245    -0.266020417050    14.003074004430
         C            0.869422690038    -0.419263953245     0.549020082950    12.000000000000
         C           -0.539240309962    -0.136099953245     0.091596082950    12.000000000000
         C            1.930274690038     0.188187046755    -0.373952917050    12.000000000000
         C           -0.965184309962     1.312670046755     0.051137082950    12.000000000000
         H            1.001807690038    -0.026851953245     1.565923082950     1.007825032230
         H            0.981485690038    -1.505696953245     0.593385082950     1.007825032230
         H            2.932502690038    -0.103692953245    -0.048579917050     1.007825032230
         H            1.888681690038     1.280737046755    -0.378437917050     1.007825032230
         H            1.791883690038    -0.164722953245    -1.399971917050     1.007825032230
         H           -0.738924309962     1.808979046755     1.000615082950     1.007825032230
         H           -0.427780309962     1.853915046755    -0.734154917050     1.007825032230
         H           -2.037480309962     1.400688046755    -0.144048917050     1.007825032230
         H           -2.200831309962    -0.803301953245    -0.542542917050     1.007825032230

  Basis Set: AUG-CC-PVTZ
    Blend: AUG-CC-PVTZ
  Basis Set: (AUG-CC-PVTZ AUX)
    Blend: AUG-CC-PVTZ-JKFIT
	 Reference Energy          =    -211.2239933223893331 [Eh]
	 Singles Energy            =      -0.0000000000000000 [Eh]
	 Same-Spin Energy          =      -0.2197990179351852 [Eh]
	 Opposite-Spin Energy      =      -0.7802100221097061 [Eh]
	 Correlation Energy        =      -1.0000090400448913 [Eh]
	 Total Energy              =    -212.2240023624342200 [Eh]

	 ================> DF-SCS-MP2 Energies <==================
	-----------------------------------------------------------
	 SCS Same-Spin Scale       =       0.3333333333333333 [-]
	 SCS Opposite-Spin Scale   =       1.2000000000000000 [-]
	 SCS Same-Spin Energy      =      -0.0732663393117284 [Eh]
	 SCS Opposite-Spin Energy  =      -0.9362520265316473 [Eh]
	 SCS Correlation Energy    =      -1.0095183658433757 [Eh]
	 SCS Total Energy          =    -212.2335116882327100 [Eh]
	-----------------------------------------------------------

  Dipole Moment: [D]
     X:     0.4594      Y:     2.2880      Z:     0.2507     Total:     2.3471

*** Psi4 exiting successfully. Buy a developer a beer!
