                               Psi4 1.4a3.dev225

  ==> Input File <==

--------------------------------------------------------------------------
#psi4
#
memory 32 gb

molecule  {
0 1
  N       -1.3248030    -1.1740260    -0.2505360
  C        0.8182300    -0.4554710     0.5470430
  C       -0.6074789    -0.1584492     0.0848675
  C        1.8790820     0.1519800    -0.3759300
  C       -1.0163770     1.2764630     0.0491600
  H        0.9506150    -0.0630590     1.5639460
  H        0.9302930    -1.5419040     0.5914080
  H        2.8813100    -0.1399000    -0.0505570
  H        1.8374890     1.2445300    -0.3804150
  H        1.7406910    -0.2009300    -1.4019490
  H       -0.7901170     1.7727720     0.9986380
  H       -0.4789730     1.8177080    -0.7361320
  H       -2.0886730     1.3644810    -0.1460260
  H       -2.2520240    -0.8395090    -0.5445200
units angstrom
no_reorient  #important for SAPT in psi4, default
symmetry c1  #important for SAPT in psi4, default
}

set PROPERTIES_ORIGIN ["COM"]
properties('MP2/aug-cc-pvtz', properties = ['dipole'])
--------------------------------------------------------------------------

    Molecular point group: c1
  Charge       = 0
  Multiplicity = 1
  Basis Set: AUG-CC-PVTZ
    Blend: AUG-CC-PVTZ
  Basis Set: (AUG-CC-PVTZ AUX)
    Blend: AUG-CC-PVTZ-JKFIT

    Orbital Energies [Eh]
    ---------------------

    Doubly Occupied:

       1A    -15.541756     2A    -11.284693     3A    -11.236461
       4A    -11.227246     5A    -11.222415     6A     -1.204720
       7A     -1.042077     8A     -0.985823     9A     -0.872703
      10A     -0.731201    11A     -0.653092    12A     -0.618513
      13A     -0.605596    14A     -0.584220    15A     -0.554420
      16A     -0.520820    17A     -0.497431    18A     -0.489033
      19A     -0.413051    20A     -0.409032

  @DF-RHF Final Energy:  -211.22708509183585

   => Energetics <=

    Nuclear Repulsion Energy =            176.5915678051763962
    One-Electron Energy =                -634.2486986550622987
    Two-Electron Energy =                 246.4300457580500563
    Total Energy =                       -211.2270850918358462
  Basis Set: (AUG-CC-PVTZ AUX)
    Blend: AUG-CC-PVTZ-RI
    Molecular point group: c1

    Geometry (in Angstrom), charge = 0, multiplicity = 1:

       Center              X                  Y                   Z               Mass
    ------------   -----------------  -----------------  -----------------  -----------------
         N           -1.283748835506    -1.128653332914    -0.251196984383    14.003074004430
         C            0.859284164494    -0.410098332914     0.546382015617    12.000000000000
         C           -0.566424735506    -0.113076532914     0.084206515617    12.000000000000
         C            1.920136164494     0.197352667086    -0.376590984383    12.000000000000
         C           -0.975322835506     1.321835667086     0.048499015617    12.000000000000
         H            0.991669164494    -0.017686332914     1.563285015617     1.007825032230
         H            0.971347164494    -1.496531332914     0.590747015617     1.007825032230
         H            2.922364164494    -0.094527332914    -0.051217984383     1.007825032230
         H            1.878543164494     1.289902667086    -0.381075984383     1.007825032230
         H            1.781745164494    -0.155557332914    -1.402609984383     1.007825032230
         H           -0.749062835506     1.818144667086     0.997977015617     1.007825032230
         H           -0.437918835506     1.863080667086    -0.736792984383     1.007825032230
         H           -2.047618835506     1.409853667086    -0.146686984383     1.007825032230
         H           -2.210969835506    -0.794136332914    -0.545180984383     1.007825032230

  Basis Set: AUG-CC-PVTZ
    Blend: AUG-CC-PVTZ
  Basis Set: (AUG-CC-PVTZ AUX)
    Blend: AUG-CC-PVTZ-JKFIT
	 Reference Energy          =    -211.2270850918358462 [Eh]
	 Singles Energy            =      -0.0000000000000000 [Eh]
	 Same-Spin Energy          =      -0.2205565352677234 [Eh]
	 Opposite-Spin Energy      =      -0.7821861440286217 [Eh]
	 Correlation Energy        =      -1.0027426792963452 [Eh]
	 Total Energy              =    -212.2298277711321930 [Eh]

	 ================> DF-SCS-MP2 Energies <==================
	-----------------------------------------------------------
	 SCS Same-Spin Scale       =       0.3333333333333333 [-]
	 SCS Opposite-Spin Scale   =       1.2000000000000000 [-]
	 SCS Same-Spin Energy      =      -0.0735188450892411 [Eh]
	 SCS Opposite-Spin Energy  =      -0.9386233728343460 [Eh]
	 SCS Correlation Energy    =      -1.0121422179235873 [Eh]
	 SCS Total Energy          =    -212.2392273097594284 [Eh]
	-----------------------------------------------------------

  Dipole Moment: [D]
     X:     0.2959      Y:     2.4199      Z:     0.2254     Total:     2.4483

*** Psi4 exiting successfully. Buy a developer a beer!
