                               Psi4 1.4a3.dev225

  ==> Input File <==

--------------------------------------------------------------------------
#psi4
#
memory 32 gb

molecule  {
0 1
  N       -1.3248030    -1.1740260    -0.2505360
  C        0.8182300    -0.4554710     0.5470430
  C       -0.6134683    -0.1040388     0.2300487
  C        1.8790820     0.1519800    -0.3759300
  C       -1.0163770     1.2764630     0.0491600
  H        0.9506150    -0.0630590     1.5639460
  H        0.9302930    -1.5419040     0.5914080
  H        2.8813100    -0.1399000    -0.0505570
  H        1.8374890     1.2445300    -0.3804150
  H        1.7406910    -0.2009300    -1.4019490
  H       -0.7901170     1.7727720     0.9986380
  H       -0.4789730     1.8177080    -0.7361320
  H       -2.0886730     1.3644810    -0.1460260
  H       -2.2520240    -0.8395090    -0.5445200
units angstrom
no_reorient  #important for SAPT in psi4, default
symmetry c1  #important for SAPT in psi4, default
}

set PROPERTIES_ORIGIN ["COM"]
properties('MP2/aug-cc-pvtz', properties = ['dipole'])
--------------------------------------------------------------------------

    Molecular point group: c1
  Charge       = 0
  Multiplicity = 1
  Basis Set: AUG-CC-PVTZ
    Blend: AUG-CC-PVTZ
  Basis Set: (AUG-CC-PVTZ AUX)
    Blend: AUG-CC-PVTZ-JKFIT

    Orbital Energies [Eh]
    ---------------------

    Doubly Occupied:

       1A    -15.548239     2A    -11.293994     3A    -11.237959
       4A    -11.230115     5A    -11.225549     6A     -1.179175
       7A     -1.040944     8A     -0.995324     9A     -0.879868
      10A     -0.730493    11A     -0.651914    12A     -0.623976
      13A     -0.600188    14A     -0.586826    15A     -0.558044
      16A     -0.522387    17A     -0.497058    18A     -0.485017
      19A     -0.420953    20A     -0.383300

  @DF-RHF Final Energy:  -211.20260335585854

   => Energetics <=

    Nuclear Repulsion Energy =            176.0396729030223071
    One-Electron Energy =                -633.1019056720041362
    Two-Electron Energy =                 245.8596294131233151
    Total Energy =                       -211.2026033558585425
  Basis Set: (AUG-CC-PVTZ AUX)
    Blend: AUG-CC-PVTZ-RI
    Molecular point group: c1

    Geometry (in Angstrom), charge = 0, multiplicity = 1:

       Center              X                  Y                   Z               Mass
    ------------   -----------------  -----------------  -----------------  -----------------
         N           -1.282737589391    -1.137839946862    -0.275709276830    14.003074004430
         C            0.860295410609    -0.419284946862     0.521869723170    12.000000000000
         C           -0.571402889391    -0.067852746862     0.204875423170    12.000000000000
         C            1.921147410609     0.188166053138    -0.401103276830    12.000000000000
         C           -0.974311589391     1.312649053138     0.023986723170    12.000000000000
         H            0.992680410609    -0.026872946862     1.538772723170     1.007825032230
         H            0.972358410609    -1.505717946862     0.566234723170     1.007825032230
         H            2.923375410609    -0.103713946862    -0.075730276830     1.007825032230
         H            1.879554410609     1.280716053138    -0.405588276830     1.007825032230
         H            1.782756410609    -0.164743946862    -1.427122276830     1.007825032230
         H           -0.748051589391     1.808958053138     0.973464723170     1.007825032230
         H           -0.436907589391     1.853894053138    -0.761305276830     1.007825032230
         H           -2.046607589391     1.400667053138    -0.171199276830     1.007825032230
         H           -2.209958589391    -0.803322946862    -0.569693276830     1.007825032230

  Basis Set: AUG-CC-PVTZ
    Blend: AUG-CC-PVTZ
  Basis Set: (AUG-CC-PVTZ AUX)
    Blend: AUG-CC-PVTZ-JKFIT
	 Reference Energy          =    -211.2026033558585425 [Eh]
	 Singles Energy            =      -0.0000000000000000 [Eh]
	 Same-Spin Energy          =      -0.2230533378272280 [Eh]
	 Opposite-Spin Energy      =      -0.7877402694498374 [Eh]
	 Correlation Energy        =      -1.0107936072770656 [Eh]
	 Total Energy              =    -212.2133969631356081 [Eh]

	 ================> DF-SCS-MP2 Energies <==================
	-----------------------------------------------------------
	 SCS Same-Spin Scale       =       0.3333333333333333 [-]
	 SCS Opposite-Spin Scale   =       1.2000000000000000 [-]
	 SCS Same-Spin Energy      =      -0.0743511126090760 [Eh]
	 SCS Opposite-Spin Energy  =      -0.9452883233398048 [Eh]
	 SCS Correlation Energy    =      -1.0196394359488807 [Eh]
	 SCS Total Energy          =    -212.2222427918074175 [Eh]
	-----------------------------------------------------------

  Dipole Moment: [D]
     X:     0.4052      Y:     2.5354      Z:     0.1791     Total:     2.5738

*** Psi4 exiting successfully. Buy a developer a beer!
