                               Psi4 1.4a3.dev225

  ==> Input File <==

--------------------------------------------------------------------------
#psi4
#
memory 32 gb

molecule  {
0 1
  N       -1.3248030    -1.1740260    -0.2505360
  C        0.8182300    -0.4554710     0.5470430
  C       -0.5904330    -0.1723070     0.0896190
  C        1.8790820     0.1519800    -0.3759300
  C       -1.0163770     1.2764630     0.0491600
  H        0.9506150    -0.0630590     1.5639460
  H        0.9302930    -1.5419040     0.5914080
  H        2.8813100    -0.1399000    -0.0505570
  H        1.8374890     1.2445300    -0.3804150
  H        1.7406910    -0.2009300    -1.4019490
  H       -0.7901170     1.7727720     0.9986380
  H       -0.4789730     1.8177080    -0.7361320
  H       -2.0886730     1.3644810    -0.1460260
  H       -2.3421659    -0.8069882    -0.5731003
units angstrom
no_reorient  #important for SAPT in psi4, default
symmetry c1  #important for SAPT in psi4, default
}

set PROPERTIES_ORIGIN ["COM"]
properties('MP2/aug-cc-pvtz', properties = ['dipole'])
--------------------------------------------------------------------------

    Molecular point group: c1
  Charge       = 0
  Multiplicity = 1
  Basis Set: AUG-CC-PVTZ
    Blend: AUG-CC-PVTZ
  Basis Set: (AUG-CC-PVTZ AUX)
    Blend: AUG-CC-PVTZ-JKFIT

    Orbital Energies [Eh]
    ---------------------

    Doubly Occupied:

       1A    -15.552888     2A    -11.284800     3A    -11.235955
       4A    -11.228531     5A    -11.223830     6A     -1.197308
       7A     -1.041374     8A     -0.980694     9A     -0.874058
      10A     -0.721596    11A     -0.645852    12A     -0.616101
      13A     -0.602554    14A     -0.581877    15A     -0.554116
      16A     -0.522901    17A     -0.500936    18A     -0.489879
      19A     -0.408791    20A     -0.407145

  @DF-RHF Final Energy:  -211.21784945288985

   => Energetics <=

    Nuclear Repulsion Energy =            176.1891042626093906
    One-Electron Energy =                -633.4715351003364958
    Two-Electron Energy =                 246.0645813848372825
    Total Energy =                       -211.2178494528898511
  Basis Set: (AUG-CC-PVTZ AUX)
    Blend: AUG-CC-PVTZ-RI
    Molecular point group: c1

    Geometry (in Angstrom), charge = 0, multiplicity = 1:

       Center              X                  Y                   Z               Mass
    ------------   -----------------  -----------------  -----------------  -----------------
         N           -1.285348637652    -1.126774737867    -0.251593954540    14.003074004430
         C            0.857684362348    -0.408219737867     0.545985045460    12.000000000000
         C           -0.550978637652    -0.125055737867     0.088561045460    12.000000000000
         C            1.918536362348     0.199231262133    -0.376987954540    12.000000000000
         C           -0.976922637652     1.323714262133     0.048102045460    12.000000000000
         H            0.990069362348    -0.015807737867     1.562888045460     1.007825032230
         H            0.969747362348    -1.494652737867     0.590350045460     1.007825032230
         H            2.920764362348    -0.092648737867    -0.051614954540     1.007825032230
         H            1.876943362348     1.291781262133    -0.381472954540     1.007825032230
         H            1.780145362348    -0.153678737867    -1.403006954540     1.007825032230
         H           -0.750662637652     1.820023262133     0.997580045460     1.007825032230
         H           -0.439518637652     1.864959262133    -0.737189954540     1.007825032230
         H           -2.049218637652     1.411732262133    -0.147083954540     1.007825032230
         H           -2.302711537652    -0.759736937867    -0.574158254540     1.007825032230

  Basis Set: AUG-CC-PVTZ
    Blend: AUG-CC-PVTZ
  Basis Set: (AUG-CC-PVTZ AUX)
    Blend: AUG-CC-PVTZ-JKFIT
	 Reference Energy          =    -211.2178494528898511 [Eh]
	 Singles Energy            =      -0.0000000000000000 [Eh]
	 Same-Spin Energy          =      -0.2211777143345969 [Eh]
	 Opposite-Spin Energy      =      -0.7842422161000087 [Eh]
	 Correlation Energy        =      -1.0054199304346056 [Eh]
	 Total Energy              =    -212.2232693833244639 [Eh]

	 ================> DF-SCS-MP2 Energies <==================
	-----------------------------------------------------------
	 SCS Same-Spin Scale       =       0.3333333333333333 [-]
	 SCS Opposite-Spin Scale   =       1.2000000000000000 [-]
	 SCS Same-Spin Energy      =      -0.0737259047781990 [Eh]
	 SCS Opposite-Spin Energy  =      -0.9410906593200103 [Eh]
	 SCS Correlation Energy    =      -1.0148165640982092 [Eh]
	 SCS Total Energy          =    -212.2326660169880483 [Eh]
	-----------------------------------------------------------

  Dipole Moment: [D]
     X:     0.3964      Y:     2.3726      Z:     0.2463     Total:     2.4180

*** Psi4 exiting successfully. Buy a developer a beer!
