                               Psi4 1.4a3.dev225

  ==> Input File <==

--------------------------------------------------------------------------
#psi4
#
memory 32 gb

molecule  {
0 1
  N       -1.3248030    -1.1740260    -0.2505360
  C        0.8182300    -0.4554710     0.5470430
  C       -0.5904330    -0.1723070     0.0896190
  C        1.8929334     0.1599114    -0.3879812
  C       -1.0163770     1.2764630     0.0491600
  H        0.9506150    -0.0630590     1.5639460
  H        0.9302930    -1.5419040     0.5914080
  H        2.8813100    -0.1399000    -0.0505570
  H        1.8374890     1.2445300    -0.3804150
  H        1.7406910    -0.2009300    -1.4019490
  H       -0.7901170     1.7727720     0.9986380
  H       -0.4789730     1.8177080    -0.7361320
  H       -2.0886730     1.3644810    -0.1460260
  H       -2.2520240    -0.8395090    -0.5445200
units angstrom
no_reorient  #important for SAPT in psi4, default
symmetry c1  #important for SAPT in psi4, default
}

set PROPERTIES_ORIGIN ["COM"]
properties('MP2/aug-cc-pvtz', properties = ['dipole'])
--------------------------------------------------------------------------

    Molecular point group: c1
  Charge       = 0
  Multiplicity = 1
  Basis Set: AUG-CC-PVTZ
    Blend: AUG-CC-PVTZ
  Basis Set: (AUG-CC-PVTZ AUX)
    Blend: AUG-CC-PVTZ-JKFIT

    Orbital Energies [Eh]
    ---------------------

    Doubly Occupied:

       1A    -15.541011     2A    -11.284655     3A    -11.236185
       4A    -11.227896     5A    -11.222616     6A     -1.203734
       7A     -1.041251     8A     -0.981245     9A     -0.878076
      10A     -0.731000    11A     -0.653122    12A     -0.617305
      13A     -0.604009    14A     -0.583706    15A     -0.555619
      16A     -0.517367    17A     -0.503081    18A     -0.491941
      19A     -0.411358    20A     -0.407791

  @DF-RHF Final Energy:  -211.22764198499820

   => Energetics <=

    Nuclear Repulsion Energy =            176.4003589461364925
    One-Electron Energy =                -633.8700689356969633
    Two-Electron Energy =                 246.2420680045622419
    Total Energy =                       -211.2276419849982005
  Basis Set: (AUG-CC-PVTZ AUX)
    Blend: AUG-CC-PVTZ-RI
    Molecular point group: c1

    Geometry (in Angstrom), charge = 0, multiplicity = 1:

       Center              X                  Y                   Z               Mass
    ------------   -----------------  -----------------  -----------------  -----------------
         N           -1.288965514067    -1.127652723675    -0.249964508131    14.003074004430
         C            0.854067485933    -0.409097723675     0.547614491869    12.000000000000
         C           -0.554595514067    -0.125933723675     0.090190491869    12.000000000000
         C            1.928770885933     0.206284676325    -0.387409708131    12.000000000000
         C           -0.980539514067     1.322836276325     0.049731491869    12.000000000000
         H            0.986452485933    -0.016685723675     1.564517491869     1.007825032230
         H            0.966130485933    -1.495530723675     0.591979491869     1.007825032230
         H            2.917147485933    -0.093526723675    -0.049985508131     1.007825032230
         H            1.873326485933     1.290903276325    -0.379843508131     1.007825032230
         H            1.776528485933    -0.154556723675    -1.401377508131     1.007825032230
         H           -0.754279514067     1.819145276325     0.999209491869     1.007825032230
         H           -0.443135514067     1.864081276325    -0.735560508131     1.007825032230
         H           -2.052835514067     1.410854276325    -0.145454508131     1.007825032230
         H           -2.216186514067    -0.793135723675    -0.543948508131     1.007825032230

  Basis Set: AUG-CC-PVTZ
    Blend: AUG-CC-PVTZ
  Basis Set: (AUG-CC-PVTZ AUX)
    Blend: AUG-CC-PVTZ-JKFIT
	 Reference Energy          =    -211.2276419849982005 [Eh]
	 Singles Energy            =      -0.0000000000000000 [Eh]
	 Same-Spin Energy          =      -0.2204038998051277 [Eh]
	 Opposite-Spin Energy      =      -0.7820024006305886 [Eh]
	 Correlation Energy        =      -1.0024063004357162 [Eh]
	 Total Energy              =    -212.2300482854339236 [Eh]

	 ================> DF-SCS-MP2 Energies <==================
	-----------------------------------------------------------
	 SCS Same-Spin Scale       =       0.3333333333333333 [-]
	 SCS Opposite-Spin Scale   =       1.2000000000000000 [-]
	 SCS Same-Spin Energy      =      -0.0734679666017092 [Eh]
	 SCS Opposite-Spin Energy  =      -0.9384028807567062 [Eh]
	 SCS Correlation Energy    =      -1.0118708473584155 [Eh]
	 SCS Total Energy          =    -212.2395128323566098 [Eh]
	-----------------------------------------------------------

  Dipole Moment: [D]
     X:     0.3523      Y:     2.3877      Z:     0.2332     Total:     2.4248

*** Psi4 exiting successfully. Buy a developer a beer!
