                               Psi4 1.4a3.dev225

  ==> Input File <==

--------------------------------------------------------------------------
#psi4
#
memory 32 gb

molecule  {
0 1
  N       -1.3248030    -1.1740260    -0.2505360
  C        0.8182300    -0.4554710     0.5470430
  C       -0.5717492    -0.1760628     0.0956861
  C        1.8790820     0.1519800    -0.3759300
  C       -1.0163770     1.2764630     0.0491600
  H        0.9506150    -0.0630590     1.5639460
  H        0.9302930    -1.5419040     0.5914080
  H        2.8813100    -0.1399000    -0.0505570
  H        1.8374890     1.2445300    -0.3804150
  H        1.7406910    -0.2009300    -1.4019490
  H       -0.7901170     1.7727720     0.9986380
  H       -0.4789730     1.8177080    -0.7361320
  H       -2.0886730     1.3644810    -0.1460260
  H       -2.2520240    -0.8395090    -0.5445200
units angstrom
no_reorient  #important for SAPT in psi4, default
symmetry c1  #important for SAPT in psi4, default
}

set PROPERTIES_ORIGIN ["COM"]
properties('MP2/aug-cc-pvtz', properties = ['dipole'])
--------------------------------------------------------------------------

    Molecular point group: c1
  Charge       = 0
  Multiplicity = 1
  Basis Set: AUG-CC-PVTZ
    Blend: AUG-CC-PVTZ
  Basis Set: (AUG-CC-PVTZ AUX)
    Blend: AUG-CC-PVTZ-JKFIT

    Orbital Energies [Eh]
    ---------------------

    Doubly Occupied:

       1A    -15.541253     2A    -11.285822     3A    -11.236268
       4A    -11.227361     5A    -11.224273     6A     -1.200197
       7A     -1.046119     8A     -0.979544     9A     -0.879959
      10A     -0.732030    11A     -0.654153    12A     -0.617366
      13A     -0.602844    14A     -0.582652    15A     -0.554536
      16A     -0.524123    17A     -0.503058    18A     -0.490396
      19A     -0.410705    20A     -0.405107

  @DF-RHF Final Energy:  -211.22667127103563

   => Energetics <=

    Nuclear Repulsion Energy =            176.6665888040530774
    One-Electron Energy =                -634.3909912991308602
    Two-Electron Energy =                 246.4977312240421838
    Total Energy =                       -211.2266712710356273
  Basis Set: (AUG-CC-PVTZ AUX)
    Blend: AUG-CC-PVTZ-RI
    Molecular point group: c1

    Geometry (in Angstrom), charge = 0, multiplicity = 1:

       Center              X                  Y                   Z               Mass
    ------------   -----------------  -----------------  -----------------  -----------------
         N           -1.289781413109    -1.125679464987    -0.253023589253    14.003074004430
         C            0.853251586891    -0.407124464987     0.544555410747    12.000000000000
         C           -0.536727613109    -0.127716264987     0.093198510747    12.000000000000
         C            1.914103586891     0.200326535013    -0.378417589253    12.000000000000
         C           -0.981355413109     1.324809535013     0.046672410747    12.000000000000
         H            0.985636586891    -0.014712464987     1.561458410747     1.007825032230
         H            0.965314586891    -1.493557464987     0.588920410747     1.007825032230
         H            2.916331586891    -0.091553464987    -0.053044589253     1.007825032230
         H            1.872510586891     1.292876535013    -0.382902589253     1.007825032230
         H            1.775712586891    -0.152583464987    -1.404436589253     1.007825032230
         H           -0.755095413109     1.821118535013     0.996150410747     1.007825032230
         H           -0.443951413109     1.866054535013    -0.738619589253     1.007825032230
         H           -2.053651413109     1.412827535013    -0.148513589253     1.007825032230
         H           -2.217002413109    -0.791162464987    -0.547007589253     1.007825032230

  Basis Set: AUG-CC-PVTZ
    Blend: AUG-CC-PVTZ
  Basis Set: (AUG-CC-PVTZ AUX)
    Blend: AUG-CC-PVTZ-JKFIT
	 Reference Energy          =    -211.2266712710356273 [Eh]
	 Singles Energy            =      -0.0000000000000000 [Eh]
	 Same-Spin Energy          =      -0.2207245677769978 [Eh]
	 Opposite-Spin Energy      =      -0.7825235133076204 [Eh]
	 Correlation Energy        =      -1.0032480810846183 [Eh]
	 Total Energy              =    -212.2299193521202483 [Eh]

	 ================> DF-SCS-MP2 Energies <==================
	-----------------------------------------------------------
	 SCS Same-Spin Scale       =       0.3333333333333333 [-]
	 SCS Opposite-Spin Scale   =       1.2000000000000000 [-]
	 SCS Same-Spin Energy      =      -0.0735748559256659 [Eh]
	 SCS Opposite-Spin Energy  =      -0.9390282159691444 [Eh]
	 SCS Correlation Energy    =      -1.0126030718948102 [Eh]
	 SCS Total Energy          =    -212.2392743429304289 [Eh]
	-----------------------------------------------------------

  Dipole Moment: [D]
     X:     0.4034      Y:     2.3793      Z:     0.2480     Total:     2.4259

*** Psi4 exiting successfully. Buy a developer a beer!
