                               Psi4 1.4a3.dev225

  ==> Input File <==

--------------------------------------------------------------------------
#psi4
#
memory 32 gb

molecule  {
0 1
  N       -1.3248030    -1.1740260    -0.2505360
  C        0.8182300    -0.4554710     0.5470430
  C       -0.5904330    -0.1723070     0.0896190
  C        1.8790820     0.1519800    -0.3759300
  C       -1.0163770     1.2764630     0.0491600
  H        0.9506150    -0.0630590     1.5639460
  H        0.9302930    -1.5419040     0.5914080
  H        2.8813100    -0.1399000    -0.0505570
  H        1.8374890     1.2445300    -0.3804150
  H        1.7406910    -0.2009300    -1.4019490
  H       -0.7901170     1.7727720     0.9986380
  H       -0.4789730     1.8177080    -0.7361320
  H       -2.0886730     1.3644810    -0.1460260
  H       -2.2700524    -0.8330048    -0.5502361
units angstrom
no_reorient  #important for SAPT in psi4, default
symmetry c1  #important for SAPT in psi4, default
}

set PROPERTIES_ORIGIN ["COM"]
properties('MP2/aug-cc-pvtz', properties = ['dipole'])
--------------------------------------------------------------------------

    Molecular point group: c1
  Charge       = 0
  Multiplicity = 1
  Basis Set: AUG-CC-PVTZ
    Blend: AUG-CC-PVTZ
  Basis Set: (AUG-CC-PVTZ AUX)
    Blend: AUG-CC-PVTZ-JKFIT

    Orbital Energies [Eh]
    ---------------------

    Doubly Occupied:

       1A    -15.543628     2A    -11.284727     3A    -11.236148
       4A    -11.227423     5A    -11.223391     6A     -1.202410
       7A     -1.043390     8A     -0.981435     9A     -0.875773
      10A     -0.729299    11A     -0.652028    12A     -0.617115
      13A     -0.604065    14A     -0.583001    15A     -0.554062
      16A     -0.522686    17A     -0.500729    18A     -0.489582
      19A     -0.410620    20A     -0.408546

  @DF-RHF Final Energy:  -211.22671957708965

   => Energetics <=

    Nuclear Repulsion Energy =            176.5446822822322304
    One-Electron Energy =                -634.1626841531037826
    Two-Electron Energy =                 246.3912822937819271
    Total Energy =                       -211.2267195770896535
  Basis Set: (AUG-CC-PVTZ AUX)
    Blend: AUG-CC-PVTZ-RI
    Molecular point group: c1

    Geometry (in Angstrom), charge = 0, multiplicity = 1:

       Center              X                  Y                   Z               Mass
    ------------   -----------------  -----------------  -----------------  -----------------
         N           -1.286371209936    -1.126405821450    -0.251918169801    14.003074004430
         C            0.856661790064    -0.407850821450     0.545660830199    12.000000000000
         C           -0.552001209936    -0.124686821450     0.088236830199    12.000000000000
         C            1.917513790064     0.199600178550    -0.377312169801    12.000000000000
         C           -0.977945209936     1.324083178550     0.047777830199    12.000000000000
         H            0.989046790064    -0.015438821450     1.562563830199     1.007825032230
         H            0.968724790064    -1.494283821450     0.590025830199     1.007825032230
         H            2.919741790064    -0.092279821450    -0.051939169801     1.007825032230
         H            1.875920790064     1.292150178550    -0.381797169801     1.007825032230
         H            1.779122790064    -0.153309821450    -1.403331169801     1.007825032230
         H           -0.751685209936     1.820392178550     0.997255830199     1.007825032230
         H           -0.440541209936     1.865328178550    -0.737514169801     1.007825032230
         H           -2.050241209936     1.412101178550    -0.147408169801     1.007825032230
         H           -2.231620609936    -0.785384621450    -0.551618269801     1.007825032230

  Basis Set: AUG-CC-PVTZ
    Blend: AUG-CC-PVTZ
  Basis Set: (AUG-CC-PVTZ AUX)
    Blend: AUG-CC-PVTZ-JKFIT
	 Reference Energy          =    -211.2267195770896535 [Eh]
	 Singles Energy            =      -0.0000000000000000 [Eh]
	 Same-Spin Energy          =      -0.2206405518566335 [Eh]
	 Opposite-Spin Energy      =      -0.7824918432838712 [Eh]
	 Correlation Energy        =      -1.0031323951405047 [Eh]
	 Total Energy              =    -212.2298519722301648 [Eh]

	 ================> DF-SCS-MP2 Energies <==================
	-----------------------------------------------------------
	 SCS Same-Spin Scale       =       0.3333333333333333 [-]
	 SCS Opposite-Spin Scale   =       1.2000000000000000 [-]
	 SCS Same-Spin Energy      =      -0.0735468506188778 [Eh]
	 SCS Opposite-Spin Energy  =      -0.9389902119406455 [Eh]
	 SCS Correlation Energy    =      -1.0125370625595234 [Eh]
	 SCS Total Energy          =    -212.2392566396491702 [Eh]
	-----------------------------------------------------------

  Dipole Moment: [D]
     X:     0.3541      Y:     2.3828      Z:     0.2361     Total:     2.4205

*** Psi4 exiting successfully. Buy a developer a beer!
