                               Psi4 1.4a3.dev225

  ==> Input File <==

--------------------------------------------------------------------------
#psi4
#
memory 32 gb

molecule  {
0 1
  N       -1.3248030    -1.1740260    -0.2505360
  C        0.8182300    -0.4554710     0.5470430
  C       -0.5904330    -0.1723070     0.0896190
  C        1.8790820     0.1519800    -0.3759300
  C       -1.0163770     1.2764630     0.0491600
  H        0.9506150    -0.0630590     1.5639460
  H        0.9302930    -1.5419040     0.5914080
  H        2.8663024    -0.1066996     0.0165025
  H        1.8374890     1.2445300    -0.3804150
  H        1.7406910    -0.2009300    -1.4019490
  H       -0.7901170     1.7727720     0.9986380
  H       -0.4789730     1.8177080    -0.7361320
  H       -2.0886730     1.3644810    -0.1460260
  H       -2.2520240    -0.8395090    -0.5445200
units angstrom
no_reorient  #important for SAPT in psi4, default
symmetry c1  #important for SAPT in psi4, default
}

set PROPERTIES_ORIGIN ["COM"]
properties('MP2/aug-cc-pvtz', properties = ['dipole'])
--------------------------------------------------------------------------

    Molecular point group: c1
  Charge       = 0
  Multiplicity = 1
  Basis Set: AUG-CC-PVTZ
    Blend: AUG-CC-PVTZ
  Basis Set: (AUG-CC-PVTZ AUX)
    Blend: AUG-CC-PVTZ-JKFIT

    Orbital Energies [Eh]
    ---------------------

    Doubly Occupied:

       1A    -15.540991     2A    -11.284363     3A    -11.236061
       4A    -11.226827     5A    -11.223509     6A     -1.203848
       7A     -1.044370     8A     -0.981611     9A     -0.875737
      10A     -0.731497    11A     -0.653033    12A     -0.618577
      13A     -0.604945    14A     -0.583330    15A     -0.553175
      16A     -0.521701    17A     -0.503064    18A     -0.487993
      19A     -0.411117    20A     -0.408253

  @DF-RHF Final Energy:  -211.22724633929920

   => Energetics <=

    Nuclear Repulsion Energy =            176.6723005947783918
    One-Electron Energy =                -634.4110865078123425
    Two-Electron Energy =                 246.5115395737347512
    Total Energy =                       -211.2272463392991995
  Basis Set: (AUG-CC-PVTZ AUX)
    Blend: AUG-CC-PVTZ-RI
    Molecular point group: c1

    Geometry (in Angstrom), charge = 0, multiplicity = 1:

       Center              X                  Y                   Z               Mass
    ------------   -----------------  -----------------  -----------------  -----------------
         N           -1.286414044999    -1.126784374622    -0.252950130689    14.003074004430
         C            0.856618955001    -0.408229374622     0.544628869311    12.000000000000
         C           -0.552044044999    -0.125065374622     0.087204869311    12.000000000000
         C            1.917470955001     0.199221625378    -0.378344130689    12.000000000000
         C           -0.977988044999     1.323704625378     0.046745869311    12.000000000000
         H            0.989003955001    -0.015817374622     1.561531869311     1.007825032230
         H            0.968681955001    -1.494662374622     0.588993869311     1.007825032230
         H            2.904691355001    -0.059457974622     0.014088369311     1.007825032230
         H            1.875877955001     1.291771625378    -0.382829130689     1.007825032230
         H            1.779079955001    -0.153688374622    -1.404363130689     1.007825032230
         H           -0.751728044999     1.820013625378     0.996223869311     1.007825032230
         H           -0.440584044999     1.864949625378    -0.738546130689     1.007825032230
         H           -2.050284044999     1.411722625378    -0.148440130689     1.007825032230
         H           -2.213635044999    -0.792267374622    -0.546934130689     1.007825032230

  Basis Set: AUG-CC-PVTZ
    Blend: AUG-CC-PVTZ
  Basis Set: (AUG-CC-PVTZ AUX)
    Blend: AUG-CC-PVTZ-JKFIT
	 Reference Energy          =    -211.2272463392991995 [Eh]
	 Singles Energy            =      -0.0000000000000000 [Eh]
	 Same-Spin Energy          =      -0.2205354934852783 [Eh]
	 Opposite-Spin Energy      =      -0.7821390729327700 [Eh]
	 Correlation Energy        =      -1.0026745664180483 [Eh]
	 Total Energy              =    -212.2299209057172504 [Eh]

	 ================> DF-SCS-MP2 Energies <==================
	-----------------------------------------------------------
	 SCS Same-Spin Scale       =       0.3333333333333333 [-]
	 SCS Opposite-Spin Scale   =       1.2000000000000000 [-]
	 SCS Same-Spin Energy      =      -0.0735118311617594 [Eh]
	 SCS Opposite-Spin Energy  =      -0.9385668875193239 [Eh]
	 SCS Correlation Energy    =      -1.0120787186810833 [Eh]
	 SCS Total Energy          =    -212.2393250579802952 [Eh]
	-----------------------------------------------------------

  Dipole Moment: [D]
     X:     0.3488      Y:     2.4016      Z:     0.2527     Total:     2.4399

*** Psi4 exiting successfully. Buy a developer a beer!
