                               Psi4 1.4a3.dev225

  ==> Input File <==

--------------------------------------------------------------------------
#psi4
#
memory 32 gb

molecule  {
0 1
  N       -1.3248030    -1.1740260    -0.2505360
  C        0.8182300    -0.4554710     0.5470430
  C       -0.5904330    -0.1723070     0.0896190
  C        1.8790820     0.1519800    -0.3759300
  C       -1.0107377     1.2572820     0.0496957
  H        0.9506150    -0.0630590     1.5639460
  H        0.9302930    -1.5419040     0.5914080
  H        2.8813100    -0.1399000    -0.0505570
  H        1.8374890     1.2445300    -0.3804150
  H        1.7406910    -0.2009300    -1.4019490
  H       -0.7901170     1.7727720     0.9986380
  H       -0.4789730     1.8177080    -0.7361320
  H       -2.0886730     1.3644810    -0.1460260
  H       -2.2520240    -0.8395090    -0.5445200
units angstrom
no_reorient  #important for SAPT in psi4, default
symmetry c1  #important for SAPT in psi4, default
}

set PROPERTIES_ORIGIN ["COM"]
properties('MP2/aug-cc-pvtz', properties = ['dipole'])
--------------------------------------------------------------------------

    Molecular point group: c1
  Charge       = 0
  Multiplicity = 1
  Basis Set: AUG-CC-PVTZ
    Blend: AUG-CC-PVTZ
  Basis Set: (AUG-CC-PVTZ AUX)
    Blend: AUG-CC-PVTZ-JKFIT

    Orbital Energies [Eh]
    ---------------------

    Doubly Occupied:

       1A    -15.541093     2A    -11.283766     3A    -11.237096
       4A    -11.227098     5A    -11.223250     6A     -1.205181
       7A     -1.044442     8A     -0.982704     9A     -0.876170
      10A     -0.732424    11A     -0.655583    12A     -0.617949
      13A     -0.604863    14A     -0.581887    15A     -0.552441
      16A     -0.521861    17A     -0.499681    18A     -0.489492
      19A     -0.412806    20A     -0.407931

  @DF-RHF Final Energy:  -211.22717541865308

   => Energetics <=

    Nuclear Repulsion Energy =            176.9145747276548377
    One-Electron Energy =                -634.8880643766112826
    Two-Electron Energy =                 246.7463142303033692
    Total Energy =                       -211.2271754186530757
  Basis Set: (AUG-CC-PVTZ AUX)
    Blend: AUG-CC-PVTZ-RI
    Molecular point group: c1

    Geometry (in Angstrom), charge = 0, multiplicity = 1:

       Center              X                  Y                   Z               Mass
    ------------   -----------------  -----------------  -----------------  -----------------
         N           -1.287578988836    -1.123075084988    -0.252089671539    14.003074004430
         C            0.855454011164    -0.404520084988     0.545489328461    12.000000000000
         C           -0.553208988836    -0.121356084988     0.088065328461    12.000000000000
         C            1.916306011164     0.202930915012    -0.377483671539    12.000000000000
         C           -0.973513688836     1.308232915012     0.048142028461    12.000000000000
         H            0.987839011164    -0.012108084988     1.562392328461     1.007825032230
         H            0.967517011164    -1.490953084988     0.589854328461     1.007825032230
         H            2.918534011164    -0.088949084988    -0.052110671539     1.007825032230
         H            1.874713011164     1.295480915012    -0.381968671539     1.007825032230
         H            1.777915011164    -0.149979084988    -1.403502671539     1.007825032230
         H           -0.752892988836     1.823722915012     0.997084328461     1.007825032230
         H           -0.441748988836     1.868658915012    -0.737685671539     1.007825032230
         H           -2.051448988836     1.415431915012    -0.147579671539     1.007825032230
         H           -2.214799988836    -0.788558084988    -0.546073671539     1.007825032230

  Basis Set: AUG-CC-PVTZ
    Blend: AUG-CC-PVTZ
  Basis Set: (AUG-CC-PVTZ AUX)
    Blend: AUG-CC-PVTZ-JKFIT
	 Reference Energy          =    -211.2271754186530757 [Eh]
	 Singles Energy            =      -0.0000000000000000 [Eh]
	 Same-Spin Energy          =      -0.2206778237601683 [Eh]
	 Opposite-Spin Energy      =      -0.7822480482286959 [Eh]
	 Correlation Energy        =      -1.0029258719888641 [Eh]
	 Total Energy              =    -212.2301012906419260 [Eh]

	 ================> DF-SCS-MP2 Energies <==================
	-----------------------------------------------------------
	 SCS Same-Spin Scale       =       0.3333333333333333 [-]
	 SCS Opposite-Spin Scale   =       1.2000000000000000 [-]
	 SCS Same-Spin Energy      =      -0.0735592745867228 [Eh]
	 SCS Opposite-Spin Energy  =      -0.9386976578744350 [Eh]
	 SCS Correlation Energy    =      -1.0122569324611579 [Eh]
	 SCS Total Energy          =    -212.2394323511142318 [Eh]
	-----------------------------------------------------------

  Dipole Moment: [D]
     X:     0.3430      Y:     2.4095      Z:     0.2342     Total:     2.4450

*** Psi4 exiting successfully. Buy a developer a beer!
