                               Psi4 1.4a3.dev225

  ==> Input File <==

--------------------------------------------------------------------------
#psi4
#
memory 32 gb

molecule  {
0 1
  N       -1.3248030    -1.1740260    -0.2505360
  C        0.8182300    -0.4554710     0.5470430
  C       -0.5904330    -0.1723070     0.0896190
  C        1.8790820     0.1519800    -0.3759300
  C       -1.0163770     1.2764630     0.0491600
  H        0.9506150    -0.0630590     1.5639460
  H        0.9302930    -1.5419040     0.5914080
  H        2.8813100    -0.1399000    -0.0505570
  H        1.8374890     1.2445300    -0.3804150
  H        1.7406910    -0.2009300    -1.4019490
  H       -0.7901170     1.7727720     0.9986380
  H       -0.4789730     1.8177080    -0.7361320
  H       -2.0886730     1.3644810    -0.1460260
  H       -2.1618821    -0.8720298    -0.5159397
units angstrom
no_reorient  #important for SAPT in psi4, default
symmetry c1  #important for SAPT in psi4, default
}

set PROPERTIES_ORIGIN ["COM"]
properties('MP2/aug-cc-pvtz', properties = ['dipole'])
--------------------------------------------------------------------------

    Molecular point group: c1
  Charge       = 0
  Multiplicity = 1
  Basis Set: AUG-CC-PVTZ
    Blend: AUG-CC-PVTZ
  Basis Set: (AUG-CC-PVTZ AUX)
    Blend: AUG-CC-PVTZ-JKFIT

    Orbital Energies [Eh]
    ---------------------

    Doubly Occupied:

       1A    -15.528424     2A    -11.285208     3A    -11.236748
       4A    -11.226334     5A    -11.223065     6A     -1.214871
       7A     -1.048234     8A     -0.983180     9A     -0.879900
      10A     -0.745468    11A     -0.660882    12A     -0.618646
      13A     -0.605342    14A     -0.584318    15A     -0.554190
      16A     -0.522651    17A     -0.500823    18A     -0.489431
      19A     -0.414883    20A     -0.409169

  @DF-RHF Final Energy:  -211.22247884352814

   => Energetics <=

    Nuclear Repulsion Energy =            177.1630771098890875
    One-Electron Energy =                -635.3075798721123419
    Two-Electron Energy =                 246.9220239186951460
    Total Energy =                       -211.2224788435281368
  Basis Set: (AUG-CC-PVTZ AUX)
    Blend: AUG-CC-PVTZ-RI
    Molecular point group: c1

    Geometry (in Angstrom), charge = 0, multiplicity = 1:

       Center              X                  Y                   Z               Mass
    ------------   -----------------  -----------------  -----------------  -----------------
         N           -1.287905069070    -1.125852445406    -0.252404494110    14.003074004430
         C            0.855127930930    -0.407297445406     0.545174505890    12.000000000000
         C           -0.553535069070    -0.124133445406     0.087750505890    12.000000000000
         C            1.915979930930     0.200153554594    -0.377798494110    12.000000000000
         C           -0.979479069070     1.324636554594     0.047291505890    12.000000000000
         H            0.987512930930    -0.014885445406     1.562077505890     1.007825032230
         H            0.967190930930    -1.493730445406     0.589539505890     1.007825032230
         H            2.918207930930    -0.091726445406    -0.052425494110     1.007825032230
         H            1.874386930930     1.292703554594    -0.382283494110     1.007825032230
         H            1.777588930930    -0.152756445406    -1.403817494110     1.007825032230
         H           -0.753219069070     1.820945554594     0.996769505890     1.007825032230
         H           -0.442075069070     1.865881554594    -0.738000494110     1.007825032230
         H           -2.051775069070     1.412654554594    -0.147894494110     1.007825032230
         H           -2.124984169070    -0.823856245406    -0.517808194110     1.007825032230

  Basis Set: AUG-CC-PVTZ
    Blend: AUG-CC-PVTZ
  Basis Set: (AUG-CC-PVTZ AUX)
    Blend: AUG-CC-PVTZ-JKFIT
	 Reference Energy          =    -211.2224788435281368 [Eh]
	 Singles Energy            =      -0.0000000000000000 [Eh]
	 Same-Spin Energy          =      -0.2198579691593144 [Eh]
	 Opposite-Spin Energy      =      -0.7802720604105594 [Eh]
	 Correlation Energy        =      -1.0001300295698738 [Eh]
	 Total Energy              =    -212.2226088730980109 [Eh]

	 ================> DF-SCS-MP2 Energies <==================
	-----------------------------------------------------------
	 SCS Same-Spin Scale       =       0.3333333333333333 [-]
	 SCS Opposite-Spin Scale   =       1.2000000000000000 [-]
	 SCS Same-Spin Energy      =      -0.0732859897197715 [Eh]
	 SCS Opposite-Spin Energy  =      -0.9363264724926712 [Eh]
	 SCS Correlation Energy    =      -1.0096124622124427 [Eh]
	 SCS Total Energy          =    -212.2320913057405676 [Eh]
	-----------------------------------------------------------

  Dipole Moment: [D]
     X:     0.3267      Y:     2.4057      Z:     0.2321     Total:     2.4389

*** Psi4 exiting successfully. Buy a developer a beer!
