                               Psi4 1.4a3.dev225

  ==> Input File <==

--------------------------------------------------------------------------
#psi4
#
memory 32 gb

molecule  {
0 1
  N       -1.3248030    -1.1740260    -0.2505360
  C        0.8182300    -0.4554710     0.5470430
  C       -0.5904330    -0.1723070     0.0896190
  C        1.8790820     0.1519800    -0.3759300
  C       -1.0163770     1.2764630     0.0491600
  H        0.9506150    -0.0630590     1.5639460
  H        0.9302930    -1.5419040     0.5914080
  H        2.8813100    -0.1399000    -0.0505570
  H        1.8374890     1.2445300    -0.3804150
  H        1.7659955    -0.1364012    -1.2143438
  H       -0.7901170     1.7727720     0.9986380
  H       -0.4789730     1.8177080    -0.7361320
  H       -2.0886730     1.3644810    -0.1460260
  H       -2.2520240    -0.8395090    -0.5445200
units angstrom
no_reorient  #important for SAPT in psi4, default
symmetry c1  #important for SAPT in psi4, default
}

set PROPERTIES_ORIGIN ["COM"]
properties('MP2/aug-cc-pvtz', properties = ['dipole'])
--------------------------------------------------------------------------

    Molecular point group: c1
  Charge       = 0
  Multiplicity = 1
  Basis Set: AUG-CC-PVTZ
    Blend: AUG-CC-PVTZ
  Basis Set: (AUG-CC-PVTZ AUX)
    Blend: AUG-CC-PVTZ-JKFIT

    Orbital Energies [Eh]
    ---------------------

    Doubly Occupied:

       1A    -15.541021     2A    -11.284461     3A    -11.236089
       4A    -11.225457     5A    -11.198433     6A     -1.203997
       7A     -1.053159     8A     -0.984727     9A     -0.893697
      10A     -0.735143    11A     -0.655912    12A     -0.621952
      13A     -0.609236    14A     -0.592570    15A     -0.554015
      16A     -0.529913    17A     -0.507558    18A     -0.490108
      19A     -0.411190    20A     -0.408180

  @DF-RHF Final Energy:  -211.19359039128895

   => Energetics <=

    Nuclear Repulsion Energy =            177.5403565930514844
    One-Electron Energy =                -635.9942612703381428
    Two-Electron Energy =                 247.2603142859977368
    Total Energy =                       -211.1935903912889501
  Basis Set: (AUG-CC-PVTZ AUX)
    Blend: AUG-CC-PVTZ-RI
    Molecular point group: c1

    Geometry (in Angstrom), charge = 0, multiplicity = 1:

       Center              X                  Y                   Z               Mass
    ------------   -----------------  -----------------  -----------------  -----------------
         N           -1.286985672172    -1.127228612574    -0.254659473484    14.003074004430
         C            0.856047327828    -0.408673612574     0.542919526516    12.000000000000
         C           -0.552615672172    -0.125509612574     0.085495526516    12.000000000000
         C            1.916899327828     0.198777387426    -0.380053473484    12.000000000000
         C           -0.978559672172     1.323260387426     0.045036526516    12.000000000000
         H            0.988432327828    -0.016261612574     1.559822526516     1.007825032230
         H            0.968110327828    -1.495106612574     0.587284526516     1.007825032230
         H            2.919127327828    -0.093102612574    -0.054680473484     1.007825032230
         H            1.875306327828     1.291327387426    -0.384538473484     1.007825032230
         H            1.803812827828    -0.089603812574    -1.218467273484     1.007825032230
         H           -0.752299672172     1.819569387426     0.994514526516     1.007825032230
         H           -0.441155672172     1.864505387426    -0.740255473484     1.007825032230
         H           -2.050855672172     1.411278387426    -0.150149473484     1.007825032230
         H           -2.214206672172    -0.792711612574    -0.548643473484     1.007825032230

  Basis Set: AUG-CC-PVTZ
    Blend: AUG-CC-PVTZ
  Basis Set: (AUG-CC-PVTZ AUX)
    Blend: AUG-CC-PVTZ-JKFIT
	 Reference Energy          =    -211.1935903912889501 [Eh]
	 Singles Energy            =      -0.0000000000000000 [Eh]
	 Same-Spin Energy          =      -0.2206818314500554 [Eh]
	 Opposite-Spin Energy      =      -0.7815745924777151 [Eh]
	 Correlation Energy        =      -1.0022564239277705 [Eh]
	 Total Energy              =    -212.1958468152167256 [Eh]

	 ================> DF-SCS-MP2 Energies <==================
	-----------------------------------------------------------
	 SCS Same-Spin Scale       =       0.3333333333333333 [-]
	 SCS Opposite-Spin Scale   =       1.2000000000000000 [-]
	 SCS Same-Spin Energy      =      -0.0735606104833518 [Eh]
	 SCS Opposite-Spin Energy  =      -0.9378895109732581 [Eh]
	 SCS Correlation Energy    =      -1.0114501214566098 [Eh]
	 SCS Total Energy          =    -212.2050405127455690 [Eh]
	-----------------------------------------------------------

  Dipole Moment: [D]
     X:     0.3631      Y:     2.3778      Z:     0.1550     Total:     2.4103

*** Psi4 exiting successfully. Buy a developer a beer!
