                               Psi4 1.4a3.dev225

  ==> Input File <==

--------------------------------------------------------------------------
#psi4
#
memory 32 gb

molecule  {
0 1
  N       -1.2191006    -1.2523874    -0.2212653
  C        0.8182300    -0.4554710     0.5470430
  C       -0.5904330    -0.1723070     0.0896190
  C        1.8790820     0.1519800    -0.3759300
  C       -1.0163770     1.2764630     0.0491600
  H        0.9506150    -0.0630590     1.5639460
  H        0.9302930    -1.5419040     0.5914080
  H        2.8813100    -0.1399000    -0.0505570
  H        1.8374890     1.2445300    -0.3804150
  H        1.7406910    -0.2009300    -1.4019490
  H       -0.7901170     1.7727720     0.9986380
  H       -0.4789730     1.8177080    -0.7361320
  H       -2.0886730     1.3644810    -0.1460260
  H       -2.2520240    -0.8395090    -0.5445200
units angstrom
no_reorient  #important for SAPT in psi4, default
symmetry c1  #important for SAPT in psi4, default
}

set PROPERTIES_ORIGIN ["COM"]
properties('MP2/aug-cc-pvtz', properties = ['dipole'])
--------------------------------------------------------------------------

    Molecular point group: c1
  Charge       = 0
  Multiplicity = 1
  Basis Set: AUG-CC-PVTZ
    Blend: AUG-CC-PVTZ
  Basis Set: (AUG-CC-PVTZ AUX)
    Blend: AUG-CC-PVTZ-JKFIT

    Orbital Energies [Eh]
    ---------------------

    Doubly Occupied:

       1A    -15.559999     2A    -11.285050     3A    -11.242566
       4A    -11.223075     5A    -11.221223     6A     -1.202448
       7A     -1.037732     8A     -0.986954     9A     -0.870206
      10A     -0.715935    11A     -0.645078    12A     -0.616002
      13A     -0.602635    14A     -0.579579    15A     -0.555158
      16A     -0.519974    17A     -0.497233    18A     -0.487435
      19A     -0.414902    20A     -0.411026

  @DF-RHF Final Energy:  -211.20765369537509

   => Energetics <=

    Nuclear Repulsion Energy =            176.5078159311140382
    One-Electron Energy =                -634.0825210295698753
    Two-Electron Energy =                 246.3670514030807794
    Total Energy =                       -211.2076536953750860
  Basis Set: (AUG-CC-PVTZ AUX)
    Blend: AUG-CC-PVTZ-RI
    Molecular point group: c1

    Geometry (in Angstrom), charge = 0, multiplicity = 1:

       Center              X                  Y                   Z               Mass
    ------------   -----------------  -----------------  -----------------  -----------------
         N           -1.201750197757    -1.189236037678    -0.228495508958    14.003074004430
         C            0.835580402243    -0.392319637678     0.539812791042    12.000000000000
         C           -0.573082597757    -0.109155637678     0.082388791042    12.000000000000
         C            1.896432402243     0.215131362322    -0.383160208958    12.000000000000
         C           -0.999026597757     1.339614362322     0.041929791042    12.000000000000
         H            0.967965402243     0.000092362322     1.556715791042     1.007825032230
         H            0.947643402243    -1.478752637678     0.584177791042     1.007825032230
         H            2.898660402243    -0.076748637678    -0.057787208958     1.007825032230
         H            1.854839402243     1.307681362322    -0.387645208958     1.007825032230
         H            1.758041402243    -0.137778637678    -1.409179208958     1.007825032230
         H           -0.772766597757     1.835923362322     0.991407791042     1.007825032230
         H           -0.461622597757     1.880859362322    -0.743362208958     1.007825032230
         H           -2.071322597757     1.427632362322    -0.153256208958     1.007825032230
         H           -2.234673597757    -0.776357637678    -0.551750208958     1.007825032230

  Basis Set: AUG-CC-PVTZ
    Blend: AUG-CC-PVTZ
  Basis Set: (AUG-CC-PVTZ AUX)
    Blend: AUG-CC-PVTZ-JKFIT
	 Reference Energy          =    -211.2076536953750860 [Eh]
	 Singles Energy            =      -0.0000000000000000 [Eh]
	 Same-Spin Energy          =      -0.2220823955956282 [Eh]
	 Opposite-Spin Energy      =      -0.7862644858444710 [Eh]
	 Correlation Energy        =      -1.0083468814400991 [Eh]
	 Total Energy              =    -212.2160005768151905 [Eh]

	 ================> DF-SCS-MP2 Energies <==================
	-----------------------------------------------------------
	 SCS Same-Spin Scale       =       0.3333333333333333 [-]
	 SCS Opposite-Spin Scale   =       1.2000000000000000 [-]
	 SCS Same-Spin Energy      =      -0.0740274651985427 [Eh]
	 SCS Opposite-Spin Energy  =      -0.9435173830133651 [Eh]
	 SCS Correlation Energy    =      -1.0175448482119078 [Eh]
	 SCS Total Energy          =    -212.2251985435869983 [Eh]
	-----------------------------------------------------------

  Dipole Moment: [D]
     X:     0.2493      Y:     2.5054      Z:     0.2298     Total:     2.5282

*** Psi4 exiting successfully. Buy a developer a beer!
