                               Psi4 1.4a3.dev225

  ==> Input File <==

--------------------------------------------------------------------------
#psi4
#
memory 32 gb

molecule  {
0 1
  N       -1.3248030    -1.1740260    -0.2505360
  C        0.8182300    -0.4554710     0.5470430
  C       -0.6958798    -0.0938815     0.0596075
  C        1.8790820     0.1519800    -0.3759300
  C       -1.0163770     1.2764630     0.0491600
  H        0.9506150    -0.0630590     1.5639460
  H        0.9302930    -1.5419040     0.5914080
  H        2.8813100    -0.1399000    -0.0505570
  H        1.8374890     1.2445300    -0.3804150
  H        1.7406910    -0.2009300    -1.4019490
  H       -0.7901170     1.7727720     0.9986380
  H       -0.4789730     1.8177080    -0.7361320
  H       -2.0886730     1.3644810    -0.1460260
  H       -2.2520240    -0.8395090    -0.5445200
units angstrom
no_reorient  #important for SAPT in psi4, default
symmetry c1  #important for SAPT in psi4, default
}

set PROPERTIES_ORIGIN ["COM"]
properties('MP2/aug-cc-pvtz', properties = ['dipole'])
--------------------------------------------------------------------------

    Molecular point group: c1
  Charge       = 0
  Multiplicity = 1
  Basis Set: AUG-CC-PVTZ
    Blend: AUG-CC-PVTZ
  Basis Set: (AUG-CC-PVTZ AUX)
    Blend: AUG-CC-PVTZ-JKFIT

    Orbital Energies [Eh]
    ---------------------

    Doubly Occupied:

       1A    -15.545664     2A    -11.285776     3A    -11.237424
       4A    -11.226502     5A    -11.218170     6A     -1.209742
       7A     -1.038788     8A     -1.003294     9A     -0.855674
      10A     -0.729879    11A     -0.654702    12A     -0.627587
      13A     -0.610762    14A     -0.587055    15A     -0.554635
      16A     -0.513452    17A     -0.490979    18A     -0.480169
      19A     -0.411789    20A     -0.409276

  @DF-RHF Final Energy:  -211.20771634685786

   => Energetics <=

    Nuclear Repulsion Energy =            176.3848330988382145
    One-Electron Energy =                -633.8024607632555671
    Two-Electron Energy =                 246.2099113175594880
    Total Energy =                       -211.2077163468578647
  Basis Set: (AUG-CC-PVTZ AUX)
    Blend: AUG-CC-PVTZ-RI
    Molecular point group: c1

    Geometry (in Angstrom), charge = 0, multiplicity = 1:

       Center              X                  Y                   Z               Mass
    ------------   -----------------  -----------------  -----------------  -----------------
         N           -1.268823289268    -1.139554898303    -0.246932103618    14.003074004430
         C            0.874209710732    -0.420999898303     0.550646896382    12.000000000000
         C           -0.639900089268    -0.059410398303     0.063211396382    12.000000000000
         C            1.935061710732     0.186451101697    -0.372326103618    12.000000000000
         C           -0.960397289268     1.310934101697     0.052763896382    12.000000000000
         H            1.006594710732    -0.028587898303     1.567549896382     1.007825032230
         H            0.986272710732    -1.507432898303     0.595011896382     1.007825032230
         H            2.937289710732    -0.105428898303    -0.046953103618     1.007825032230
         H            1.893468710732     1.279001101697    -0.376811103618     1.007825032230
         H            1.796670710732    -0.166458898303    -1.398345103618     1.007825032230
         H           -0.734137289268     1.807243101697     1.002241896382     1.007825032230
         H           -0.422993289268     1.852179101697    -0.732528103618     1.007825032230
         H           -2.032693289268     1.398952101697    -0.142422103618     1.007825032230
         H           -2.196044289268    -0.805037898303    -0.540916103618     1.007825032230

  Basis Set: AUG-CC-PVTZ
    Blend: AUG-CC-PVTZ
  Basis Set: (AUG-CC-PVTZ AUX)
    Blend: AUG-CC-PVTZ-JKFIT
	 Reference Energy          =    -211.2077163468578647 [Eh]
	 Singles Energy            =      -0.0000000000000000 [Eh]
	 Same-Spin Energy          =      -0.2215259553633914 [Eh]
	 Opposite-Spin Energy      =      -0.7839466055625579 [Eh]
	 Correlation Energy        =      -1.0054725609259494 [Eh]
	 Total Energy              =    -212.2131889077838025 [Eh]

	 ================> DF-SCS-MP2 Energies <==================
	-----------------------------------------------------------
	 SCS Same-Spin Scale       =       0.3333333333333333 [-]
	 SCS Opposite-Spin Scale   =       1.2000000000000000 [-]
	 SCS Same-Spin Energy      =      -0.0738419851211305 [Eh]
	 SCS Opposite-Spin Energy  =      -0.9407359266750694 [Eh]
	 SCS Correlation Energy    =      -1.0145779117961999 [Eh]
	 SCS Total Energy          =    -212.2222942586540739 [Eh]
	-----------------------------------------------------------

  Dipole Moment: [D]
     X:     0.0457      Y:     2.5733      Z:     0.1766     Total:     2.5797

*** Psi4 exiting successfully. Buy a developer a beer!
