                               Psi4 1.4a3.dev225

  ==> Input File <==

--------------------------------------------------------------------------
#psi4
#
memory 32 gb

molecule  {
0 1
  N       -1.3248030    -1.1740260    -0.2505360
  C        0.8182300    -0.4554710     0.5470430
  C       -0.5904330    -0.1723070     0.0896190
  C        1.8790820     0.1519800    -0.3759300
  C       -1.0163770     1.2764630     0.0491600
  H        0.9506150    -0.0630590     1.5639460
  H        0.9302930    -1.5419040     0.5914080
  H        2.8813100    -0.1399000    -0.0505570
  H        1.8374890     1.2445300    -0.3804150
  H        1.7406910    -0.2009300    -1.4019490
  H       -0.8644081     1.7897861     1.0043718
  H       -0.4789730     1.8177080    -0.7361320
  H       -2.0886730     1.3644810    -0.1460260
  H       -2.2520240    -0.8395090    -0.5445200
units angstrom
no_reorient  #important for SAPT in psi4, default
symmetry c1  #important for SAPT in psi4, default
}

set PROPERTIES_ORIGIN ["COM"]
properties('MP2/aug-cc-pvtz', properties = ['dipole'])
--------------------------------------------------------------------------

    Molecular point group: c1
  Charge       = 0
  Multiplicity = 1
  Basis Set: AUG-CC-PVTZ
    Blend: AUG-CC-PVTZ
  Basis Set: (AUG-CC-PVTZ AUX)
    Blend: AUG-CC-PVTZ-JKFIT

    Orbital Energies [Eh]
    ---------------------

    Doubly Occupied:

       1A    -15.541686     2A    -11.285195     3A    -11.235950
       4A    -11.227012     5A    -11.223136     6A     -1.204233
       7A     -1.043744     8A     -0.981417     9A     -0.876376
      10A     -0.732352    11A     -0.654578    12A     -0.616898
      13A     -0.603443    14A     -0.584013    15A     -0.552488
      16A     -0.522605    17A     -0.499754    18A     -0.488913
      19A     -0.411894    20A     -0.409198

  @DF-RHF Final Energy:  -211.22720259959132

   => Energetics <=

    Nuclear Repulsion Energy =            176.5694228255989628
    One-Electron Energy =                -634.2034835786453186
    Two-Electron Energy =                 246.4068581534550333
    Total Energy =                       -211.2272025995913225
  Basis Set: (AUG-CC-PVTZ AUX)
    Blend: AUG-CC-PVTZ-RI
    Molecular point group: c1

    Geometry (in Angstrom), charge = 0, multiplicity = 1:

       Center              X                  Y                   Z               Mass
    ------------   -----------------  -----------------  -----------------  -----------------
         N           -1.285573402624    -1.126554852248    -0.252080529836    14.003074004430
         C            0.857459597376    -0.407999852248     0.545498470164    12.000000000000
         C           -0.551203402624    -0.124835852248     0.088074470164    12.000000000000
         C            1.918311597376     0.199451147752    -0.377474529836    12.000000000000
         C           -0.977147402624     1.323934147752     0.047615470164    12.000000000000
         H            0.989844597376    -0.015587852248     1.562401470164     1.007825032230
         H            0.969522597376    -1.494432852248     0.589863470164     1.007825032230
         H            2.920539597376    -0.092428852248    -0.052101529836     1.007825032230
         H            1.876718597376     1.292001147752    -0.381959529836     1.007825032230
         H            1.779920597376    -0.153458852248    -1.403493529836     1.007825032230
         H           -0.825178502624     1.837257247752     1.002827270164     1.007825032230
         H           -0.439743402624     1.865179147752    -0.737676529836     1.007825032230
         H           -2.049443402624     1.411952147752    -0.147570529836     1.007825032230
         H           -2.212794402624    -0.792037852248    -0.546064529836     1.007825032230

  Basis Set: AUG-CC-PVTZ
    Blend: AUG-CC-PVTZ
  Basis Set: (AUG-CC-PVTZ AUX)
    Blend: AUG-CC-PVTZ-JKFIT
	 Reference Energy          =    -211.2272025995913225 [Eh]
	 Singles Energy            =      -0.0000000000000000 [Eh]
	 Same-Spin Energy          =      -0.2204996346888589 [Eh]
	 Opposite-Spin Energy      =      -0.7821154781975215 [Eh]
	 Correlation Energy        =      -1.0026151128863805 [Eh]
	 Total Energy              =    -212.2298177124777112 [Eh]

	 ================> DF-SCS-MP2 Energies <==================
	-----------------------------------------------------------
	 SCS Same-Spin Scale       =       0.3333333333333333 [-]
	 SCS Opposite-Spin Scale   =       1.2000000000000000 [-]
	 SCS Same-Spin Energy      =      -0.0734998782296196 [Eh]
	 SCS Opposite-Spin Energy  =      -0.9385385738370258 [Eh]
	 SCS Correlation Energy    =      -1.0120384520666454 [Eh]
	 SCS Total Energy          =    -212.2392410516579559 [Eh]
	-----------------------------------------------------------

  Dipole Moment: [D]
     X:     0.3177      Y:     2.3829      Z:     0.2480     Total:     2.4167

*** Psi4 exiting successfully. Buy a developer a beer!
