                               Psi4 1.4a3.dev225

  ==> Input File <==

--------------------------------------------------------------------------
#psi4
#
memory 32 gb

molecule  {
0 1
  N       -1.3248030    -1.1740260    -0.2505360
  C        0.8182300    -0.4554710     0.5470430
  C       -0.5904330    -0.1723070     0.0896190
  C        1.7405677     0.0726658    -0.2554184
  C       -1.0163770     1.2764630     0.0491600
  H        0.9506150    -0.0630590     1.5639460
  H        0.9302930    -1.5419040     0.5914080
  H        2.8813100    -0.1399000    -0.0505570
  H        1.8374890     1.2445300    -0.3804150
  H        1.7406910    -0.2009300    -1.4019490
  H       -0.7901170     1.7727720     0.9986380
  H       -0.4789730     1.8177080    -0.7361320
  H       -2.0886730     1.3644810    -0.1460260
  H       -2.2520240    -0.8395090    -0.5445200
units angstrom
no_reorient  #important for SAPT in psi4, default
symmetry c1  #important for SAPT in psi4, default
}

set PROPERTIES_ORIGIN ["COM"]
properties('MP2/aug-cc-pvtz', properties = ['dipole'])
--------------------------------------------------------------------------

    Molecular point group: c1
  Charge       = 0
  Multiplicity = 1
  Basis Set: AUG-CC-PVTZ
    Blend: AUG-CC-PVTZ
  Basis Set: (AUG-CC-PVTZ AUX)
    Blend: AUG-CC-PVTZ-JKFIT

    Orbital Energies [Eh]
    ---------------------

    Doubly Occupied:

       1A    -15.543557     2A    -11.286915     3A    -11.236877
       4A    -11.236500     5A    -11.218523     6A     -1.209032
       7A     -1.085381     8A     -0.986196     9A     -0.856065
      10A     -0.739519    11A     -0.661730    12A     -0.625318
      13A     -0.615817    14A     -0.584311    15A     -0.570929
      16A     -0.544279    17A     -0.468380    18A     -0.450958
      19A     -0.414175    20A     -0.409343

  @DF-RHF Final Energy:  -211.17871651400100

   => Energetics <=

    Nuclear Repulsion Energy =            179.2812975984888340
    One-Electron Energy =                -639.4324216263123617
    Two-Electron Energy =                 248.9724075138225317
    Total Energy =                       -211.1787165140009961
  Basis Set: (AUG-CC-PVTZ AUX)
    Blend: AUG-CC-PVTZ-RI
    Molecular point group: c1

    Geometry (in Angstrom), charge = 0, multiplicity = 1:

       Center              X                  Y                   Z               Mass
    ------------   -----------------  -----------------  -----------------  -----------------
         N           -1.263240195655    -1.112922237483    -0.272346318733    14.003074004430
         C            0.879792804345    -0.394367237483     0.525232681267    12.000000000000
         C           -0.528870195655    -0.111203237483     0.067808681267    12.000000000000
         C            1.802130504345     0.133769562517    -0.277228718733    12.000000000000
         C           -0.954814195655     1.337566762517     0.027349681267    12.000000000000
         H            1.012177804345    -0.001955237483     1.542135681267     1.007825032230
         H            0.991855804345    -1.480800237483     0.569597681267     1.007825032230
         H            2.942872804345    -0.078796237483    -0.072367318733     1.007825032230
         H            1.899051804345     1.305633762517    -0.402225318733     1.007825032230
         H            1.802253804345    -0.139826237483    -1.423759318733     1.007825032230
         H           -0.728554195655     1.833875762517     0.976827681267     1.007825032230
         H           -0.417410195655     1.878811762517    -0.757942318733     1.007825032230
         H           -2.027110195655     1.425584762517    -0.167836318733     1.007825032230
         H           -2.190461195655    -0.778405237483    -0.566330318733     1.007825032230

  Basis Set: AUG-CC-PVTZ
    Blend: AUG-CC-PVTZ
  Basis Set: (AUG-CC-PVTZ AUX)
    Blend: AUG-CC-PVTZ-JKFIT
	 Reference Energy          =    -211.1787165140009961 [Eh]
	 Singles Energy            =      -0.0000000000000000 [Eh]
	 Same-Spin Energy          =      -0.2232164919252257 [Eh]
	 Opposite-Spin Energy      =      -0.7858640011496747 [Eh]
	 Correlation Energy        =      -1.0090804930749004 [Eh]
	 Total Energy              =    -212.1877970070758863 [Eh]

	 ================> DF-SCS-MP2 Energies <==================
	-----------------------------------------------------------
	 SCS Same-Spin Scale       =       0.3333333333333333 [-]
	 SCS Opposite-Spin Scale   =       1.2000000000000000 [-]
	 SCS Same-Spin Energy      =      -0.0744054973084086 [Eh]
	 SCS Opposite-Spin Energy  =      -0.9430368013796095 [Eh]
	 SCS Correlation Energy    =      -1.0174422986880181 [Eh]
	 SCS Total Energy          =    -212.1961588126890206 [Eh]
	-----------------------------------------------------------

  Dipole Moment: [D]
     X:     0.2374      Y:     2.3386      Z:     0.2860     Total:     2.3679

*** Psi4 exiting successfully. Buy a developer a beer!
