                               Psi4 1.4a3.dev225

  ==> Input File <==

--------------------------------------------------------------------------
#psi4
#
memory 32 gb

molecule  {
0 1
  N       -1.3248030    -1.1740260    -0.2505360
  C        0.8182300    -0.4554710     0.5470430
  C       -0.5998423    -0.1491685     0.1359471
  C        1.8790820     0.1519800    -0.3759300
  C       -1.0163770     1.2764630     0.0491600
  H        0.9506150    -0.0630590     1.5639460
  H        0.9302930    -1.5419040     0.5914080
  H        2.8813100    -0.1399000    -0.0505570
  H        1.8374890     1.2445300    -0.3804150
  H        1.7406910    -0.2009300    -1.4019490
  H       -0.7901170     1.7727720     0.9986380
  H       -0.4789730     1.8177080    -0.7361320
  H       -2.0886730     1.3644810    -0.1460260
  H       -2.2520240    -0.8395090    -0.5445200
units angstrom
no_reorient  #important for SAPT in psi4, default
symmetry c1  #important for SAPT in psi4, default
}

set PROPERTIES_ORIGIN ["COM"]
properties('MP2/aug-cc-pvtz', properties = ['dipole'])
--------------------------------------------------------------------------

    Molecular point group: c1
  Charge       = 0
  Multiplicity = 1
  Basis Set: AUG-CC-PVTZ
    Blend: AUG-CC-PVTZ
  Basis Set: (AUG-CC-PVTZ AUX)
    Blend: AUG-CC-PVTZ-JKFIT

    Orbital Energies [Eh]
    ---------------------

    Doubly Occupied:

       1A    -15.543093     2A    -11.287442     3A    -11.236875
       4A    -11.227993     5A    -11.224054     6A     -1.195429
       7A     -1.043260     8A     -0.986754     9A     -0.877406
      10A     -0.730839    11A     -0.653224    12A     -0.619226
      13A     -0.603409    14A     -0.584774    15A     -0.555640
      16A     -0.522442    17A     -0.496488    18A     -0.491550
      19A     -0.415340    20A     -0.400376

  @DF-RHF Final Energy:  -211.22355275373019

   => Energetics <=

    Nuclear Repulsion Energy =            176.4711606828903712
    One-Electron Energy =                -633.9981998135564254
    Two-Electron Energy =                 246.3034863769358367
    Total Energy =                       -211.2235527537301891
  Basis Set: (AUG-CC-PVTZ AUX)
    Blend: AUG-CC-PVTZ-RI
    Molecular point group: c1

    Geometry (in Angstrom), charge = 0, multiplicity = 1:

       Center              X                  Y                   Z               Mass
    ------------   -----------------  -----------------  -----------------  -----------------
         N           -1.285038193718    -1.130220279822    -0.259821228385    14.003074004430
         C            0.857994806282    -0.411665279822     0.537757771615    12.000000000000
         C           -0.560077493718    -0.105362779822     0.126661871615    12.000000000000
         C            1.918846806282     0.195785720178    -0.385215228385    12.000000000000
         C           -0.976612193718     1.320268720178     0.039874771615    12.000000000000
         H            0.990379806282    -0.019253279822     1.554660771615     1.007825032230
         H            0.970057806282    -1.498098279822     0.582122771615     1.007825032230
         H            2.921074806282    -0.096094279822    -0.059842228385     1.007825032230
         H            1.877253806282     1.288335720178    -0.389700228385     1.007825032230
         H            1.780455806282    -0.157124279822    -1.411234228385     1.007825032230
         H           -0.750352193718     1.816577720178     0.989352771615     1.007825032230
         H           -0.439208193718     1.861513720178    -0.745417228385     1.007825032230
         H           -2.048908193718     1.408286720178    -0.155311228385     1.007825032230
         H           -2.212259193718    -0.795703279822    -0.553805228385     1.007825032230

  Basis Set: AUG-CC-PVTZ
    Blend: AUG-CC-PVTZ
  Basis Set: (AUG-CC-PVTZ AUX)
    Blend: AUG-CC-PVTZ-JKFIT
	 Reference Energy          =    -211.2235527537301891 [Eh]
	 Singles Energy            =      -0.0000000000000000 [Eh]
	 Same-Spin Energy          =      -0.2211679025065023 [Eh]
	 Opposite-Spin Energy      =      -0.7834950593158967 [Eh]
	 Correlation Energy        =      -1.0046629618223990 [Eh]
	 Total Energy              =    -212.2282157155525795 [Eh]

	 ================> DF-SCS-MP2 Energies <==================
	-----------------------------------------------------------
	 SCS Same-Spin Scale       =       0.3333333333333333 [-]
	 SCS Opposite-Spin Scale   =       1.2000000000000000 [-]
	 SCS Same-Spin Energy      =      -0.0737226341688341 [Eh]
	 SCS Opposite-Spin Energy  =      -0.9401940711790759 [Eh]
	 SCS Correlation Energy    =      -1.0139167053479101 [Eh]
	 SCS Total Energy          =    -212.2374694590781132 [Eh]
	-----------------------------------------------------------

  Dipole Moment: [D]
     X:     0.3688      Y:     2.4517      Z:     0.2231     Total:     2.4893

*** Psi4 exiting successfully. Buy a developer a beer!
