                               Psi4 1.4a3.dev225

  ==> Input File <==

--------------------------------------------------------------------------
#psi4
#
memory 32 gb

molecule  {
0 1
  N       -1.3248030    -1.1740260    -0.2505360
  C        0.8182300    -0.4554710     0.5470430
  C       -0.5904330    -0.1723070     0.0896190
  C        1.8444534     0.1321514    -0.3458021
  C       -1.0163770     1.2764630     0.0491600
  H        0.9506150    -0.0630590     1.5639460
  H        0.9302930    -1.5419040     0.5914080
  H        2.8813100    -0.1399000    -0.0505570
  H        1.8374890     1.2445300    -0.3804150
  H        1.7406910    -0.2009300    -1.4019490
  H       -0.7901170     1.7727720     0.9986380
  H       -0.4789730     1.8177080    -0.7361320
  H       -2.0886730     1.3644810    -0.1460260
  H       -2.2520240    -0.8395090    -0.5445200
units angstrom
no_reorient  #important for SAPT in psi4, default
symmetry c1  #important for SAPT in psi4, default
}

set PROPERTIES_ORIGIN ["COM"]
properties('MP2/aug-cc-pvtz', properties = ['dipole'])
--------------------------------------------------------------------------

    Molecular point group: c1
  Charge       = 0
  Multiplicity = 1
  Basis Set: AUG-CC-PVTZ
    Blend: AUG-CC-PVTZ
  Basis Set: (AUG-CC-PVTZ AUX)
    Blend: AUG-CC-PVTZ-JKFIT

    Orbital Energies [Eh]
    ---------------------

    Doubly Occupied:

       1A    -15.541703     2A    -11.285089     3A    -11.236333
       4A    -11.225863     5A    -11.225037     6A     -1.204921
       7A     -1.051984     8A     -0.982774     9A     -0.871699
      10A     -0.733336    11A     -0.655003    12A     -0.617895
      13A     -0.605936    14A     -0.582406    15A     -0.551550
      16A     -0.535248    17A     -0.493919    18A     -0.482124
      19A     -0.411335    20A     -0.410311

  @DF-RHF Final Energy:  -211.22480875440158

   => Energetics <=

    Nuclear Repulsion Energy =            177.2550038705958286
    One-Electron Energy =                -635.5506963021729234
    Two-Electron Energy =                 247.0708836771755159
    Total Energy =                       -211.2248087544015789
  Basis Set: (AUG-CC-PVTZ AUX)
    Blend: AUG-CC-PVTZ-RI
    Molecular point group: c1

    Geometry (in Angstrom), charge = 0, multiplicity = 1:

       Center              X                  Y                   Z               Mass
    ------------   -----------------  -----------------  -----------------  -----------------
         N           -1.280780184713    -1.122965744656    -0.257085997927    14.003074004430
         C            0.862252815287    -0.404410744656     0.540493002073    12.000000000000
         C           -0.546410184713    -0.121246744656     0.083069002073    12.000000000000
         C            1.888476215287     0.183211655344    -0.352352097927    12.000000000000
         C           -0.972354184713     1.327523255344     0.042610002073    12.000000000000
         H            0.994637815287    -0.011998744656     1.557396002073     1.007825032230
         H            0.974315815287    -1.490843744656     0.584858002073     1.007825032230
         H            2.925332815287    -0.088839744656    -0.057106997927     1.007825032230
         H            1.881511815287     1.295590255344    -0.386964997927     1.007825032230
         H            1.784713815287    -0.149869744656    -1.408498997927     1.007825032230
         H           -0.746094184713     1.823832255344     0.992088002073     1.007825032230
         H           -0.434950184713     1.868768255344    -0.742681997927     1.007825032230
         H           -2.044650184713     1.415541255344    -0.152575997927     1.007825032230
         H           -2.208001184713    -0.788448744656    -0.551069997927     1.007825032230

  Basis Set: AUG-CC-PVTZ
    Blend: AUG-CC-PVTZ
  Basis Set: (AUG-CC-PVTZ AUX)
    Blend: AUG-CC-PVTZ-JKFIT
	 Reference Energy          =    -211.2248087544015789 [Eh]
	 Singles Energy            =      -0.0000000000000000 [Eh]
	 Same-Spin Energy          =      -0.2208839124532200 [Eh]
	 Opposite-Spin Energy      =      -0.7825081942653751 [Eh]
	 Correlation Energy        =      -1.0033921067185951 [Eh]
	 Total Energy              =    -212.2282008611201718 [Eh]

	 ================> DF-SCS-MP2 Energies <==================
	-----------------------------------------------------------
	 SCS Same-Spin Scale       =       0.3333333333333333 [-]
	 SCS Opposite-Spin Scale   =       1.2000000000000000 [-]
	 SCS Same-Spin Energy      =      -0.0736279708177400 [Eh]
	 SCS Opposite-Spin Energy  =      -0.9390098331184501 [Eh]
	 SCS Correlation Energy    =      -1.0126378039361901 [Eh]
	 SCS Total Energy          =    -212.2374465583377798 [Eh]
	-----------------------------------------------------------

  Dipole Moment: [D]
     X:     0.3292      Y:     2.3795      Z:     0.2401     Total:     2.4141

*** Psi4 exiting successfully. Buy a developer a beer!
