                               Psi4 1.4a3.dev225

  ==> Input File <==

--------------------------------------------------------------------------
#psi4
#
memory 32 gb

molecule  {
0 1
  N       -1.3248030    -1.1740260    -0.2505360
  C        0.8182300    -0.4554710     0.5470430
  C       -0.5904330    -0.1723070     0.0896190
  C        1.8588654     0.2004159    -0.3657402
  C       -1.0163770     1.2764630     0.0491600
  H        0.9506150    -0.0630590     1.5639460
  H        0.9302930    -1.5419040     0.5914080
  H        2.8813100    -0.1399000    -0.0505570
  H        1.8374890     1.2445300    -0.3804150
  H        1.7406910    -0.2009300    -1.4019490
  H       -0.7901170     1.7727720     0.9986380
  H       -0.4789730     1.8177080    -0.7361320
  H       -2.0886730     1.3644810    -0.1460260
  H       -2.2520240    -0.8395090    -0.5445200
units angstrom
no_reorient  #important for SAPT in psi4, default
symmetry c1  #important for SAPT in psi4, default
}

set PROPERTIES_ORIGIN ["COM"]
properties('MP2/aug-cc-pvtz', properties = ['dipole'])
--------------------------------------------------------------------------

    Molecular point group: c1
  Charge       = 0
  Multiplicity = 1
  Basis Set: AUG-CC-PVTZ
    Blend: AUG-CC-PVTZ
  Basis Set: (AUG-CC-PVTZ AUX)
    Blend: AUG-CC-PVTZ-JKFIT

    Orbital Energies [Eh]
    ---------------------

    Doubly Occupied:

       1A    -15.540806     2A    -11.284359     3A    -11.236413
       4A    -11.227779     5A    -11.223855     6A     -1.203887
       7A     -1.044820     8A     -0.981408     9A     -0.876957
      10A     -0.731918    11A     -0.654452    12A     -0.615951
      13A     -0.607841    14A     -0.583947    15A     -0.551880
      16A     -0.523954    17A     -0.495207    18A     -0.493445
      19A     -0.410829    20A     -0.407997

  @DF-RHF Final Energy:  -211.22446483842953

   => Energetics <=

    Nuclear Repulsion Energy =            176.7836015078578953
    One-Electron Energy =                -634.6207271250170834
    Two-Electron Energy =                 246.6126607787296621
    Total Energy =                       -211.2244648384295260
  Basis Set: (AUG-CC-PVTZ AUX)
    Blend: AUG-CC-PVTZ-RI
    Molecular point group: c1

    Geometry (in Angstrom), charge = 0, multiplicity = 1:

       Center              X                  Y                   Z               Mass
    ------------   -----------------  -----------------  -----------------  -----------------
         N           -1.283213496732    -1.134491475176    -0.253719663043    14.003074004430
         C            0.859819503268    -0.415936475176     0.543859336957    12.000000000000
         C           -0.548843496732    -0.132772475176     0.086435336957    12.000000000000
         C            1.900454903268     0.239950424824    -0.368923863043    12.000000000000
         C           -0.974787496732     1.315997524824     0.045976336957    12.000000000000
         H            0.992204503268    -0.023524475176     1.560762336957     1.007825032230
         H            0.971882503268    -1.502369475176     0.588224336957     1.007825032230
         H            2.922899503268    -0.100365475176    -0.053740663043     1.007825032230
         H            1.879078503268     1.284064524824    -0.383598663043     1.007825032230
         H            1.782280503268    -0.161395475176    -1.405132663043     1.007825032230
         H           -0.748527496732     1.812306524824     0.995454336957     1.007825032230
         H           -0.437383496732     1.857242524824    -0.739315663043     1.007825032230
         H           -2.047083496732     1.404015524824    -0.149209663043     1.007825032230
         H           -2.210434496732    -0.799974475176    -0.547703663043     1.007825032230

  Basis Set: AUG-CC-PVTZ
    Blend: AUG-CC-PVTZ
  Basis Set: (AUG-CC-PVTZ AUX)
    Blend: AUG-CC-PVTZ-JKFIT
	 Reference Energy          =    -211.2244648384295260 [Eh]
	 Singles Energy            =      -0.0000000000000000 [Eh]
	 Same-Spin Energy          =      -0.2206151066791258 [Eh]
	 Opposite-Spin Energy      =      -0.7822859615852820 [Eh]
	 Correlation Energy        =      -1.0029010682644077 [Eh]
	 Total Energy              =    -212.2273659066939331 [Eh]

	 ================> DF-SCS-MP2 Energies <==================
	-----------------------------------------------------------
	 SCS Same-Spin Scale       =       0.3333333333333333 [-]
	 SCS Opposite-Spin Scale   =       1.2000000000000000 [-]
	 SCS Same-Spin Energy      =      -0.0735383688930419 [Eh]
	 SCS Opposite-Spin Energy  =      -0.9387431539023383 [Eh]
	 SCS Correlation Energy    =      -1.0122815227953803 [Eh]
	 SCS Total Energy          =    -212.2367463612249026 [Eh]
	-----------------------------------------------------------

  Dipole Moment: [D]
     X:     0.3461      Y:     2.4045      Z:     0.2448     Total:     2.4416

*** Psi4 exiting successfully. Buy a developer a beer!
