                               Psi4 1.4a3.dev225

  ==> Input File <==

--------------------------------------------------------------------------
#psi4
#
memory 32 gb

molecule  {
0 1
  N       -1.3248030    -1.1740260    -0.2505360
  C        0.8182300    -0.4554710     0.5470430
  C       -0.7772712    -0.1347495     0.0289485
  C        1.8790820     0.1519800    -0.3759300
  C       -1.0163770     1.2764630     0.0491600
  H        0.9506150    -0.0630590     1.5639460
  H        0.9302930    -1.5419040     0.5914080
  H        2.8813100    -0.1399000    -0.0505570
  H        1.8374890     1.2445300    -0.3804150
  H        1.7406910    -0.2009300    -1.4019490
  H       -0.7901170     1.7727720     0.9986380
  H       -0.4789730     1.8177080    -0.7361320
  H       -2.0886730     1.3644810    -0.1460260
  H       -2.2520240    -0.8395090    -0.5445200
units angstrom
no_reorient  #important for SAPT in psi4, default
symmetry c1  #important for SAPT in psi4, default
}

set PROPERTIES_ORIGIN ["COM"]
properties('MP2/aug-cc-pvtz', properties = ['dipole'])
--------------------------------------------------------------------------

    Molecular point group: c1
  Charge       = 0
  Multiplicity = 1
  Basis Set: AUG-CC-PVTZ
    Blend: AUG-CC-PVTZ
  Basis Set: (AUG-CC-PVTZ AUX)
    Blend: AUG-CC-PVTZ-JKFIT

    Orbital Energies [Eh]
    ---------------------

    Doubly Occupied:

       1A    -15.544493     2A    -11.281215     3A    -11.239877
       4A    -11.219508     5A    -11.214133     6A     -1.248676
       7A     -1.034649     8A     -0.997780     9A     -0.844632
      10A     -0.727259    11A     -0.664825    12A     -0.623023
      13A     -0.609886    14A     -0.586435    15A     -0.548727
      16A     -0.513713    17A     -0.498023    18A     -0.478685
      19A     -0.442380    20A     -0.380288

  @DF-RHF Final Energy:  -211.19045281215142

   => Energetics <=

    Nuclear Repulsion Energy =            176.4777211586541910
    One-Electron Energy =                -633.9399338642634802
    Two-Electron Energy =                 246.2717598934578973
    Total Energy =                       -211.1904528121514204
  Basis Set: (AUG-CC-PVTZ AUX)
    Blend: AUG-CC-PVTZ-RI
    Molecular point group: c1

    Geometry (in Angstrom), charge = 0, multiplicity = 1:

       Center              X                  Y                   Z               Mass
    ------------   -----------------  -----------------  -----------------  -----------------
         N           -1.255081222117    -1.132654773715    -0.241755659463    14.003074004430
         C            0.887951777883    -0.414099773715     0.555823340537    12.000000000000
         C           -0.707549422117    -0.093378273715     0.037728840537    12.000000000000
         C            1.948803777883     0.193351226285    -0.367149659463    12.000000000000
         C           -0.946655222117     1.317834226285     0.057940340537    12.000000000000
         H            1.020336777883    -0.021687773715     1.572726340537     1.007825032230
         H            1.000014777883    -1.500532773715     0.600188340537     1.007825032230
         H            2.951031777883    -0.098528773715    -0.041776659463     1.007825032230
         H            1.907210777883     1.285901226285    -0.371634659463     1.007825032230
         H            1.810412777883    -0.159558773715    -1.393168659463     1.007825032230
         H           -0.720395222117     1.814143226285     1.007418340537     1.007825032230
         H           -0.409251222117     1.859079226285    -0.727351659463     1.007825032230
         H           -2.018951222117     1.405852226285    -0.137245659463     1.007825032230
         H           -2.182302222117    -0.798137773715    -0.535739659463     1.007825032230

  Basis Set: AUG-CC-PVTZ
    Blend: AUG-CC-PVTZ
  Basis Set: (AUG-CC-PVTZ AUX)
    Blend: AUG-CC-PVTZ-JKFIT
	 Reference Energy          =    -211.1904528121514204 [Eh]
	 Singles Energy            =      -0.0000000000000000 [Eh]
	 Same-Spin Energy          =      -0.2206561371866212 [Eh]
	 Opposite-Spin Energy      =      -0.7818585780394949 [Eh]
	 Correlation Energy        =      -1.0025147152261162 [Eh]
	 Total Energy              =    -212.1929675273775331 [Eh]

	 ================> DF-SCS-MP2 Energies <==================
	-----------------------------------------------------------
	 SCS Same-Spin Scale       =       0.3333333333333333 [-]
	 SCS Opposite-Spin Scale   =       1.2000000000000000 [-]
	 SCS Same-Spin Energy      =      -0.0735520457288737 [Eh]
	 SCS Opposite-Spin Energy  =      -0.9382302936473939 [Eh]
	 SCS Correlation Energy    =      -1.0117823393762675 [Eh]
	 SCS Total Energy          =    -212.2022351515276739 [Eh]
	-----------------------------------------------------------

  Dipole Moment: [D]
     X:    -0.2557      Y:     2.4609      Z:     0.0856     Total:     2.4757

*** Psi4 exiting successfully. Buy a developer a beer!
