                               Psi4 1.4a3.dev225

  ==> Input File <==

--------------------------------------------------------------------------
#psi4
#
memory 32 gb

molecule  {
0 1
  N       -1.3248030    -1.1740260    -0.2505360
  C        0.8182300    -0.4554710     0.5470430
  C       -0.6474579    -0.2500919     0.0632055
  C        1.8790820     0.1519800    -0.3759300
  C       -1.0163770     1.2764630     0.0491600
  H        0.9506150    -0.0630590     1.5639460
  H        0.9302930    -1.5419040     0.5914080
  H        2.8813100    -0.1399000    -0.0505570
  H        1.8374890     1.2445300    -0.3804150
  H        1.7406910    -0.2009300    -1.4019490
  H       -0.7901170     1.7727720     0.9986380
  H       -0.4789730     1.8177080    -0.7361320
  H       -2.0886730     1.3644810    -0.1460260
  H       -2.2520240    -0.8395090    -0.5445200
units angstrom
no_reorient  #important for SAPT in psi4, default
symmetry c1  #important for SAPT in psi4, default
}

set PROPERTIES_ORIGIN ["COM"]
properties('MP2/aug-cc-pvtz', properties = ['dipole'])
--------------------------------------------------------------------------

    Molecular point group: c1
  Charge       = 0
  Multiplicity = 1
  Basis Set: AUG-CC-PVTZ
    Blend: AUG-CC-PVTZ
  Basis Set: (AUG-CC-PVTZ AUX)
    Blend: AUG-CC-PVTZ-JKFIT

    Orbital Energies [Eh]
    ---------------------

    Doubly Occupied:

       1A    -15.535194     2A    -11.274809     3A    -11.233607
       4A    -11.224157     5A    -11.220746     6A     -1.247813
       7A     -1.038266     8A     -0.969355     9A     -0.868570
      10A     -0.733541    11A     -0.653327    12A     -0.614513
      13A     -0.605423    14A     -0.580468    15A     -0.546387
      16A     -0.525039    17A     -0.506004    18A     -0.484003
      19A     -0.444350    20A     -0.391566

  @DF-RHF Final Energy:  -211.21750594433570

   => Energetics <=

    Nuclear Repulsion Energy =            176.9033468115477206
    One-Electron Energy =                -634.8474318947722850
    Two-Electron Energy =                 246.7265791388888374
    Total Energy =                       -211.2175059443356986
  Basis Set: (AUG-CC-PVTZ AUX)
    Blend: AUG-CC-PVTZ-RI
    Molecular point group: c1

    Geometry (in Angstrom), charge = 0, multiplicity = 1:

       Center              X                  Y                   Z               Mass
    ------------   -----------------  -----------------  -----------------  -----------------
         N           -1.276998809058    -1.113180443427    -0.247539587426    14.003074004430
         C            0.866034190942    -0.394625443427     0.550039412574    12.000000000000
         C           -0.599653709058    -0.189246343427     0.066201912574    12.000000000000
         C            1.926886190942     0.212825556573    -0.372933587426    12.000000000000
         C           -0.968572809058     1.337308556573     0.052156412574    12.000000000000
         H            0.998419190942    -0.002213443427     1.566942412574     1.007825032230
         H            0.978097190942    -1.481058443427     0.594404412574     1.007825032230
         H            2.929114190942    -0.079054443427    -0.047560587426     1.007825032230
         H            1.885293190942     1.305375556573    -0.377418587426     1.007825032230
         H            1.788495190942    -0.140084443427    -1.398952587426     1.007825032230
         H           -0.742312809058     1.833617556573     1.001634412574     1.007825032230
         H           -0.431168809058     1.878553556573    -0.733135587426     1.007825032230
         H           -2.040868809058     1.425326556573    -0.143029587426     1.007825032230
         H           -2.204219809058    -0.778663443427    -0.541523587426     1.007825032230

  Basis Set: AUG-CC-PVTZ
    Blend: AUG-CC-PVTZ
  Basis Set: (AUG-CC-PVTZ AUX)
    Blend: AUG-CC-PVTZ-JKFIT
	 Reference Energy          =    -211.2175059443356986 [Eh]
	 Singles Energy            =      -0.0000000000000000 [Eh]
	 Same-Spin Energy          =      -0.2187686636648833 [Eh]
	 Opposite-Spin Energy      =      -0.7781847946473772 [Eh]
	 Correlation Energy        =      -0.9969534583122606 [Eh]
	 Total Energy              =    -212.2144594026479467 [Eh]

	 ================> DF-SCS-MP2 Energies <==================
	-----------------------------------------------------------
	 SCS Same-Spin Scale       =       0.3333333333333333 [-]
	 SCS Opposite-Spin Scale   =       1.2000000000000000 [-]
	 SCS Same-Spin Energy      =      -0.0729228878882944 [Eh]
	 SCS Opposite-Spin Energy  =      -0.9338217535768526 [Eh]
	 SCS Correlation Energy    =      -1.0067446414651471 [Eh]
	 SCS Total Energy          =    -212.2242505858008599 [Eh]
	-----------------------------------------------------------

  Dipole Moment: [D]
     X:     0.1403      Y:     2.1243      Z:     0.1541     Total:     2.1345

*** Psi4 exiting successfully. Buy a developer a beer!
