                               Psi4 1.4a3.dev225

  ==> Input File <==

--------------------------------------------------------------------------
#psi4
#
memory 32 gb

molecule  {
0 1
  N       -1.3248030    -1.1740260    -0.2505360
  C        0.8182300    -0.4554710     0.5470430
  C       -0.5736108    -0.1864700     0.0942669
  C        1.8790820     0.1519800    -0.3759300
  C       -1.0163770     1.2764630     0.0491600
  H        0.9506150    -0.0630590     1.5639460
  H        0.9302930    -1.5419040     0.5914080
  H        2.8813100    -0.1399000    -0.0505570
  H        1.8374890     1.2445300    -0.3804150
  H        1.7406910    -0.2009300    -1.4019490
  H       -0.7901170     1.7727720     0.9986380
  H       -0.4789730     1.8177080    -0.7361320
  H       -2.0886730     1.3644810    -0.1460260
  H       -2.2520240    -0.8395090    -0.5445200
units angstrom
no_reorient  #important for SAPT in psi4, default
symmetry c1  #important for SAPT in psi4, default
}

set PROPERTIES_ORIGIN ["COM"]
properties('MP2/aug-cc-pvtz', properties = ['dipole'])
--------------------------------------------------------------------------

    Molecular point group: c1
  Charge       = 0
  Multiplicity = 1
  Basis Set: AUG-CC-PVTZ
    Blend: AUG-CC-PVTZ
  Basis Set: (AUG-CC-PVTZ AUX)
    Blend: AUG-CC-PVTZ-JKFIT

    Orbital Energies [Eh]
    ---------------------

    Doubly Occupied:

       1A    -15.540718     2A    -11.284915     3A    -11.235940
       4A    -11.227106     5A    -11.224224     6A     -1.203479
       7A     -1.046264     8A     -0.977507     9A     -0.880000
      10A     -0.732092    11A     -0.654317    12A     -0.617013
      13A     -0.602586    14A     -0.582177    15A     -0.553613
      16A     -0.524651    17A     -0.504114    18A     -0.489796
      19A     -0.409171    20A     -0.408134

  @DF-RHF Final Energy:  -211.22741034312691

   => Energetics <=

    Nuclear Repulsion Energy =            176.6910513534047027
    One-Electron Energy =                -634.4412925851455611
    Two-Electron Energy =                 246.5228308886139530
    Total Energy =                       -211.2274103431269054
  Basis Set: (AUG-CC-PVTZ AUX)
    Blend: AUG-CC-PVTZ-RI
    Molecular point group: c1

    Geometry (in Angstrom), charge = 0, multiplicity = 1:

       Center              X                  Y                   Z               Mass
    ------------   -----------------  -----------------  -----------------  -----------------
         N           -1.289467101864    -1.123922320605    -0.252783972516    14.003074004430
         C            0.853565898136    -0.405367320605     0.544795027484    12.000000000000
         C           -0.538274901864    -0.136366320605     0.092018927484    12.000000000000
         C            1.914417898136     0.202083679395    -0.378177972516    12.000000000000
         C           -0.981041101864     1.326566679395     0.046912027484    12.000000000000
         H            0.985950898136    -0.012955320605     1.561698027484     1.007825032230
         H            0.965628898136    -1.491800320605     0.589160027484     1.007825032230
         H            2.916645898136    -0.089796320605    -0.052804972516     1.007825032230
         H            1.872824898136     1.294633679395    -0.382662972516     1.007825032230
         H            1.776026898136    -0.150826320605    -1.404196972516     1.007825032230
         H           -0.754781101864     1.822875679395     0.996390027484     1.007825032230
         H           -0.443637101864     1.867811679395    -0.738379972516     1.007825032230
         H           -2.053337101864     1.414584679395    -0.148273972516     1.007825032230
         H           -2.216688101864    -0.789405320605    -0.546767972516     1.007825032230

  Basis Set: AUG-CC-PVTZ
    Blend: AUG-CC-PVTZ
  Basis Set: (AUG-CC-PVTZ AUX)
    Blend: AUG-CC-PVTZ-JKFIT
	 Reference Energy          =    -211.2274103431269054 [Eh]
	 Singles Energy            =      -0.0000000000000000 [Eh]
	 Same-Spin Energy          =      -0.2205040488736397 [Eh]
	 Opposite-Spin Energy      =      -0.7820699213531468 [Eh]
	 Correlation Energy        =      -1.0025739702267864 [Eh]
	 Total Energy              =    -212.2299843133536967 [Eh]

	 ================> DF-SCS-MP2 Energies <==================
	-----------------------------------------------------------
	 SCS Same-Spin Scale       =       0.3333333333333333 [-]
	 SCS Opposite-Spin Scale   =       1.2000000000000000 [-]
	 SCS Same-Spin Energy      =      -0.0735013496245465 [Eh]
	 SCS Opposite-Spin Energy  =      -0.9384839056237761 [Eh]
	 SCS Correlation Energy    =      -1.0119852552483226 [Eh]
	 SCS Total Energy          =    -212.2393955983752392 [Eh]
	-----------------------------------------------------------

  Dipole Moment: [D]
     X:     0.3980      Y:     2.3505      Z:     0.2435     Total:     2.3963

*** Psi4 exiting successfully. Buy a developer a beer!
