                               Psi4 1.4a3.dev225

  ==> Input File <==

--------------------------------------------------------------------------
#psi4
#
memory 32 gb

molecule  {
0 1
  N       -1.3248030    -1.1740260    -0.2505360
  C        0.8182300    -0.4554710     0.5470430
  C       -0.5904330    -0.1723070     0.0896190
  C        1.8790820     0.1519800    -0.3759300
  C       -1.0220163     1.2956440     0.0486243
  H        0.9506150    -0.0630590     1.5639460
  H        0.9302930    -1.5419040     0.5914080
  H        2.8813100    -0.1399000    -0.0505570
  H        1.8374890     1.2445300    -0.3804150
  H        1.7406910    -0.2009300    -1.4019490
  H       -0.7901170     1.7727720     0.9986380
  H       -0.4789730     1.8177080    -0.7361320
  H       -2.0886730     1.3644810    -0.1460260
  H       -2.2520240    -0.8395090    -0.5445200
units angstrom
no_reorient  #important for SAPT in psi4, default
symmetry c1  #important for SAPT in psi4, default
}

set PROPERTIES_ORIGIN ["COM"]
properties('MP2/aug-cc-pvtz', properties = ['dipole'])
--------------------------------------------------------------------------

    Molecular point group: c1
  Charge       = 0
  Multiplicity = 1
  Basis Set: AUG-CC-PVTZ
    Blend: AUG-CC-PVTZ
  Basis Set: (AUG-CC-PVTZ AUX)
    Blend: AUG-CC-PVTZ-JKFIT

    Orbital Energies [Eh]
    ---------------------

    Doubly Occupied:

       1A    -15.541318     2A    -11.285690     3A    -11.235453
       4A    -11.227296     5A    -11.223369     6A     -1.202994
       7A     -1.043675     8A     -0.980754     9A     -0.876469
      10A     -0.730892    11A     -0.651762    12A     -0.616940
      13A     -0.603882    14A     -0.584609    15A     -0.555563
      16A     -0.523403    17A     -0.501625    18A     -0.489478
      19A     -0.409929    20A     -0.409065

  @DF-RHF Final Energy:  -211.22764188695783

   => Energetics <=

    Nuclear Repulsion Energy =            176.3695147210580672
    One-Electron Energy =                -633.8059770344500521
    Two-Electron Energy =                 246.2088204264341584
    Total Energy =                       -211.2276418869578265
  Basis Set: (AUG-CC-PVTZ AUX)
    Blend: AUG-CC-PVTZ-RI
    Molecular point group: c1

    Geometry (in Angstrom), charge = 0, multiplicity = 1:

       Center              X                  Y                   Z               Mass
    ------------   -----------------  -----------------  -----------------  -----------------
         N           -1.285674717886    -1.129552098285    -0.251908777111    14.003074004430
         C            0.857358282114    -0.410997098285     0.545670222889    12.000000000000
         C           -0.551304717886    -0.127833098285     0.088246222889    12.000000000000
         C            1.918210282114     0.196453901715    -0.377302777111    12.000000000000
         C           -0.982888017886     1.340117901715     0.047251522889    12.000000000000
         H            0.989743282114    -0.018585098285     1.562573222889     1.007825032230
         H            0.969421282114    -1.497430098285     0.590035222889     1.007825032230
         H            2.920438282114    -0.095426098285    -0.051929777111     1.007825032230
         H            1.876617282114     1.289003901715    -0.381787777111     1.007825032230
         H            1.779819282114    -0.156456098285    -1.403321777111     1.007825032230
         H           -0.750988717886     1.817245901715     0.997265222889     1.007825032230
         H           -0.439844717886     1.862181901715    -0.737504777111     1.007825032230
         H           -2.049544717886     1.408954901715    -0.147398777111     1.007825032230
         H           -2.212895717886    -0.795035098285    -0.545892777111     1.007825032230

  Basis Set: AUG-CC-PVTZ
    Blend: AUG-CC-PVTZ
  Basis Set: (AUG-CC-PVTZ AUX)
    Blend: AUG-CC-PVTZ-JKFIT
	 Reference Energy          =    -211.2276418869578265 [Eh]
	 Singles Energy            =      -0.0000000000000000 [Eh]
	 Same-Spin Energy          =      -0.2203689636413567 [Eh]
	 Opposite-Spin Energy      =      -0.7819805779551804 [Eh]
	 Correlation Energy        =      -1.0023495415965371 [Eh]
	 Total Energy              =    -212.2299914285543707 [Eh]

	 ================> DF-SCS-MP2 Energies <==================
	-----------------------------------------------------------
	 SCS Same-Spin Scale       =       0.3333333333333333 [-]
	 SCS Opposite-Spin Scale   =       1.2000000000000000 [-]
	 SCS Same-Spin Energy      =      -0.0734563212137856 [Eh]
	 SCS Opposite-Spin Energy  =      -0.9383766935462164 [Eh]
	 SCS Correlation Energy    =      -1.0118330147600021 [Eh]
	 SCS Total Energy          =    -212.2394749017178412 [Eh]
	-----------------------------------------------------------

  Dipole Moment: [D]
     X:     0.3505      Y:     2.3618      Z:     0.2347     Total:     2.3991

*** Psi4 exiting successfully. Buy a developer a beer!
