                               Psi4 1.4a3.dev225

  ==> Input File <==

--------------------------------------------------------------------------
#psi4
#
memory 32 gb

molecule  {
0 1
  N       -1.3248030    -1.1740260    -0.2505360
  C        0.8182300    -0.4554710     0.5470430
  C       -0.5904330    -0.1723070     0.0896190
  C        1.8790820     0.1519800    -0.3759300
  C       -1.0163770     1.2764630     0.0491600
  H        0.9506150    -0.0630590     1.5639460
  H        0.9302930    -1.5419040     0.5914080
  H        2.8946499    -0.1869856    -0.1540142
  H        1.8374890     1.2445300    -0.3804150
  H        1.7406910    -0.2009300    -1.4019490
  H       -0.7901170     1.7727720     0.9986380
  H       -0.4789730     1.8177080    -0.7361320
  H       -2.0886730     1.3644810    -0.1460260
  H       -2.2520240    -0.8395090    -0.5445200
units angstrom
no_reorient  #important for SAPT in psi4, default
symmetry c1  #important for SAPT in psi4, default
}

set PROPERTIES_ORIGIN ["COM"]
properties('MP2/aug-cc-pvtz', properties = ['dipole'])
--------------------------------------------------------------------------

    Molecular point group: c1
  Charge       = 0
  Multiplicity = 1
  Basis Set: AUG-CC-PVTZ
    Blend: AUG-CC-PVTZ
  Basis Set: (AUG-CC-PVTZ AUX)
    Blend: AUG-CC-PVTZ-JKFIT

    Orbital Energies [Eh]
    ---------------------

    Doubly Occupied:

       1A    -15.541478     2A    -11.285288     3A    -11.236434
       4A    -11.227835     5A    -11.223063     6A     -1.204304
       7A     -1.043733     8A     -0.981798     9A     -0.877453
      10A     -0.731919    11A     -0.654600    12A     -0.616261
      13A     -0.603400    14A     -0.584073    15A     -0.554680
      16A     -0.524069    17A     -0.495988    18A     -0.491112
      19A     -0.411654    20A     -0.409013

  @DF-RHF Final Energy:  -211.22652020249876

   => Energetics <=

    Nuclear Repulsion Energy =            176.6019956577996481
    One-Electron Energy =                -634.2607209327201190
    Two-Electron Energy =                 246.4322050724217092
    Total Energy =                       -211.2265202024987616
  Basis Set: (AUG-CC-PVTZ AUX)
    Blend: AUG-CC-PVTZ-RI
    Molecular point group: c1

    Geometry (in Angstrom), charge = 0, multiplicity = 1:

       Center              X                  Y                   Z               Mass
    ------------   -----------------  -----------------  -----------------  -----------------
         N           -1.286816013671    -1.125645915965    -0.250532197136    14.003074004430
         C            0.856216986329    -0.407090915965     0.547046802864    12.000000000000
         C           -0.552446013671    -0.123926915965     0.089622802864    12.000000000000
         C            1.917068986329     0.200360084035    -0.375926197136    12.000000000000
         C           -0.978390013671     1.324843084035     0.049163802864    12.000000000000
         H            0.988601986329    -0.014678915965     1.563949802864     1.007825032230
         H            0.968279986329    -1.493523915965     0.591411802864     1.007825032230
         H            2.932636886329    -0.138605515965    -0.154010397136     1.007825032230
         H            1.875475986329     1.292910084035    -0.380411197136     1.007825032230
         H            1.778677986329    -0.152549915965    -1.401945197136     1.007825032230
         H           -0.752130013671     1.821152084035     0.998641802864     1.007825032230
         H           -0.440986013671     1.866088084035    -0.736128197136     1.007825032230
         H           -2.050686013671     1.412861084035    -0.146022197136     1.007825032230
         H           -2.214037013671    -0.791128915965    -0.544516197136     1.007825032230

  Basis Set: AUG-CC-PVTZ
    Blend: AUG-CC-PVTZ
  Basis Set: (AUG-CC-PVTZ AUX)
    Blend: AUG-CC-PVTZ-JKFIT
	 Reference Energy          =    -211.2265202024987616 [Eh]
	 Singles Energy            =      -0.0000000000000000 [Eh]
	 Same-Spin Energy          =      -0.2205583725387220 [Eh]
	 Opposite-Spin Energy      =      -0.7821395084973680 [Eh]
	 Correlation Energy        =      -1.0026978810360900 [Eh]
	 Total Energy              =    -212.2292180835348461 [Eh]

	 ================> DF-SCS-MP2 Energies <==================
	-----------------------------------------------------------
	 SCS Same-Spin Scale       =       0.3333333333333333 [-]
	 SCS Opposite-Spin Scale   =       1.2000000000000000 [-]
	 SCS Same-Spin Energy      =      -0.0735194575129073 [Eh]
	 SCS Opposite-Spin Energy  =      -0.9385674101968415 [Eh]
	 SCS Correlation Energy    =      -1.0120868677097488 [Eh]
	 SCS Total Energy          =    -212.2386070702085021 [Eh]
	-----------------------------------------------------------

  Dipole Moment: [D]
     X:     0.3406      Y:     2.3618      Z:     0.2021     Total:     2.3947

*** Psi4 exiting successfully. Buy a developer a beer!
