                               Psi4 1.4a3.dev225

  ==> Input File <==

--------------------------------------------------------------------------
#psi4
#
memory 32 gb

molecule  {
0 1
  N       -1.3248030    -1.1740260    -0.2505360
  C        0.8182300    -0.4554710     0.5470430
  C       -0.5904330    -0.1723070     0.0896190
  C        1.8980061     0.1028040    -0.3849953
  C       -1.0163770     1.2764630     0.0491600
  H        0.9506150    -0.0630590     1.5639460
  H        0.9302930    -1.5419040     0.5914080
  H        2.8813100    -0.1399000    -0.0505570
  H        1.8374890     1.2445300    -0.3804150
  H        1.7406910    -0.2009300    -1.4019490
  H       -0.7901170     1.7727720     0.9986380
  H       -0.4789730     1.8177080    -0.7361320
  H       -2.0886730     1.3644810    -0.1460260
  H       -2.2520240    -0.8395090    -0.5445200
units angstrom
no_reorient  #important for SAPT in psi4, default
symmetry c1  #important for SAPT in psi4, default
}

set PROPERTIES_ORIGIN ["COM"]
properties('MP2/aug-cc-pvtz', properties = ['dipole'])
--------------------------------------------------------------------------

    Molecular point group: c1
  Charge       = 0
  Multiplicity = 1
  Basis Set: AUG-CC-PVTZ
    Blend: AUG-CC-PVTZ
  Basis Set: (AUG-CC-PVTZ AUX)
    Blend: AUG-CC-PVTZ-JKFIT

    Orbital Energies [Eh]
    ---------------------

    Doubly Occupied:

       1A    -15.541704     2A    -11.285285     3A    -11.236073
       4A    -11.227110     5A    -11.223748     6A     -1.204326
       7A     -1.043694     8A     -0.982064     9A     -0.876692
      10A     -0.731827    11A     -0.652869    12A     -0.620482
      13A     -0.602347    14A     -0.583198    15A     -0.555265
      16A     -0.524486    17A     -0.506122    18A     -0.479166
      19A     -0.412050    20A     -0.409080

  @DF-RHF Final Energy:  -211.22493382560452

   => Energetics <=

    Nuclear Repulsion Energy =            176.5061827641165166
    One-Electron Energy =                -634.0670552520002730
    Two-Electron Energy =                 246.3359386622792613
    Total Energy =                       -211.2249338256045235
  Basis Set: (AUG-CC-PVTZ AUX)
    Blend: AUG-CC-PVTZ-RI
    Molecular point group: c1

    Geometry (in Angstrom), charge = 0, multiplicity = 1:

       Center              X                  Y                   Z               Mass
    ------------   -----------------  -----------------  -----------------  -----------------
         N           -1.289821985193    -1.118010750129    -0.250468645402    14.003074004430
         C            0.853211014807    -0.399455750129     0.547110354598    12.000000000000
         C           -0.555451985193    -0.116291750129     0.089686354598    12.000000000000
         C            1.932987114807     0.158819249871    -0.384927945402    12.000000000000
         C           -0.981395985193     1.332478249871     0.049227354598    12.000000000000
         H            0.985596014807    -0.007043750129     1.564013354598     1.007825032230
         H            0.965274014807    -1.485888750129     0.591475354598     1.007825032230
         H            2.916291014807    -0.083884750129    -0.050489645402     1.007825032230
         H            1.872470014807     1.300545249871    -0.380347645402     1.007825032230
         H            1.775672014807    -0.144914750129    -1.401881645402     1.007825032230
         H           -0.755135985193     1.828787249871     0.998705354598     1.007825032230
         H           -0.443991985193     1.873723249871    -0.736064645402     1.007825032230
         H           -2.053691985193     1.420496249871    -0.145958645402     1.007825032230
         H           -2.217042985193    -0.783493750129    -0.544452645402     1.007825032230

  Basis Set: AUG-CC-PVTZ
    Blend: AUG-CC-PVTZ
  Basis Set: (AUG-CC-PVTZ AUX)
    Blend: AUG-CC-PVTZ-JKFIT
	 Reference Energy          =    -211.2249338256045235 [Eh]
	 Singles Energy            =      -0.0000000000000000 [Eh]
	 Same-Spin Energy          =      -0.2204872037619630 [Eh]
	 Opposite-Spin Energy      =      -0.7821636370571545 [Eh]
	 Correlation Energy        =      -1.0026508408191175 [Eh]
	 Total Energy              =    -212.2275846664236383 [Eh]

	 ================> DF-SCS-MP2 Energies <==================
	-----------------------------------------------------------
	 SCS Same-Spin Scale       =       0.3333333333333333 [-]
	 SCS Opposite-Spin Scale   =       1.2000000000000000 [-]
	 SCS Same-Spin Energy      =      -0.0734957345873210 [Eh]
	 SCS Opposite-Spin Energy  =      -0.9385963644685854 [Eh]
	 SCS Correlation Energy    =      -1.0120920990559064 [Eh]
	 SCS Total Energy          =    -212.2370259246604292 [Eh]
	-----------------------------------------------------------

  Dipole Moment: [D]
     X:     0.3405      Y:     2.3576      Z:     0.2280     Total:     2.3929

*** Psi4 exiting successfully. Buy a developer a beer!
