                               Psi4 1.4a3.dev225

  ==> Input File <==

--------------------------------------------------------------------------
#psi4
#
memory 32 gb

molecule  {
0 1
  N       -1.3248030    -1.1740260    -0.2505360
  C        0.8182300    -0.4554710     0.5470430
  C       -0.5904330    -0.1723070     0.0896190
  C        1.8790820     0.1519800    -0.3759300
  C       -1.0022788     1.2285105     0.0504991
  H        0.9506150    -0.0630590     1.5639460
  H        0.9302930    -1.5419040     0.5914080
  H        2.8813100    -0.1399000    -0.0505570
  H        1.8374890     1.2445300    -0.3804150
  H        1.7406910    -0.2009300    -1.4019490
  H       -0.7901170     1.7727720     0.9986380
  H       -0.4789730     1.8177080    -0.7361320
  H       -2.0886730     1.3644810    -0.1460260
  H       -2.2520240    -0.8395090    -0.5445200
units angstrom
no_reorient  #important for SAPT in psi4, default
symmetry c1  #important for SAPT in psi4, default
}

set PROPERTIES_ORIGIN ["COM"]
properties('MP2/aug-cc-pvtz', properties = ['dipole'])
--------------------------------------------------------------------------

    Molecular point group: c1
  Charge       = 0
  Multiplicity = 1
  Basis Set: AUG-CC-PVTZ
    Blend: AUG-CC-PVTZ
  Basis Set: (AUG-CC-PVTZ AUX)
    Blend: AUG-CC-PVTZ-JKFIT

    Orbital Energies [Eh]
    ---------------------

    Doubly Occupied:

       1A    -15.540943     2A    -11.282141     3A    -11.238584
       4A    -11.226964     5A    -11.223158     6A     -1.207066
       7A     -1.045124     8A     -0.984469     9A     -0.875913
      10A     -0.733733    11A     -0.658780    12A     -0.619034
      13A     -0.605653    14A     -0.579962    15A     -0.549891
      16A     -0.520592    17A     -0.497950    18A     -0.489165
      19A     -0.414728    20A     -0.406763

  @DF-RHF Final Energy:  -211.22469252324760

   => Energetics <=

    Nuclear Repulsion Energy =            177.3347779946790297
    One-Electron Energy =                -635.7177154664087766
    Two-Electron Energy =                 247.1582449484821495
    Total Energy =                       -211.2246925232475974
  Basis Set: (AUG-CC-PVTZ AUX)
    Blend: AUG-CC-PVTZ-RI
    Molecular point group: c1

    Geometry (in Angstrom), charge = 0, multiplicity = 1:

       Center              X                  Y                   Z               Mass
    ------------   -----------------  -----------------  -----------------  -----------------
         N           -1.289007183606    -1.118217325015    -0.252225317034    14.003074004430
         C            0.854025816394    -0.399662325015     0.545353682966    12.000000000000
         C           -0.554637183606    -0.116498325015     0.087929682966    12.000000000000
         C            1.914877816394     0.207788674985    -0.377619317034    12.000000000000
         C           -0.966482983606     1.284319174985     0.048809782966    12.000000000000
         H            0.986410816394    -0.007250325015     1.562256682966     1.007825032230
         H            0.966088816394    -1.486095325015     0.589718682966     1.007825032230
         H            2.917105816394    -0.084091325015    -0.052246317034     1.007825032230
         H            1.873284816394     1.300338674985    -0.382104317034     1.007825032230
         H            1.776486816394    -0.145121325015    -1.403638317034     1.007825032230
         H           -0.754321183606     1.828580674985     0.996948682966     1.007825032230
         H           -0.443177183606     1.873516674985    -0.737821317034     1.007825032230
         H           -2.052877183606     1.420289674985    -0.147715317034     1.007825032230
         H           -2.216228183606    -0.783700325015    -0.546209317034     1.007825032230

  Basis Set: AUG-CC-PVTZ
    Blend: AUG-CC-PVTZ
  Basis Set: (AUG-CC-PVTZ AUX)
    Blend: AUG-CC-PVTZ-JKFIT
	 Reference Energy          =    -211.2246925232475974 [Eh]
	 Singles Energy            =      -0.0000000000000000 [Eh]
	 Same-Spin Energy          =      -0.2210031837887715 [Eh]
	 Opposite-Spin Energy      =      -0.7826040696796248 [Eh]
	 Correlation Energy        =      -1.0036072534683964 [Eh]
	 Total Energy              =    -212.2282997767159998 [Eh]

	 ================> DF-SCS-MP2 Energies <==================
	-----------------------------------------------------------
	 SCS Same-Spin Scale       =       0.3333333333333333 [-]
	 SCS Opposite-Spin Scale   =       1.2000000000000000 [-]
	 SCS Same-Spin Energy      =      -0.0736677279295905 [Eh]
	 SCS Opposite-Spin Energy  =      -0.9391248836155497 [Eh]
	 SCS Correlation Energy    =      -1.0127926115451402 [Eh]
	 SCS Total Energy          =    -212.2374851347927347 [Eh]
	-----------------------------------------------------------

  Dipole Moment: [D]
     X:     0.3382      Y:     2.4440      Z:     0.2336     Total:     2.4784

*** Psi4 exiting successfully. Buy a developer a beer!
