                               Psi4 1.4a3.dev225

  ==> Input File <==

--------------------------------------------------------------------------
#psi4
#
memory 32 gb

molecule  {
0 1
  N       -1.3248030    -1.1740260    -0.2505360
  C        0.8182300    -0.4554710     0.5470430
  C       -0.4763833    -0.0167372     0.1424460
  C        1.8790820     0.1519800    -0.3759300
  C       -1.0163770     1.2764630     0.0491600
  H        0.9506150    -0.0630590     1.5639460
  H        0.9302930    -1.5419040     0.5914080
  H        2.8813100    -0.1399000    -0.0505570
  H        1.8374890     1.2445300    -0.3804150
  H        1.7406910    -0.2009300    -1.4019490
  H       -0.7901170     1.7727720     0.9986380
  H       -0.4789730     1.8177080    -0.7361320
  H       -2.0886730     1.3644810    -0.1460260
  H       -2.2520240    -0.8395090    -0.5445200
units angstrom
no_reorient  #important for SAPT in psi4, default
symmetry c1  #important for SAPT in psi4, default
}

set PROPERTIES_ORIGIN ["COM"]
properties('MP2/aug-cc-pvtz', properties = ['dipole'])
--------------------------------------------------------------------------

    Molecular point group: c1
  Charge       = 0
  Multiplicity = 1
  Basis Set: AUG-CC-PVTZ
    Blend: AUG-CC-PVTZ
  Basis Set: (AUG-CC-PVTZ AUX)
    Blend: AUG-CC-PVTZ-JKFIT

    Orbital Energies [Eh]
    ---------------------

    Doubly Occupied:

       1A    -15.543554     2A    -11.304588     3A    -11.241554
       4A    -11.233711     5A    -11.229216     6A     -1.162773
       7A     -1.041656     8A     -1.004427     9A     -0.891648
      10A     -0.738842    11A     -0.654034    12A     -0.630822
      13A     -0.607835    14A     -0.586315    15A     -0.570455
      16A     -0.525535    17A     -0.515244    18A     -0.478412
      19A     -0.409309    20A     -0.349366

  @DF-RHF Final Energy:  -211.16169168690419

   => Energetics <=

    Nuclear Repulsion Energy =            176.6326874504730995
    One-Electron Energy =                -634.1501618949663452
    Two-Electron Energy =                 246.3557827575890542
    Total Energy =                       -211.1616916869041916
  Basis Set: (AUG-CC-PVTZ AUX)
    Blend: AUG-CC-PVTZ-RI
    Molecular point group: c1

    Geometry (in Angstrom), charge = 0, multiplicity = 1:

       Center              X                  Y                   Z               Mass
    ------------   -----------------  -----------------  -----------------  -----------------
         N           -1.305882925084    -1.152579888055    -0.260918498123    14.003074004430
         C            0.837150074916    -0.434024888055     0.536660501877    12.000000000000
         C           -0.457463225084     0.004708911945     0.132063501877    12.000000000000
         C            1.898002074916     0.173426111945    -0.386312498123    12.000000000000
         C           -0.997456925084     1.297909111945     0.038777501877    12.000000000000
         H            0.969535074916    -0.041612888055     1.553563501877     1.007825032230
         H            0.949213074916    -1.520457888055     0.581025501877     1.007825032230
         H            2.900230074916    -0.118453888055    -0.060939498123     1.007825032230
         H            1.856409074916     1.265976111945    -0.390797498123     1.007825032230
         H            1.759611074916    -0.179483888055    -1.412331498123     1.007825032230
         H           -0.771196925084     1.794218111945     0.988255501877     1.007825032230
         H           -0.460052925084     1.839154111945    -0.746514498123     1.007825032230
         H           -2.069752925084     1.385927111945    -0.156408498123     1.007825032230
         H           -2.233103925084    -0.818062888055    -0.554902498123     1.007825032230

  Basis Set: AUG-CC-PVTZ
    Blend: AUG-CC-PVTZ
  Basis Set: (AUG-CC-PVTZ AUX)
    Blend: AUG-CC-PVTZ-JKFIT
	 Reference Energy          =    -211.1616916869041916 [Eh]
	 Singles Energy            =      -0.0000000000000000 [Eh]
	 Same-Spin Energy          =      -0.2271643668980980 [Eh]
	 Opposite-Spin Energy      =      -0.7945311206916821 [Eh]
	 Correlation Energy        =      -1.0216954875897801 [Eh]
	 Total Energy              =    -212.1833871744939586 [Eh]

	 ================> DF-SCS-MP2 Energies <==================
	-----------------------------------------------------------
	 SCS Same-Spin Scale       =       0.3333333333333333 [-]
	 SCS Opposite-Spin Scale   =       1.2000000000000000 [-]
	 SCS Same-Spin Energy      =      -0.0757214556326993 [Eh]
	 SCS Opposite-Spin Energy  =      -0.9534373448300184 [Eh]
	 SCS Correlation Energy    =      -1.0291588004627177 [Eh]
	 SCS Total Energy          =    -212.1908504873669017 [Eh]
	-----------------------------------------------------------

  Dipole Moment: [D]
     X:     0.5926      Y:     2.6791      Z:     0.3227     Total:     2.7627

*** Psi4 exiting successfully. Buy a developer a beer!
