                               Psi4 1.4a3.dev225

  ==> Input File <==

--------------------------------------------------------------------------
#psi4
#
memory 32 gb

molecule  {
0 1
  N       -1.3248030    -1.1740260    -0.2505360
  C        0.8182300    -0.4554710     0.5470430
  C       -0.6247433    -0.1449007     0.0800138
  C        1.8790820     0.1519800    -0.3759300
  C       -1.0163770     1.2764630     0.0491600
  H        0.9506150    -0.0630590     1.5639460
  H        0.9302930    -1.5419040     0.5914080
  H        2.8813100    -0.1399000    -0.0505570
  H        1.8374890     1.2445300    -0.3804150
  H        1.7406910    -0.2009300    -1.4019490
  H       -0.7901170     1.7727720     0.9986380
  H       -0.4789730     1.8177080    -0.7361320
  H       -2.0886730     1.3644810    -0.1460260
  H       -2.2520240    -0.8395090    -0.5445200
units angstrom
no_reorient  #important for SAPT in psi4, default
symmetry c1  #important for SAPT in psi4, default
}

set PROPERTIES_ORIGIN ["COM"]
properties('MP2/aug-cc-pvtz', properties = ['dipole'])
--------------------------------------------------------------------------

    Molecular point group: c1
  Charge       = 0
  Multiplicity = 1
  Basis Set: AUG-CC-PVTZ
    Blend: AUG-CC-PVTZ
  Basis Set: (AUG-CC-PVTZ AUX)
    Blend: AUG-CC-PVTZ-JKFIT

    Orbital Energies [Eh]
    ---------------------

    Doubly Occupied:

       1A    -15.542382     2A    -11.284712     3A    -11.236666
       4A    -11.227247     5A    -11.221539     6A     -1.205506
       7A     -1.040425     8A     -0.989893     9A     -0.869142
      10A     -0.730820    11A     -0.652822    12A     -0.620208
      13A     -0.606523    14A     -0.585080    15A     -0.554670
      16A     -0.519125    17A     -0.494630    18A     -0.488086
      19A     -0.414082    20A     -0.409473

  @DF-RHF Final Energy:  -211.22530408208905

   => Energetics <=

    Nuclear Repulsion Energy =            176.5456724016770522
    One-Electron Energy =                -634.1558894329235727
    Two-Electron Energy =                 246.3849129491574672
    Total Energy =                       -211.2253040820890533
  Basis Set: (AUG-CC-PVTZ AUX)
    Blend: AUG-CC-PVTZ-RI
    Molecular point group: c1

    Geometry (in Angstrom), charge = 0, multiplicity = 1:

       Center              X                  Y                   Z               Mass
    ------------   -----------------  -----------------  -----------------  -----------------
         N           -1.280833926263    -1.130940852194    -0.250377489063    14.003074004430
         C            0.862199073737    -0.412385852194     0.547201510937    12.000000000000
         C           -0.580774226263    -0.101815552194     0.080172310937    12.000000000000
         C            1.923051073737     0.195065147806    -0.375771489063    12.000000000000
         C           -0.972407926263     1.319548147806     0.049318510937    12.000000000000
         H            0.994584073737    -0.019973852194     1.564104510937     1.007825032230
         H            0.974262073737    -1.498818852194     0.591566510937     1.007825032230
         H            2.925279073737    -0.096814852194    -0.050398489063     1.007825032230
         H            1.881458073737     1.287615147806    -0.380256489063     1.007825032230
         H            1.784660073737    -0.157844852194    -1.401790489063     1.007825032230
         H           -0.746147926263     1.815857147806     0.998796510937     1.007825032230
         H           -0.435003926263     1.860793147806    -0.735973489063     1.007825032230
         H           -2.044703926263     1.407566147806    -0.145867489063     1.007825032230
         H           -2.208054926263    -0.796423852194    -0.544361489063     1.007825032230

  Basis Set: AUG-CC-PVTZ
    Blend: AUG-CC-PVTZ
  Basis Set: (AUG-CC-PVTZ AUX)
    Blend: AUG-CC-PVTZ-JKFIT
	 Reference Energy          =    -211.2253040820890533 [Eh]
	 Singles Energy            =      -0.0000000000000000 [Eh]
	 Same-Spin Energy          =      -0.2206551588744012 [Eh]
	 Opposite-Spin Energy      =      -0.7823715074070685 [Eh]
	 Correlation Energy        =      -1.0030266662814697 [Eh]
	 Total Energy              =    -212.2283307483705244 [Eh]

	 ================> DF-SCS-MP2 Energies <==================
	-----------------------------------------------------------
	 SCS Same-Spin Scale       =       0.3333333333333333 [-]
	 SCS Opposite-Spin Scale   =       1.2000000000000000 [-]
	 SCS Same-Spin Energy      =      -0.0735517196248004 [Eh]
	 SCS Opposite-Spin Energy  =      -0.9388458088884821 [Eh]
	 SCS Correlation Energy    =      -1.0123975285132825 [Eh]
	 SCS Total Energy          =    -212.2377016106023291 [Eh]
	-----------------------------------------------------------

  Dipole Moment: [D]
     X:     0.2457      Y:     2.4527      Z:     0.2161     Total:     2.4744

*** Psi4 exiting successfully. Buy a developer a beer!
