                               Psi4 1.4a3.dev225

  ==> Input File <==

--------------------------------------------------------------------------
#psi4
#
memory 32 gb

molecule  {
0 1
  N       -1.3248030    -1.1740260    -0.2505360
  C        0.8182300    -0.4554710     0.5470430
  C       -0.5904330    -0.1723070     0.0896190
  C        1.8790820     0.1519800    -0.3759300
  C       -1.0163770     1.2764630     0.0491600
  H        0.9506150    -0.0630590     1.5639460
  H        0.9323434    -1.5617821     0.5922197
  H        2.8813100    -0.1399000    -0.0505570
  H        1.8374890     1.2445300    -0.3804150
  H        1.7406910    -0.2009300    -1.4019490
  H       -0.7901170     1.7727720     0.9986380
  H       -0.4789730     1.8177080    -0.7361320
  H       -2.0886730     1.3644810    -0.1460260
  H       -2.2520240    -0.8395090    -0.5445200
units angstrom
no_reorient  #important for SAPT in psi4, default
symmetry c1  #important for SAPT in psi4, default
}

set PROPERTIES_ORIGIN ["COM"]
properties('MP2/aug-cc-pvtz', properties = ['dipole'])
--------------------------------------------------------------------------

    Molecular point group: c1
  Charge       = 0
  Multiplicity = 1
  Basis Set: AUG-CC-PVTZ
    Blend: AUG-CC-PVTZ
  Basis Set: (AUG-CC-PVTZ AUX)
    Blend: AUG-CC-PVTZ-JKFIT

    Orbital Energies [Eh]
    ---------------------

    Doubly Occupied:

       1A    -15.541232     2A    -11.284890     3A    -11.236389
       4A    -11.229478     5A    -11.223455     6A     -1.203998
       7A     -1.043469     8A     -0.981611     9A     -0.875592
      10A     -0.730765    11A     -0.652568    12A     -0.617452
      13A     -0.604011    14A     -0.583288    15A     -0.554089
      16A     -0.522538    17A     -0.500817    18A     -0.487023
      19A     -0.411467    20A     -0.408620

  @DF-RHF Final Energy:  -211.22721448702526

   => Energetics <=

    Nuclear Repulsion Energy =            176.5520601218444199
    One-Electron Energy =                -634.1730449597980623
    Two-Electron Energy =                 246.3937703509283779
    Total Energy =                       -211.2272144870252646
  Basis Set: (AUG-CC-PVTZ AUX)
    Blend: AUG-CC-PVTZ-RI
    Molecular point group: c1

    Geometry (in Angstrom), charge = 0, multiplicity = 1:

       Center              X                  Y                   Z               Mass
    ------------   -----------------  -----------------  -----------------  -----------------
         N           -1.286655928114    -1.126031719392    -0.252010734263    14.003074004430
         C            0.856377071886    -0.407476719392     0.545568265737    12.000000000000
         C           -0.552285928114    -0.124312719392     0.088144265737    12.000000000000
         C            1.917229071886     0.199974280608    -0.377404734263    12.000000000000
         C           -0.978229928114     1.324457280608     0.047685265737    12.000000000000
         H            0.988762071886    -0.015064719392     1.562471265737     1.007825032230
         H            0.970490471886    -1.513787819392     0.590744965737     1.007825032230
         H            2.919457071886    -0.091905719392    -0.052031734263     1.007825032230
         H            1.875636071886     1.292524280608    -0.381889734263     1.007825032230
         H            1.778838071886    -0.152935719392    -1.403423734263     1.007825032230
         H           -0.751969928114     1.820766280608     0.997163265737     1.007825032230
         H           -0.440825928114     1.865702280608    -0.737606734263     1.007825032230
         H           -2.050525928114     1.412475280608    -0.147500734263     1.007825032230
         H           -2.213876928114    -0.791514719392    -0.545994734263     1.007825032230

  Basis Set: AUG-CC-PVTZ
    Blend: AUG-CC-PVTZ
  Basis Set: (AUG-CC-PVTZ AUX)
    Blend: AUG-CC-PVTZ-JKFIT
	 Reference Energy          =    -211.2272144870252646 [Eh]
	 Singles Energy            =      -0.0000000000000000 [Eh]
	 Same-Spin Energy          =      -0.2205299955425357 [Eh]
	 Opposite-Spin Energy      =      -0.7822501279514074 [Eh]
	 Correlation Energy        =      -1.0027801234939431 [Eh]
	 Total Energy              =    -212.2299946105192134 [Eh]

	 ================> DF-SCS-MP2 Energies <==================
	-----------------------------------------------------------
	 SCS Same-Spin Scale       =       0.3333333333333333 [-]
	 SCS Opposite-Spin Scale   =       1.2000000000000000 [-]
	 SCS Same-Spin Energy      =      -0.0735099985141786 [Eh]
	 SCS Opposite-Spin Energy  =      -0.9387001535416888 [Eh]
	 SCS Correlation Energy    =      -1.0122101520558673 [Eh]
	 SCS Total Energy          =    -212.2394246390811361 [Eh]
	-----------------------------------------------------------

  Dipole Moment: [D]
     X:     0.3431      Y:     2.3939      Z:     0.2310     Total:     2.4294

*** Psi4 exiting successfully. Buy a developer a beer!
