                               Psi4 1.4a3.dev225

  ==> Input File <==

--------------------------------------------------------------------------
#psi4
#
memory 32 gb

molecule  {
0 1
  N       -1.3248030    -1.1740260    -0.2505360
  C        0.8182300    -0.4554710     0.5470430
  C       -0.5904330    -0.1723070     0.0896190
  C        1.8790820     0.1519800    -0.3759300
  C       -1.0163770     1.2764630     0.0491600
  H        0.9506150    -0.0630590     1.5639460
  H        0.9302930    -1.5419040     0.5914080
  H        2.8813100    -0.1399000    -0.0505570
  H        1.8374890     1.2445300    -0.3804150
  H        1.7406910    -0.2009300    -1.4019490
  H       -0.7901170     1.7727720     0.9986380
  H       -0.4789730     1.8177080    -0.7361320
  H       -2.0886730     1.3644810    -0.1460260
  H       -2.4323078    -0.7744673    -0.6016806
units angstrom
no_reorient  #important for SAPT in psi4, default
symmetry c1  #important for SAPT in psi4, default
}

set PROPERTIES_ORIGIN ["COM"]
properties('MP2/aug-cc-pvtz', properties = ['dipole'])
--------------------------------------------------------------------------

    Molecular point group: c1
  Charge       = 0
  Multiplicity = 1
  Basis Set: AUG-CC-PVTZ
    Blend: AUG-CC-PVTZ
  Basis Set: (AUG-CC-PVTZ AUX)
    Blend: AUG-CC-PVTZ-JKFIT

    Orbital Energies [Eh]
    ---------------------

    Doubly Occupied:

       1A    -15.563537     2A    -11.285392     3A    -11.235968
       4A    -11.230365     5A    -11.224651     6A     -1.193567
       7A     -1.040037     8A     -0.980245     9A     -0.872913
      10A     -0.715282    11A     -0.639603    12A     -0.615151
      13A     -0.599719    14A     -0.579824    15A     -0.554353
      16A     -0.523390    17A     -0.501523    18A     -0.490490
      19A     -0.409547    20A     -0.402176

  @DF-RHF Final Energy:  -211.20017153598621

   => Energetics <=

    Nuclear Repulsion Energy =            175.7936023108410950
    One-Electron Energy =                -632.6720860567000955
    Two-Electron Energy =                 245.6783122098727858
    Total Energy =                       -211.2001715359862146
  Basis Set: (AUG-CC-PVTZ AUX)
    Blend: AUG-CC-PVTZ-RI
    Molecular point group: c1

    Geometry (in Angstrom), charge = 0, multiplicity = 1:

       Center              X                  Y                   Z               Mass
    ------------   -----------------  -----------------  -----------------  -----------------
         N           -1.284070421944    -1.127235885516    -0.251188684756    14.003074004430
         C            0.858962578056    -0.408680885516     0.546390315244    12.000000000000
         C           -0.549700421944    -0.125516885516     0.088966315244    12.000000000000
         C            1.919814578056     0.198770114484    -0.376582684756    12.000000000000
         C           -0.975644421944     1.323253114484     0.048507315244    12.000000000000
         H            0.991347578056    -0.016268885516     1.563293315244     1.007825032230
         H            0.971025578056    -1.495113885516     0.590755315244     1.007825032230
         H            2.922042578056    -0.093109885516    -0.051209684756     1.007825032230
         H            1.878221578056     1.291320114484    -0.381067684756     1.007825032230
         H            1.781423578056    -0.154139885516    -1.402601684756     1.007825032230
         H           -0.749384421944     1.819562114484     0.997985315244     1.007825032230
         H           -0.438240421944     1.864498114484    -0.736784684756     1.007825032230
         H           -2.047940421944     1.411271114484    -0.146678684756     1.007825032230
         H           -2.391575221944    -0.727677185516    -0.602333284756     1.007825032230

  Basis Set: AUG-CC-PVTZ
    Blend: AUG-CC-PVTZ
  Basis Set: (AUG-CC-PVTZ AUX)
    Blend: AUG-CC-PVTZ-JKFIT
	 Reference Energy          =    -211.2001715359862146 [Eh]
	 Singles Energy            =      -0.0000000000000000 [Eh]
	 Same-Spin Energy          =      -0.2218257959314796 [Eh]
	 Opposite-Spin Energy      =      -0.7866812139062486 [Eh]
	 Correlation Energy        =      -1.0085070098377282 [Eh]
	 Total Energy              =    -212.2086785458239433 [Eh]

	 ================> DF-SCS-MP2 Energies <==================
	-----------------------------------------------------------
	 SCS Same-Spin Scale       =       0.3333333333333333 [-]
	 SCS Opposite-Spin Scale   =       1.2000000000000000 [-]
	 SCS Same-Spin Energy      =      -0.0739419319771599 [Eh]
	 SCS Opposite-Spin Energy  =      -0.9440174566874983 [Eh]
	 SCS Correlation Energy    =      -1.0179593886646581 [Eh]
	 SCS Total Energy          =    -212.2181309246508647 [Eh]
	-----------------------------------------------------------

  Dipole Moment: [D]
     X:     0.4760      Y:     2.3640      Z:     0.2674     Total:     2.4262

*** Psi4 exiting successfully. Buy a developer a beer!
