                               Psi4 1.4a3.dev225

  ==> Input File <==

--------------------------------------------------------------------------
#psi4
#
memory 32 gb

molecule  {
0 1
  N       -1.3248030    -1.1740260    -0.2505360
  C        0.8182300    -0.4554710     0.5470430
  C       -0.5904330    -0.1723070     0.0896190
  C        1.8790820     0.1519800    -0.3759300
  C       -1.0163770     1.2764630     0.0491600
  H        0.9506150    -0.0630590     1.5639460
  H        0.9354189    -1.5915991     0.5934373
  H        2.8813100    -0.1399000    -0.0505570
  H        1.8374890     1.2445300    -0.3804150
  H        1.7406910    -0.2009300    -1.4019490
  H       -0.7901170     1.7727720     0.9986380
  H       -0.4789730     1.8177080    -0.7361320
  H       -2.0886730     1.3644810    -0.1460260
  H       -2.2520240    -0.8395090    -0.5445200
units angstrom
no_reorient  #important for SAPT in psi4, default
symmetry c1  #important for SAPT in psi4, default
}

set PROPERTIES_ORIGIN ["COM"]
properties('MP2/aug-cc-pvtz', properties = ['dipole'])
--------------------------------------------------------------------------

    Molecular point group: c1
  Charge       = 0
  Multiplicity = 1
  Basis Set: AUG-CC-PVTZ
    Blend: AUG-CC-PVTZ
  Basis Set: (AUG-CC-PVTZ AUX)
    Blend: AUG-CC-PVTZ-JKFIT

    Orbital Energies [Eh]
    ---------------------

    Doubly Occupied:

       1A    -15.541287     2A    -11.285099     3A    -11.236653
       4A    -11.232857     5A    -11.223683     6A     -1.203950
       7A     -1.042730     8A     -0.981547     9A     -0.874606
      10A     -0.729611    11A     -0.651101    12A     -0.617586
      13A     -0.603535    14A     -0.583366    15A     -0.554137
      16A     -0.522443    17A     -0.500998    18A     -0.483052
      19A     -0.411616    20A     -0.408666

  @DF-RHF Final Energy:  -211.22554076671750

   => Energetics <=

    Nuclear Repulsion Energy =            176.4238925861155565
    One-Electron Energy =                -633.9218254883368218
    Two-Electron Energy =                 246.2723921355037362
    Total Energy =                       -211.2255407667175007
  Basis Set: (AUG-CC-PVTZ AUX)
    Blend: AUG-CC-PVTZ-RI
    Molecular point group: c1

    Geometry (in Angstrom), charge = 0, multiplicity = 1:

       Center              X                  Y                   Z               Mass
    ------------   -----------------  -----------------  -----------------  -----------------
         N           -1.286699538826    -1.125608913152    -0.252027999880    14.003074004430
         C            0.856333461174    -0.407053913152     0.545551000120    12.000000000000
         C           -0.552329538826    -0.123889913152     0.088127000120    12.000000000000
         C            1.917185461174     0.200397086848    -0.377421999880    12.000000000000
         C           -0.978273538826     1.324880086848     0.047668000120    12.000000000000
         H            0.988718461174    -0.014641913152     1.562454000120     1.007825032230
         H            0.973522361174    -1.543182013152     0.591945300120     1.007825032230
         H            2.919413461174    -0.091482913152    -0.052048999880     1.007825032230
         H            1.875592461174     1.292947086848    -0.381906999880     1.007825032230
         H            1.778794461174    -0.152512913152    -1.403440999880     1.007825032230
         H           -0.752013538826     1.821189086848     0.997146000120     1.007825032230
         H           -0.440869538826     1.866125086848    -0.737623999880     1.007825032230
         H           -2.050569538826     1.412898086848    -0.147517999880     1.007825032230
         H           -2.213920538826    -0.791091913152    -0.546011999880     1.007825032230

  Basis Set: AUG-CC-PVTZ
    Blend: AUG-CC-PVTZ
  Basis Set: (AUG-CC-PVTZ AUX)
    Blend: AUG-CC-PVTZ-JKFIT
	 Reference Energy          =    -211.2255407667175007 [Eh]
	 Singles Energy            =      -0.0000000000000000 [Eh]
	 Same-Spin Energy          =      -0.2205683546128534 [Eh]
	 Opposite-Spin Energy      =      -0.7825152430475109 [Eh]
	 Correlation Energy        =      -1.0030835976603643 [Eh]
	 Total Energy              =    -212.2286243643778789 [Eh]

	 ================> DF-SCS-MP2 Energies <==================
	-----------------------------------------------------------
	 SCS Same-Spin Scale       =       0.3333333333333333 [-]
	 SCS Opposite-Spin Scale   =       1.2000000000000000 [-]
	 SCS Same-Spin Energy      =      -0.0735227848709511 [Eh]
	 SCS Opposite-Spin Energy  =      -0.9390182916570130 [Eh]
	 SCS Correlation Energy    =      -1.0125410765279641 [Eh]
	 SCS Total Energy          =    -212.2380818432454532 [Eh]
	-----------------------------------------------------------

  Dipole Moment: [D]
     X:     0.3376      Y:     2.4071      Z:     0.2255     Total:     2.4411

*** Psi4 exiting successfully. Buy a developer a beer!
