                               Psi4 1.4a3.dev225

  ==> Input File <==

--------------------------------------------------------------------------
#psi4
#
memory 32 gb

molecule  {
0 1
  N       -1.3248030    -1.1740260    -0.2505360
  C        0.8182300    -0.4554710     0.5470430
  C       -0.4930321    -0.2617076     0.1159037
  C        1.8790820     0.1519800    -0.3759300
  C       -1.0163770     1.2764630     0.0491600
  H        0.9506150    -0.0630590     1.5639460
  H        0.9302930    -1.5419040     0.5914080
  H        2.8813100    -0.1399000    -0.0505570
  H        1.8374890     1.2445300    -0.3804150
  H        1.7406910    -0.2009300    -1.4019490
  H       -0.7901170     1.7727720     0.9986380
  H       -0.4789730     1.8177080    -0.7361320
  H       -2.0886730     1.3644810    -0.1460260
  H       -2.2520240    -0.8395090    -0.5445200
units angstrom
no_reorient  #important for SAPT in psi4, default
symmetry c1  #important for SAPT in psi4, default
}

set PROPERTIES_ORIGIN ["COM"]
properties('MP2/aug-cc-pvtz', properties = ['dipole'])
--------------------------------------------------------------------------

    Molecular point group: c1
  Charge       = 0
  Multiplicity = 1
  Basis Set: AUG-CC-PVTZ
    Blend: AUG-CC-PVTZ
  Basis Set: (AUG-CC-PVTZ AUX)
    Blend: AUG-CC-PVTZ-JKFIT

    Orbital Energies [Eh]
    ---------------------

    Doubly Occupied:

       1A    -15.539358     2A    -11.286997     3A    -11.233338
       4A    -11.229290     5A    -11.226379     6A     -1.202482
       7A     -1.060384     8A     -0.957449     9A     -0.898681
      10A     -0.734963    11A     -0.660475    12A     -0.624410
      13A     -0.589300    14A     -0.577001    15A     -0.550376
      16A     -0.536111    17A     -0.518299    18A     -0.489134
      19A     -0.406289    20A     -0.391612

  @DF-RHF Final Energy:  -211.20904929198178

   => Energetics <=

    Nuclear Repulsion Energy =            176.9839469996271930
    One-Electron Energy =                -634.9613372533244728
    Two-Electron Energy =                 246.7683409617155235
    Total Energy =                       -211.2090492919817848
  Basis Set: (AUG-CC-PVTZ AUX)
    Blend: AUG-CC-PVTZ-RI
    Molecular point group: c1

    Geometry (in Angstrom), charge = 0, multiplicity = 1:

       Center              X                  Y                   Z               Mass
    ------------   -----------------  -----------------  -----------------  -----------------
         N           -1.303071953315    -1.111219256749    -0.256437114722    14.003074004430
         C            0.839961046685    -0.392664256749     0.541141885278    12.000000000000
         C           -0.471301053315    -0.198900856749     0.110002585278    12.000000000000
         C            1.900813046685     0.214786743251    -0.381831114722    12.000000000000
         C           -0.994645953315     1.339269743251     0.043258885278    12.000000000000
         H            0.972346046685    -0.000252256749     1.558044885278     1.007825032230
         H            0.952024046685    -1.479097256749     0.585506885278     1.007825032230
         H            2.903041046685    -0.077093256749    -0.056458114722     1.007825032230
         H            1.859220046685     1.307336743251    -0.386316114722     1.007825032230
         H            1.762422046685    -0.138123256749    -1.407850114722     1.007825032230
         H           -0.768385953315     1.835578743251     0.992736885278     1.007825032230
         H           -0.457241953315     1.880514743251    -0.742033114722     1.007825032230
         H           -2.066941953315     1.427287743251    -0.151927114722     1.007825032230
         H           -2.230292953315    -0.776702256749    -0.550421114722     1.007825032230

  Basis Set: AUG-CC-PVTZ
    Blend: AUG-CC-PVTZ
  Basis Set: (AUG-CC-PVTZ AUX)
    Blend: AUG-CC-PVTZ-JKFIT
	 Reference Energy          =    -211.2090492919817848 [Eh]
	 Singles Energy            =      -0.0000000000000000 [Eh]
	 Same-Spin Energy          =      -0.2212253383856004 [Eh]
	 Opposite-Spin Energy      =      -0.7832701401131281 [Eh]
	 Correlation Energy        =      -1.0044954784987286 [Eh]
	 Total Energy              =    -212.2135447704805244 [Eh]

	 ================> DF-SCS-MP2 Energies <==================
	-----------------------------------------------------------
	 SCS Same-Spin Scale       =       0.3333333333333333 [-]
	 SCS Opposite-Spin Scale   =       1.2000000000000000 [-]
	 SCS Same-Spin Energy      =      -0.0737417794618668 [Eh]
	 SCS Opposite-Spin Energy  =      -0.9399241681357537 [Eh]
	 SCS Correlation Energy    =      -1.0136659475976206 [Eh]
	 SCS Total Energy          =    -212.2227152395794008 [Eh]
	-----------------------------------------------------------

  Dipole Moment: [D]
     X:     0.6699      Y:     2.1444      Z:     0.2878     Total:     2.2650

*** Psi4 exiting successfully. Buy a developer a beer!
