                               Psi4 1.4a3.dev225

  ==> Input File <==

--------------------------------------------------------------------------
#psi4
#
memory 32 gb

molecule  {
0 1
  N       -1.3248030    -1.1740260    -0.2505360
  C        0.8182300    -0.4554710     0.5470430
  C       -0.5904330    -0.1723070     0.0896190
  C        1.8790820     0.1519800    -0.3759300
  C       -1.0163770     1.2764630     0.0491600
  H        0.9506150    -0.0630590     1.5639460
  H        0.9302930    -1.5419040     0.5914080
  H        2.8813100    -0.1399000    -0.0505570
  H        1.8374890     1.2445300    -0.3804150
  H        1.7533432    -0.1686656    -1.3081464
  H       -0.7901170     1.7727720     0.9986380
  H       -0.4789730     1.8177080    -0.7361320
  H       -2.0886730     1.3644810    -0.1460260
  H       -2.2520240    -0.8395090    -0.5445200
units angstrom
no_reorient  #important for SAPT in psi4, default
symmetry c1  #important for SAPT in psi4, default
}

set PROPERTIES_ORIGIN ["COM"]
properties('MP2/aug-cc-pvtz', properties = ['dipole'])
--------------------------------------------------------------------------

    Molecular point group: c1
  Charge       = 0
  Multiplicity = 1
  Basis Set: AUG-CC-PVTZ
    Blend: AUG-CC-PVTZ
  Basis Set: (AUG-CC-PVTZ AUX)
    Blend: AUG-CC-PVTZ-JKFIT

    Orbital Energies [Eh]
    ---------------------

    Doubly Occupied:

       1A    -15.541088     2A    -11.284570     3A    -11.236134
       4A    -11.226175     5A    -11.210834     6A     -1.203982
       7A     -1.047435     8A     -0.982897     9A     -0.883960
      10A     -0.733117    11A     -0.654403    12A     -0.618635
      13A     -0.606428    14A     -0.588534    15A     -0.553921
      16A     -0.525998    17A     -0.505243    18A     -0.490114
      19A     -0.411256    20A     -0.408350

  @DF-RHF Final Energy:  -211.22164140222876

   => Energetics <=

    Nuclear Repulsion Energy =            177.0566928082058098
    One-Electron Energy =                -635.1305207457830875
    Two-Electron Energy =                 246.8521865353485225
    Total Energy =                       -211.2216414022287552
  Basis Set: (AUG-CC-PVTZ AUX)
    Blend: AUG-CC-PVTZ-RI
    Molecular point group: c1

    Geometry (in Angstrom), charge = 0, multiplicity = 1:

       Center              X                  Y                   Z               Mass
    ------------   -----------------  -----------------  -----------------  -----------------
         N           -1.286806262058    -1.126771102105    -0.253329348905    14.003074004430
         C            0.856226737942    -0.408216102105     0.544249651095    12.000000000000
         C           -0.552436262058    -0.125052102105     0.086825651095    12.000000000000
         C            1.917078737942     0.199234897895    -0.378723348905    12.000000000000
         C           -0.978380262058     1.323717897895     0.046366651095    12.000000000000
         H            0.988611737942    -0.015804102105     1.561152651095     1.007825032230
         H            0.968289737942    -1.494649102105     0.588614651095     1.007825032230
         H            2.919306737942    -0.092645102105    -0.053350348905     1.007825032230
         H            1.875485737942     1.291784897895    -0.383208348905     1.007825032230
         H            1.791339937942    -0.121410702105    -1.310939748905     1.007825032230
         H           -0.752120262058     1.820026897895     0.995844651095     1.007825032230
         H           -0.440976262058     1.864962897895    -0.738925348905     1.007825032230
         H           -2.050676262058     1.411735897895    -0.148819348905     1.007825032230
         H           -2.214027262058    -0.792254102105    -0.547313348905     1.007825032230

  Basis Set: AUG-CC-PVTZ
    Blend: AUG-CC-PVTZ
  Basis Set: (AUG-CC-PVTZ AUX)
    Blend: AUG-CC-PVTZ-JKFIT
	 Reference Energy          =    -211.2216414022287552 [Eh]
	 Singles Energy            =      -0.0000000000000000 [Eh]
	 Same-Spin Energy          =      -0.2205651404396341 [Eh]
	 Opposite-Spin Energy      =      -0.7816546916485476 [Eh]
	 Correlation Energy        =      -1.0022198320881817 [Eh]
	 Total Energy              =    -212.2238612343169279 [Eh]

	 ================> DF-SCS-MP2 Energies <==================
	-----------------------------------------------------------
	 SCS Same-Spin Scale       =       0.3333333333333333 [-]
	 SCS Opposite-Spin Scale   =       1.2000000000000000 [-]
	 SCS Same-Spin Energy      =      -0.0735217134798780 [Eh]
	 SCS Opposite-Spin Energy  =      -0.9379856299782571 [Eh]
	 SCS Correlation Energy    =      -1.0115073434581352 [Eh]
	 SCS Total Energy          =    -212.2331487456868899 [Eh]
	-----------------------------------------------------------

  Dipole Moment: [D]
     X:     0.3556      Y:     2.3801      Z:     0.1871     Total:     2.4138

*** Psi4 exiting successfully. Buy a developer a beer!
