                               Psi4 1.4a3.dev225

  ==> Input File <==

--------------------------------------------------------------------------
#psi4
#
memory 32 gb

molecule  {
0 1
  N       -1.2551589    -1.2275420    -0.2314173
  C        0.8182300    -0.4554710     0.5470430
  C       -0.5904330    -0.1723070     0.0896190
  C        1.8790820     0.1519800    -0.3759300
  C       -1.0163770     1.2764630     0.0491600
  H        0.9506150    -0.0630590     1.5639460
  H        0.9302930    -1.5419040     0.5914080
  H        2.8813100    -0.1399000    -0.0505570
  H        1.8374890     1.2445300    -0.3804150
  H        1.7406910    -0.2009300    -1.4019490
  H       -0.7901170     1.7727720     0.9986380
  H       -0.4789730     1.8177080    -0.7361320
  H       -2.0886730     1.3644810    -0.1460260
  H       -2.2520240    -0.8395090    -0.5445200
units angstrom
no_reorient  #important for SAPT in psi4, default
symmetry c1  #important for SAPT in psi4, default
}

set PROPERTIES_ORIGIN ["COM"]
properties('MP2/aug-cc-pvtz', properties = ['dipole'])
--------------------------------------------------------------------------

    Molecular point group: c1
  Charge       = 0
  Multiplicity = 1
  Basis Set: AUG-CC-PVTZ
    Blend: AUG-CC-PVTZ
  Basis Set: (AUG-CC-PVTZ AUX)
    Blend: AUG-CC-PVTZ-JKFIT

    Orbital Energies [Eh]
    ---------------------

    Doubly Occupied:

       1A    -15.553787     2A    -11.284618     3A    -11.240447
       4A    -11.224280     5A    -11.221840     6A     -1.202440
       7A     -1.039638     8A     -0.985078     9A     -0.872106
      10A     -0.719603    11A     -0.647589    12A     -0.616054
      13A     -0.603363    14A     -0.581265    15A     -0.554781
      16A     -0.520657    17A     -0.497923    18A     -0.488027
      19A     -0.415235    20A     -0.410080

  @DF-RHF Final Energy:  -211.21702601760057

   => Energetics <=

    Nuclear Repulsion Energy =            176.5280494850123603
    One-Electron Energy =                -634.1325269478510336
    Two-Electron Energy =                 246.3874514452380708
    Total Energy =                       -211.2170260176005741
  Basis Set: (AUG-CC-PVTZ AUX)
    Blend: AUG-CC-PVTZ-RI
    Molecular point group: c1

    Geometry (in Angstrom), charge = 0, multiplicity = 1:

       Center              X                  Y                   Z               Mass
    ------------   -----------------  -----------------  -----------------  -----------------
         N           -1.230704203634    -1.169285738923    -0.236647337183    14.003074004430
         C            0.842684696366    -0.397214738923     0.541812962817    12.000000000000
         C           -0.565978303634    -0.114050738923     0.084388962817    12.000000000000
         C            1.903536696366     0.210236261077    -0.381160037183    12.000000000000
         C           -0.991922303634     1.334719261077     0.043929962817    12.000000000000
         H            0.975069696366    -0.004802738923     1.558715962817     1.007825032230
         H            0.954747696366    -1.483647738923     0.586177962817     1.007825032230
         H            2.905764696366    -0.081643738923    -0.055787037183     1.007825032230
         H            1.861943696366     1.302786261077    -0.385645037183     1.007825032230
         H            1.765145696366    -0.142673738923    -1.407179037183     1.007825032230
         H           -0.765662303634     1.831028261077     0.993407962817     1.007825032230
         H           -0.454518303634     1.875964261077    -0.741362037183     1.007825032230
         H           -2.064218303634     1.422737261077    -0.151256037183     1.007825032230
         H           -2.227569303634    -0.781252738923    -0.549750037183     1.007825032230

  Basis Set: AUG-CC-PVTZ
    Blend: AUG-CC-PVTZ
  Basis Set: (AUG-CC-PVTZ AUX)
    Blend: AUG-CC-PVTZ-JKFIT
	 Reference Energy          =    -211.2170260176005741 [Eh]
	 Singles Energy            =      -0.0000000000000000 [Eh]
	 Same-Spin Energy          =      -0.2214979879597411 [Eh]
	 Opposite-Spin Energy      =      -0.7847011731911864 [Eh]
	 Correlation Energy        =      -1.0061991611509276 [Eh]
	 Total Energy              =    -212.2232251787515054 [Eh]

	 ================> DF-SCS-MP2 Energies <==================
	-----------------------------------------------------------
	 SCS Same-Spin Scale       =       0.3333333333333333 [-]
	 SCS Opposite-Spin Scale   =       1.2000000000000000 [-]
	 SCS Same-Spin Energy      =      -0.0738326626532470 [Eh]
	 SCS Opposite-Spin Energy  =      -0.9416414078294236 [Eh]
	 SCS Correlation Energy    =      -1.0154740704826706 [Eh]
	 SCS Total Energy          =    -212.2325000880832420 [Eh]
	-----------------------------------------------------------

  Dipole Moment: [D]
     X:     0.2718      Y:     2.4685      Z:     0.2286     Total:     2.4940

*** Psi4 exiting successfully. Buy a developer a beer!
