                               Psi4 1.4a3.dev225

  ==> Input File <==

--------------------------------------------------------------------------
#psi4
#
memory 32 gb

molecule  {
0 1
  N       -1.3248030    -1.1740260    -0.2505360
  C        0.8182300    -0.4554710     0.5470430
  C       -0.4970139    -0.1910858     0.1199543
  C        1.8790820     0.1519800    -0.3759300
  C       -1.0163770     1.2764630     0.0491600
  H        0.9506150    -0.0630590     1.5639460
  H        0.9302930    -1.5419040     0.5914080
  H        2.8813100    -0.1399000    -0.0505570
  H        1.8374890     1.2445300    -0.3804150
  H        1.7406910    -0.2009300    -1.4019490
  H       -0.7901170     1.7727720     0.9986380
  H       -0.4789730     1.8177080    -0.7361320
  H       -2.0886730     1.3644810    -0.1460260
  H       -2.2520240    -0.8395090    -0.5445200
units angstrom
no_reorient  #important for SAPT in psi4, default
symmetry c1  #important for SAPT in psi4, default
}

set PROPERTIES_ORIGIN ["COM"]
properties('MP2/aug-cc-pvtz', properties = ['dipole'])
--------------------------------------------------------------------------

    Molecular point group: c1
  Charge       = 0
  Multiplicity = 1
  Basis Set: AUG-CC-PVTZ
    Blend: AUG-CC-PVTZ
  Basis Set: (AUG-CC-PVTZ AUX)
    Blend: AUG-CC-PVTZ-JKFIT

    Orbital Energies [Eh]
    ---------------------

    Doubly Occupied:

       1A    -15.541508     2A    -11.290645     3A    -11.236943
       4A    -11.228583     5A    -11.227138     6A     -1.187087
       7A     -1.055071     8A     -0.971068     9A     -0.895100
      10A     -0.733417    11A     -0.658303    12A     -0.620364
      13A     -0.594596    14A     -0.580274    15A     -0.556546
      16A     -0.530627    17A     -0.514345    18A     -0.492257
      19A     -0.403583    20A     -0.390687

  @DF-RHF Final Energy:  -211.21147059989397

   => Energetics <=

    Nuclear Repulsion Energy =            176.8134656132171756
    One-Electron Energy =                -634.6335854137419119
    Two-Electron Energy =                 246.6086492006307367
    Total Energy =                       -211.2114705998939712
  Basis Set: (AUG-CC-PVTZ AUX)
    Blend: AUG-CC-PVTZ-RI
    Molecular point group: c1

    Geometry (in Angstrom), charge = 0, multiplicity = 1:

       Center              X                  Y                   Z               Mass
    ------------   -----------------  -----------------  -----------------  -----------------
         N           -1.302399668983    -1.123142992155    -0.257121015198    14.003074004430
         C            0.840633331017    -0.404587992155     0.540457984802    12.000000000000
         C           -0.474610568983    -0.140202792155     0.113369284802    12.000000000000
         C            1.901485331017     0.202863007845    -0.382515015198    12.000000000000
         C           -0.993973668983     1.327346007845     0.042574984802    12.000000000000
         H            0.973018331017    -0.012175992155     1.557360984802     1.007825032230
         H            0.952696331017    -1.491020992155     0.584822984802     1.007825032230
         H            2.903713331017    -0.089016992155    -0.057142015198     1.007825032230
         H            1.859892331017     1.295413007845    -0.387000015198     1.007825032230
         H            1.763094331017    -0.150046992155    -1.408534015198     1.007825032230
         H           -0.767713668983     1.823655007845     0.992052984802     1.007825032230
         H           -0.456569668983     1.868591007845    -0.742717015198     1.007825032230
         H           -2.066269668983     1.415364007845    -0.152611015198     1.007825032230
         H           -2.229620668983    -0.788625992155    -0.551105015198     1.007825032230

  Basis Set: AUG-CC-PVTZ
    Blend: AUG-CC-PVTZ
  Basis Set: (AUG-CC-PVTZ AUX)
    Blend: AUG-CC-PVTZ-JKFIT
	 Reference Energy          =    -211.2114705998939712 [Eh]
	 Singles Energy            =      -0.0000000000000000 [Eh]
	 Same-Spin Energy          =      -0.2220685157743127 [Eh]
	 Opposite-Spin Energy      =      -0.7850895771635611 [Eh]
	 Correlation Energy        =      -1.0071580929378738 [Eh]
	 Total Energy              =    -212.2186286928318566 [Eh]

	 ================> DF-SCS-MP2 Energies <==================
	-----------------------------------------------------------
	 SCS Same-Spin Scale       =       0.3333333333333333 [-]
	 SCS Opposite-Spin Scale   =       1.2000000000000000 [-]
	 SCS Same-Spin Energy      =      -0.0740228385914376 [Eh]
	 SCS Opposite-Spin Energy  =      -0.9421074925962732 [Eh]
	 SCS Correlation Energy    =      -1.0161303311877108 [Eh]
	 SCS Total Energy          =    -212.2276009310816960 [Eh]
	-----------------------------------------------------------

  Dipole Moment: [D]
     X:     0.6354      Y:     2.3549      Z:     0.3021     Total:     2.4578

*** Psi4 exiting successfully. Buy a developer a beer!
