                               Psi4 1.4a3.dev225

  ==> Input File <==

--------------------------------------------------------------------------
#psi4
#
memory 32 gb

molecule  {
0 1
  N       -1.3248030    -1.1740260    -0.2505360
  C        0.8182300    -0.4554710     0.5470430
  C       -0.5790280    -0.1567500     0.0949017
  C        1.8790820     0.1519800    -0.3759300
  C       -1.0163770     1.2764630     0.0491600
  H        0.9506150    -0.0630590     1.5639460
  H        0.9302930    -1.5419040     0.5914080
  H        2.8813100    -0.1399000    -0.0505570
  H        1.8374890     1.2445300    -0.3804150
  H        1.7406910    -0.2009300    -1.4019490
  H       -0.7901170     1.7727720     0.9986380
  H       -0.4789730     1.8177080    -0.7361320
  H       -2.0886730     1.3644810    -0.1460260
  H       -2.2520240    -0.8395090    -0.5445200
units angstrom
no_reorient  #important for SAPT in psi4, default
symmetry c1  #important for SAPT in psi4, default
}

set PROPERTIES_ORIGIN ["COM"]
properties('MP2/aug-cc-pvtz', properties = ['dipole'])
--------------------------------------------------------------------------

    Molecular point group: c1
  Charge       = 0
  Multiplicity = 1
  Basis Set: AUG-CC-PVTZ
    Blend: AUG-CC-PVTZ
  Basis Set: (AUG-CC-PVTZ AUX)
    Blend: AUG-CC-PVTZ-JKFIT

    Orbital Energies [Eh]
    ---------------------

    Doubly Occupied:

       1A    -15.542096     2A    -11.286759     3A    -11.236688
       4A    -11.227764     5A    -11.223831     6A     -1.196973
       7A     -1.044734     8A     -0.984145     9A     -0.877879
      10A     -0.731838    11A     -0.653489    12A     -0.618288
      13A     -0.604054    14A     -0.583691    15A     -0.555784
      16A     -0.522555    17A     -0.499689    18A     -0.490971
      19A     -0.413606    20A     -0.401940

  @DF-RHF Final Energy:  -211.22557252003750

   => Energetics <=

    Nuclear Repulsion Energy =            176.6129019207341173
    One-Electron Energy =                -634.2834055474224897
    Two-Electron Energy =                 246.4449311066508983
    Total Energy =                       -211.2255725200375025
  Basis Set: (AUG-CC-PVTZ AUX)
    Blend: AUG-CC-PVTZ-RI
    Molecular point group: c1

    Geometry (in Angstrom), charge = 0, multiplicity = 1:

       Center              X                  Y                   Z               Mass
    ------------   -----------------  -----------------  -----------------  -----------------
         N           -1.288552465599    -1.128940224655    -0.252891151705    14.003074004430
         C            0.854480534401    -0.410385224655     0.544687848295    12.000000000000
         C           -0.542777465599    -0.111664224655     0.092546548295    12.000000000000
         C            1.915332534401     0.197065775345    -0.378285151705    12.000000000000
         C           -0.980126465599     1.321548775345     0.046804848295    12.000000000000
         H            0.986865534401    -0.017973224655     1.561590848295     1.007825032230
         H            0.966543534401    -1.496818224655     0.589052848295     1.007825032230
         H            2.917560534401    -0.094814224655    -0.052912151705     1.007825032230
         H            1.873739534401     1.289615775345    -0.382770151705     1.007825032230
         H            1.776941534401    -0.155844224655    -1.404304151705     1.007825032230
         H           -0.753866465599     1.817857775345     0.996282848295     1.007825032230
         H           -0.442722465599     1.862793775345    -0.738487151705     1.007825032230
         H           -2.052422465599     1.409566775345    -0.148381151705     1.007825032230
         H           -2.215773465599    -0.794423224655    -0.546875151705     1.007825032230

  Basis Set: AUG-CC-PVTZ
    Blend: AUG-CC-PVTZ
  Basis Set: (AUG-CC-PVTZ AUX)
    Blend: AUG-CC-PVTZ-JKFIT
	 Reference Energy          =    -211.2255725200375025 [Eh]
	 Singles Energy            =      -0.0000000000000000 [Eh]
	 Same-Spin Energy          =      -0.2209920034495858 [Eh]
	 Opposite-Spin Energy      =      -0.7830695545857446 [Eh]
	 Correlation Energy        =      -1.0040615580353303 [Eh]
	 Total Energy              =    -212.2296340780728201 [Eh]

	 ================> DF-SCS-MP2 Energies <==================
	-----------------------------------------------------------
	 SCS Same-Spin Scale       =       0.3333333333333333 [-]
	 SCS Opposite-Spin Scale   =       1.2000000000000000 [-]
	 SCS Same-Spin Energy      =      -0.0736640011498619 [Eh]
	 SCS Opposite-Spin Energy  =      -0.9396834655028934 [Eh]
	 SCS Correlation Energy    =      -1.0133474666527553 [Eh]
	 SCS Total Energy          =    -212.2389199866902629 [Eh]
	-----------------------------------------------------------

  Dipole Moment: [D]
     X:     0.3810      Y:     2.4285      Z:     0.2476     Total:     2.4707

*** Psi4 exiting successfully. Buy a developer a beer!
