                               Psi4 1.4a3.dev225

  ==> Input File <==

--------------------------------------------------------------------------
#psi4
#
memory 32 gb

molecule  {
0 1
  N       -1.3248030    -1.1740260    -0.2505360
  C        0.8182300    -0.4554710     0.5470430
  C       -0.5619206    -0.1334146     0.1028258
  C        1.8790820     0.1519800    -0.3759300
  C       -1.0163770     1.2764630     0.0491600
  H        0.9506150    -0.0630590     1.5639460
  H        0.9302930    -1.5419040     0.5914080
  H        2.8813100    -0.1399000    -0.0505570
  H        1.8374890     1.2445300    -0.3804150
  H        1.7406910    -0.2009300    -1.4019490
  H       -0.7901170     1.7727720     0.9986380
  H       -0.4789730     1.8177080    -0.7361320
  H       -2.0886730     1.3644810    -0.1460260
  H       -2.2520240    -0.8395090    -0.5445200
units angstrom
no_reorient  #important for SAPT in psi4, default
symmetry c1  #important for SAPT in psi4, default
}

set PROPERTIES_ORIGIN ["COM"]
properties('MP2/aug-cc-pvtz', properties = ['dipole'])
--------------------------------------------------------------------------

    Molecular point group: c1
  Charge       = 0
  Multiplicity = 1
  Basis Set: AUG-CC-PVTZ
    Blend: AUG-CC-PVTZ
  Basis Set: (AUG-CC-PVTZ AUX)
    Blend: AUG-CC-PVTZ-JKFIT

    Orbital Energies [Eh]
    ---------------------

    Doubly Occupied:

       1A    -15.543193     2A    -11.289750     3A    -11.237382
       4A    -11.228624     5A    -11.224630     6A     -1.187550
       7A     -1.045388     8A     -0.987841     9A     -0.880205
      10A     -0.732435    11A     -0.653322    12A     -0.619836
      13A     -0.603752    14A     -0.584193    15A     -0.558482
      16A     -0.522586    17A     -0.499179    18A     -0.492277
      19A     -0.415868    20A     -0.392232

  @DF-RHF Final Energy:  -211.22006623129181

   => Energetics <=

    Nuclear Repulsion Energy =            176.5855892878495581
    One-Electron Energy =                -634.2138615783228488
    Two-Electron Energy =                 246.4082060591815093
    Total Energy =                       -211.2200662312918098
  Basis Set: (AUG-CC-PVTZ AUX)
    Blend: AUG-CC-PVTZ-RI
    Molecular point group: c1

    Geometry (in Angstrom), charge = 0, multiplicity = 1:

       Center              X                  Y                   Z               Mass
    ------------   -----------------  -----------------  -----------------  -----------------
         N           -1.291440867071    -1.132880157299    -0.254229051217    14.003074004430
         C            0.851592132929    -0.414325157299     0.543349948783    12.000000000000
         C           -0.528558467071    -0.092268757299     0.099132748783    12.000000000000
         C            1.912444132929     0.193125842701    -0.379623051217    12.000000000000
         C           -0.983014867071     1.317608842701     0.045466948783    12.000000000000
         H            0.983977132929    -0.021913157299     1.560252948783     1.007825032230
         H            0.963655132929    -1.500758157299     0.587714948783     1.007825032230
         H            2.914672132929    -0.098754157299    -0.054250051217     1.007825032230
         H            1.870851132929     1.285675842701    -0.384108051217     1.007825032230
         H            1.774053132929    -0.159784157299    -1.405642051217     1.007825032230
         H           -0.756754867071     1.813917842701     0.994944948783     1.007825032230
         H           -0.445610867071     1.858853842701    -0.739825051217     1.007825032230
         H           -2.055310867071     1.405626842701    -0.149719051217     1.007825032230
         H           -2.218661867071    -0.798363157299    -0.548213051217     1.007825032230

  Basis Set: AUG-CC-PVTZ
    Blend: AUG-CC-PVTZ
  Basis Set: (AUG-CC-PVTZ AUX)
    Blend: AUG-CC-PVTZ-JKFIT
	 Reference Energy          =    -211.2200662312918098 [Eh]
	 Singles Energy            =      -0.0000000000000000 [Eh]
	 Same-Spin Energy          =      -0.2218029026354126 [Eh]
	 Opposite-Spin Energy      =      -0.7846673391850589 [Eh]
	 Correlation Energy        =      -1.0064702418204716 [Eh]
	 Total Energy              =    -212.2265364731122759 [Eh]

	 ================> DF-SCS-MP2 Energies <==================
	-----------------------------------------------------------
	 SCS Same-Spin Scale       =       0.3333333333333333 [-]
	 SCS Opposite-Spin Scale   =       1.2000000000000000 [-]
	 SCS Same-Spin Energy      =      -0.0739343008784709 [Eh]
	 SCS Opposite-Spin Energy  =      -0.9416008070220707 [Eh]
	 SCS Correlation Energy    =      -1.0155351079005417 [Eh]
	 SCS Total Energy          =    -212.2356013391923568 [Eh]
	-----------------------------------------------------------

  Dipole Moment: [D]
     X:     0.4287      Y:     2.4869      Z:     0.2655     Total:     2.5375

*** Psi4 exiting successfully. Buy a developer a beer!
