                               Psi4 1.4a3.dev225

  ==> Input File <==

--------------------------------------------------------------------------
#psi4
#
memory 32 gb

molecule  {
0 1
  N       -1.3248030    -1.1740260    -0.2505360
  C        0.8182300    -0.4554710     0.5470430
  C       -0.5904330    -0.1723070     0.0896190
  C        1.9137106     0.1718086    -0.4060579
  C       -1.0163770     1.2764630     0.0491600
  H        0.9506150    -0.0630590     1.5639460
  H        0.9302930    -1.5419040     0.5914080
  H        2.8813100    -0.1399000    -0.0505570
  H        1.8374890     1.2445300    -0.3804150
  H        1.7406910    -0.2009300    -1.4019490
  H       -0.7901170     1.7727720     0.9986380
  H       -0.4789730     1.8177080    -0.7361320
  H       -2.0886730     1.3644810    -0.1460260
  H       -2.2520240    -0.8395090    -0.5445200
units angstrom
no_reorient  #important for SAPT in psi4, default
symmetry c1  #important for SAPT in psi4, default
}

set PROPERTIES_ORIGIN ["COM"]
properties('MP2/aug-cc-pvtz', properties = ['dipole'])
--------------------------------------------------------------------------

    Molecular point group: c1
  Charge       = 0
  Multiplicity = 1
  Basis Set: AUG-CC-PVTZ
    Blend: AUG-CC-PVTZ
  Basis Set: (AUG-CC-PVTZ AUX)
    Blend: AUG-CC-PVTZ-JKFIT

    Orbital Energies [Eh]
    ---------------------

    Doubly Occupied:

       1A    -15.540732     2A    -11.284519     3A    -11.236131
       4A    -11.228900     5A    -11.221817     6A     -1.203307
       7A     -1.037446     8A     -0.980615     9A     -0.880591
      10A     -0.730122    11A     -0.652485    12A     -0.617332
      13A     -0.603829    14A     -0.584494    15A     -0.558283
      16A     -0.510384    17A     -0.505508    18A     -0.494814
      19A     -0.411308    20A     -0.406427

  @DF-RHF Final Energy:  -211.22615308255564

   => Energetics <=

    Nuclear Repulsion Energy =            176.0467322816300566
    One-Electron Energy =                -633.1676832973852243
    Two-Electron Energy =                 245.8947979331995271
    Total Energy =                       -211.2261530825556406
  Basis Set: (AUG-CC-PVTZ AUX)
    Blend: AUG-CC-PVTZ-RI
    Molecular point group: c1

    Geometry (in Angstrom), charge = 0, multiplicity = 1:

       Center              X                  Y                   Z               Mass
    ------------   -----------------  -----------------  -----------------  -----------------
         N           -1.292473522009    -1.129661438617    -0.246912450723    14.003074004430
         C            0.850559477991    -0.411106438617     0.550666549277    12.000000000000
         C           -0.558103522009    -0.127942438617     0.093242549277    12.000000000000
         C            1.946040077991     0.216173161383    -0.402434350723    12.000000000000
         C           -0.984047522009     1.320827561383     0.052783549277    12.000000000000
         H            0.982944477991    -0.018694438617     1.567569549277     1.007825032230
         H            0.962622477991    -1.497539438617     0.595031549277     1.007825032230
         H            2.913639477991    -0.095535438617    -0.046933450723     1.007825032230
         H            1.869818477991     1.288894561383    -0.376791450723     1.007825032230
         H            1.773020477991    -0.156565438617    -1.398325450723     1.007825032230
         H           -0.757787522009     1.817136561383     1.002261549277     1.007825032230
         H           -0.446643522009     1.862072561383    -0.732508450723     1.007825032230
         H           -2.056343522009     1.408845561383    -0.142402450723     1.007825032230
         H           -2.219694522009    -0.795144438617    -0.540896450723     1.007825032230

  Basis Set: AUG-CC-PVTZ
    Blend: AUG-CC-PVTZ
  Basis Set: (AUG-CC-PVTZ AUX)
    Blend: AUG-CC-PVTZ-JKFIT
	 Reference Energy          =    -211.2261530825556406 [Eh]
	 Singles Energy            =      -0.0000000000000000 [Eh]
	 Same-Spin Energy          =      -0.2202999411824822 [Eh]
	 Opposite-Spin Energy      =      -0.7819654843371646 [Eh]
	 Correlation Energy        =      -1.0022654255196468 [Eh]
	 Total Energy              =    -212.2284185080752934 [Eh]

	 ================> DF-SCS-MP2 Energies <==================
	-----------------------------------------------------------
	 SCS Same-Spin Scale       =       0.3333333333333333 [-]
	 SCS Opposite-Spin Scale   =       1.2000000000000000 [-]
	 SCS Same-Spin Energy      =      -0.0734333137274941 [Eh]
	 SCS Opposite-Spin Energy  =      -0.9383585812045975 [Eh]
	 SCS Correlation Energy    =      -1.0117918949320914 [Eh]
	 SCS Total Energy          =    -212.2379449774877287 [Eh]
	-----------------------------------------------------------

  Dipole Moment: [D]
     X:     0.3594      Y:     2.3895      Z:     0.2324     Total:     2.4275

*** Psi4 exiting successfully. Buy a developer a beer!
