                               Psi4 1.4a3.dev225

  ==> Input File <==

--------------------------------------------------------------------------
#psi4
#
memory 32 gb

molecule  {
0 1
  N       -1.3248030    -1.1740260    -0.2505360
  C        0.8182300    -0.4554710     0.5470430
  C       -0.7044827    -0.3278768     0.0367920
  C        1.8790820     0.1519800    -0.3759300
  C       -1.0163770     1.2764630     0.0491600
  H        0.9506150    -0.0630590     1.5639460
  H        0.9302930    -1.5419040     0.5914080
  H        2.8813100    -0.1399000    -0.0505570
  H        1.8374890     1.2445300    -0.3804150
  H        1.7406910    -0.2009300    -1.4019490
  H       -0.7901170     1.7727720     0.9986380
  H       -0.4789730     1.8177080    -0.7361320
  H       -2.0886730     1.3644810    -0.1460260
  H       -2.2520240    -0.8395090    -0.5445200
units angstrom
no_reorient  #important for SAPT in psi4, default
symmetry c1  #important for SAPT in psi4, default
}

set PROPERTIES_ORIGIN ["COM"]
properties('MP2/aug-cc-pvtz', properties = ['dipole'])
--------------------------------------------------------------------------

    Molecular point group: c1
  Charge       = 0
  Multiplicity = 1
  Basis Set: AUG-CC-PVTZ
    Blend: AUG-CC-PVTZ
  Basis Set: (AUG-CC-PVTZ AUX)
    Blend: AUG-CC-PVTZ-JKFIT

    Orbital Energies [Eh]
    ---------------------

    Doubly Occupied:

       1A    -15.528048     2A    -11.265442     3A    -11.229806
       4A    -11.220205     5A    -11.217967     6A     -1.302528
       7A     -1.030266     8A     -0.957091     9A     -0.861084
      10A     -0.742100    11A     -0.649937    12A     -0.615279
      13A     -0.604438    14A     -0.579757    15A     -0.539746
      16A     -0.530791    17A     -0.512163    18A     -0.481758
      19A     -0.479359    20A     -0.361609

  @DF-RHF Final Energy:  -211.15805142014020

   => Energetics <=

    Nuclear Repulsion Energy =            177.4376924740728896
    One-Electron Energy =                -635.7727387732596753
    Two-Electron Energy =                 247.1769948790465889
    Total Energy =                       -211.1580514201401968
  Basis Set: (AUG-CC-PVTZ AUX)
    Blend: AUG-CC-PVTZ-RI
    Molecular point group: c1

    Geometry (in Angstrom), charge = 0, multiplicity = 1:

       Center              X                  Y                   Z               Mass
    ------------   -----------------  -----------------  -----------------  -----------------
         N           -1.267370781638    -1.100047295218    -0.243079950527    14.003074004430
         C            0.875662218362    -0.381492295218     0.554499049473    12.000000000000
         C           -0.647050481638    -0.253898095218     0.044248049473    12.000000000000
         C            1.936514218362     0.225958704782    -0.368473950527    12.000000000000
         C           -0.958944781638     1.350441704782     0.056616049473    12.000000000000
         H            1.008047218362     0.010919704782     1.571402049473     1.007825032230
         H            0.987725218362    -1.467925295218     0.598864049473     1.007825032230
         H            2.938742218362    -0.065921295218    -0.043100950527     1.007825032230
         H            1.894921218362     1.318508704782    -0.372958950527     1.007825032230
         H            1.798123218362    -0.126951295218    -1.394492950527     1.007825032230
         H           -0.732684781638     1.846750704782     1.006094049473     1.007825032230
         H           -0.421540781638     1.891686704782    -0.728675950527     1.007825032230
         H           -2.031240781638     1.438459704782    -0.138569950527     1.007825032230
         H           -2.194591781638    -0.765530295218    -0.537063950527     1.007825032230

  Basis Set: AUG-CC-PVTZ
    Blend: AUG-CC-PVTZ
  Basis Set: (AUG-CC-PVTZ AUX)
    Blend: AUG-CC-PVTZ-JKFIT
	 Reference Energy          =    -211.1580514201401968 [Eh]
	 Singles Energy            =      -0.0000000000000000 [Eh]
	 Same-Spin Energy          =      -0.2182203784650289 [Eh]
	 Opposite-Spin Energy      =      -0.7759893651668893 [Eh]
	 Correlation Energy        =      -0.9942097436319182 [Eh]
	 Total Energy              =    -212.1522611637721241 [Eh]

	 ================> DF-SCS-MP2 Energies <==================
	-----------------------------------------------------------
	 SCS Same-Spin Scale       =       0.3333333333333333 [-]
	 SCS Opposite-Spin Scale   =       1.2000000000000000 [-]
	 SCS Same-Spin Energy      =      -0.0727401261550096 [Eh]
	 SCS Opposite-Spin Energy  =      -0.9311872382002672 [Eh]
	 SCS Correlation Energy    =      -1.0039273643552769 [Eh]
	 SCS Total Energy          =    -212.1619787844954601 [Eh]
	-----------------------------------------------------------

  Dipole Moment: [D]
     X:    -0.1315      Y:     1.7655      Z:     0.0455     Total:     1.7709

*** Psi4 exiting successfully. Buy a developer a beer!
