                               Psi4 1.4a2.dev612

  ==> Input File <==

--------------------------------------------------------------------------
#psi4
#
memory 32 gb

molecule  {
-1 1
  O        2.6974490    -0.8132830     0.2843680
  O        1.8995890     1.2895000    -0.0586210
  C       -2.1006760    -0.3536310    -0.4965290
  C       -3.0416170     0.2044990     0.5763330
  C       -0.7068700     0.1810590    -0.3555460
  C        0.3799918    -0.5482889    -0.0569267
  C        1.7796780     0.0321620     0.0520040
  H       -2.0809940    -1.4488000    -0.4417420
  H       -2.4997730    -0.0929160    -1.4864860
  H       -2.6911530    -0.0723110     1.5749530
  H       -3.0846210     1.2967820     0.5254720
  H       -4.0585250    -0.1801320     0.4514200
  H       -0.5779450     1.2609590    -0.4430690
  H        0.3072680    -1.6376370    -0.0077220
units angstrom
no_reorient  #important for SAPT in psi4, default
symmetry c1  #important for SAPT in psi4, default
}

set PROPERTIES_ORIGIN ["COM"]
properties('MP2/aug-cc-pvtz', properties = ['dipole'])
--------------------------------------------------------------------------

    Molecular point group: c1
  Charge       = -1
  Multiplicity = 1
  Basis Set: AUG-CC-PVTZ
    Blend: AUG-CC-PVTZ
  Basis Set: (AUG-CC-PVTZ AUX)
    Blend: AUG-CC-PVTZ-JKFIT

    Orbital Energies [Eh]
    ---------------------

    Doubly Occupied:

       1A    -20.295347     2A    -20.291667     3A    -11.142088
       4A    -11.115750     5A    -11.114062     6A    -11.085755
       7A    -11.070220     8A     -1.161787     9A     -1.061027
      10A     -0.954290    11A     -0.862060    12A     -0.743833
      13A     -0.632888    14A     -0.548881    15A     -0.494223
      16A     -0.485664    17A     -0.445683    18A     -0.419560
      19A     -0.408863    20A     -0.382946    21A     -0.375727
      22A     -0.357956    23A     -0.348665    24A     -0.211152
      25A     -0.209005    26A     -0.204581    27A     -0.191189

  @DF-RHF Final Energy:  -343.28498619173200

   => Energetics <=

    Nuclear Repulsion Energy =            270.8620419009398006
    One-Electron Energy =               -1015.0643242818080125
    Two-Electron Energy =                 400.9172961891361524
    Total Energy =                       -343.2849861917320027
  Basis Set: (AUG-CC-PVTZ AUX)
    Blend: AUG-CC-PVTZ-RI
    Molecular point group: c1

    Geometry (in Angstrom), charge = -1, multiplicity = 1:

       Center              X                  Y                   Z               Mass
    ------------   -----------------  -----------------  -----------------  -----------------
         O            2.551508162751    -0.822629869038     0.280157715534    15.994914619570
         O            1.753648162751     1.280153130962    -0.062831284466    15.994914619570
         C           -2.246616837249    -0.362977869038    -0.500739284466    12.000000000000
         C           -3.187557837249     0.195152130962     0.572122715534    12.000000000000
         C           -0.852810837249     0.171712130962    -0.359756284466    12.000000000000
         C            0.234050962751    -0.557635769038    -0.061136984466    12.000000000000
         C            1.633737162751     0.022815130962     0.047793715534    12.000000000000
         H           -2.226934837249    -1.458146869038    -0.445952284466     1.007825032230
         H           -2.645713837249    -0.102262869038    -1.490696284466     1.007825032230
         H           -2.837093837249    -0.081657869038     1.570742715534     1.007825032230
         H           -3.230561837249     1.287435130962     0.521261715534     1.007825032230
         H           -4.204465837249    -0.189478869038     0.447209715534     1.007825032230
         H           -0.723885837249     1.251612130962    -0.447279284466     1.007825032230
         H            0.161327162751    -1.646983869038    -0.011932284466     1.007825032230

  Basis Set: AUG-CC-PVTZ
    Blend: AUG-CC-PVTZ
  Basis Set: (AUG-CC-PVTZ AUX)
    Blend: AUG-CC-PVTZ-JKFIT
	 Reference Energy          =    -343.2849861917320027 [Eh]
	 Singles Energy            =      -0.0000000000000000 [Eh]
	 Same-Spin Energy          =      -0.3482044445326062 [Eh]
	 Opposite-Spin Energy      =      -1.1056815852414719 [Eh]
	 Correlation Energy        =      -1.4538860297740781 [Eh]
	 Total Energy              =    -344.7388722215060852 [Eh]

	 ================> DF-SCS-MP2 Energies <==================
	-----------------------------------------------------------
	 SCS Same-Spin Scale       =       0.3333333333333333 [-]
	 SCS Opposite-Spin Scale   =       1.2000000000000000 [-]
	 SCS Same-Spin Energy      =      -0.1160681481775354 [Eh]
	 SCS Opposite-Spin Energy  =      -1.3268179022897661 [Eh]
	 SCS Correlation Energy    =      -1.4428860504673016 [Eh]
	 SCS Total Energy          =    -344.7278722421992825 [Eh]
	-----------------------------------------------------------

  Dipole Moment: [D]
     X:    -9.5115      Y:    -1.1485      Z:    -0.5774     Total:     9.5980

*** Psi4 exiting successfully. Buy a developer a beer!
