                               Psi4 1.4a2.dev612

  ==> Input File <==

--------------------------------------------------------------------------
#psi4
#
memory 32 gb

molecule  {
-1 1
  O        2.6974490    -0.8132830     0.2843680
  O        1.8995890     1.2895000    -0.0586210
  C       -2.1006760    -0.3536310    -0.4965290
  C       -3.0416170     0.2044990     0.5763330
  C       -0.7068700     0.1810590    -0.3555460
  C        0.3567891    -0.5330486     0.0904821
  C        1.7796780     0.0321620     0.0520040
  H       -2.0809940    -1.4488000    -0.4417420
  H       -2.4997730    -0.0929160    -1.4864860
  H       -2.6911530    -0.0723110     1.5749530
  H       -3.0846210     1.2967820     0.5254720
  H       -4.0585250    -0.1801320     0.4514200
  H       -0.5779450     1.2609590    -0.4430690
  H        0.3072680    -1.6376370    -0.0077220
units angstrom
no_reorient  #important for SAPT in psi4, default
symmetry c1  #important for SAPT in psi4, default
}

set PROPERTIES_ORIGIN ["COM"]
properties('MP2/aug-cc-pvtz', properties = ['dipole'])
--------------------------------------------------------------------------

    Molecular point group: c1
  Charge       = -1
  Multiplicity = 1
  Basis Set: AUG-CC-PVTZ
    Blend: AUG-CC-PVTZ
  Basis Set: (AUG-CC-PVTZ AUX)
    Blend: AUG-CC-PVTZ-JKFIT

    Orbital Energies [Eh]
    ---------------------

    Doubly Occupied:

       1A    -20.295259     2A    -20.291783     3A    -11.143283
       4A    -11.116334     5A    -11.114969     6A    -11.090923
       7A    -11.073013     8A     -1.161383     9A     -1.060878
      10A     -0.954624    11A     -0.859422    12A     -0.743708
      13A     -0.631224    14A     -0.546207    15A     -0.493028
      16A     -0.482690    17A     -0.444350    18A     -0.419531
      19A     -0.408578    20A     -0.382683    21A     -0.375097
      22A     -0.358142    23A     -0.346099    24A     -0.210048
      25A     -0.208601    26A     -0.202853    27A     -0.191094

  @DF-RHF Final Energy:  -343.27434907236034

   => Energetics <=

    Nuclear Repulsion Energy =            270.5695103610411820
    One-Electron Energy =               -1014.4761110769775314
    Two-Electron Energy =                 400.6322516435759553
    Total Energy =                       -343.2743490723603372
  Basis Set: (AUG-CC-PVTZ AUX)
    Blend: AUG-CC-PVTZ-RI
    Molecular point group: c1

    Geometry (in Angstrom), charge = -1, multiplicity = 1:

       Center              X                  Y                   Z               Mass
    ------------   -----------------  -----------------  -----------------  -----------------
         O            2.554319344657    -0.824476346198     0.262298028885    15.994914619570
         O            1.756459344657     1.278306653802    -0.080690971115    15.994914619570
         C           -2.243805655343    -0.364824346198    -0.518598971115    12.000000000000
         C           -3.184746655343     0.193305653802     0.554263028885    12.000000000000
         C           -0.849999655343     0.169865653802    -0.377615971115    12.000000000000
         C            0.213659444657    -0.544241946198     0.068412128885    12.000000000000
         C            1.636548344657     0.020968653802     0.029934028885    12.000000000000
         H           -2.224123655343    -1.459993346198    -0.463811971115     1.007825032230
         H           -2.642902655343    -0.104109346198    -1.508555971115     1.007825032230
         H           -2.834282655343    -0.083504346198     1.552883028885     1.007825032230
         H           -3.227750655343     1.285588653802     0.503402028885     1.007825032230
         H           -4.201654655343    -0.191325346198     0.429350028885     1.007825032230
         H           -0.721074655343     1.249765653802    -0.465138971115     1.007825032230
         H            0.164138344657    -1.648830346198    -0.029791971115     1.007825032230

  Basis Set: AUG-CC-PVTZ
    Blend: AUG-CC-PVTZ
  Basis Set: (AUG-CC-PVTZ AUX)
    Blend: AUG-CC-PVTZ-JKFIT
	 Reference Energy          =    -343.2743490723603372 [Eh]
	 Singles Energy            =      -0.0000000000000000 [Eh]
	 Same-Spin Energy          =      -0.3489178389295904 [Eh]
	 Opposite-Spin Energy      =      -1.1073439770179108 [Eh]
	 Correlation Energy        =      -1.4562618159475011 [Eh]
	 Total Energy              =    -344.7306108883078650 [Eh]

	 ================> DF-SCS-MP2 Energies <==================
	-----------------------------------------------------------
	 SCS Same-Spin Scale       =       0.3333333333333333 [-]
	 SCS Opposite-Spin Scale   =       1.2000000000000000 [-]
	 SCS Same-Spin Energy      =      -0.1163059463098635 [Eh]
	 SCS Opposite-Spin Energy  =      -1.3288127724214929 [Eh]
	 SCS Correlation Energy    =      -1.4451187187313563 [Eh]
	 SCS Total Energy          =    -344.7194677910916880 [Eh]
	-----------------------------------------------------------

  Dipole Moment: [D]
     X:    -9.5230      Y:    -1.0887      Z:    -0.5840     Total:     9.6028

*** Psi4 exiting successfully. Buy a developer a beer!
