                               Psi4 1.4a2.dev612

  ==> Input File <==

--------------------------------------------------------------------------
#psi4
#
memory 32 gb

molecule  {
-1 1
  O        2.6974490    -0.8132830     0.2843680
  O        1.8995890     1.2895000    -0.0586210
  C       -2.1006760    -0.3536310    -0.4965290
  C       -3.0416170     0.2044990     0.5763330
  C       -0.7068700     0.1810590    -0.3555460
  C        0.3645233    -0.5381287     0.0413458
  C        1.7796780     0.0321620     0.0520040
  H       -2.0809940    -1.4488000    -0.4417420
  H       -2.4997730    -0.0929160    -1.4864860
  H       -2.6911530    -0.0723110     1.5749530
  H       -3.0846210     1.2967820     0.5254720
  H       -4.0585250    -0.1801320     0.4514200
  H       -0.5779450     1.2609590    -0.4430690
  H        0.3072680    -1.6376370    -0.0077220
units angstrom
no_reorient  #important for SAPT in psi4, default
symmetry c1  #important for SAPT in psi4, default
}

set PROPERTIES_ORIGIN ["COM"]
properties('MP2/aug-cc-pvtz', properties = ['dipole'])
--------------------------------------------------------------------------

    Molecular point group: c1
  Charge       = -1
  Multiplicity = 1
  Basis Set: AUG-CC-PVTZ
    Blend: AUG-CC-PVTZ
  Basis Set: (AUG-CC-PVTZ AUX)
    Blend: AUG-CC-PVTZ-JKFIT

    Orbital Energies [Eh]
    ---------------------

    Doubly Occupied:

       1A    -20.295290     2A    -20.291719     3A    -11.142726
       4A    -11.116031     5A    -11.114549     6A    -11.088538
       7A    -11.071735     8A     -1.161563     9A     -1.060940
      10A     -0.954477    11A     -0.860592    12A     -0.743789
      13A     -0.631992    14A     -0.547458    15A     -0.493430
      16A     -0.483931    17A     -0.444878    18A     -0.419711
      19A     -0.408743    20A     -0.382782    21A     -0.375333
      22A     -0.358066    23A     -0.347306    24A     -0.210479
      25A     -0.208845    26A     -0.203676    27A     -0.191131

  @DF-RHF Final Energy:  -343.27931711161057

   => Energetics <=

    Nuclear Repulsion Energy =            270.7192829947052815
    One-Electron Energy =               -1014.7777785384364506
    Two-Electron Energy =                 400.7791784321206023
    Total Energy =                       -343.2793171116105668
  Basis Set: (AUG-CC-PVTZ AUX)
    Blend: AUG-CC-PVTZ-RI
    Molecular point group: c1

    Geometry (in Angstrom), charge = -1, multiplicity = 1:

       Center              X                  Y                   Z               Mass
    ------------   -----------------  -----------------  -----------------  -----------------
         O            2.553382288060    -0.823860853811     0.268251261806    15.994914619570
         O            1.755522288060     1.278922146189    -0.074737738194    15.994914619570
         C           -2.244742711940    -0.364208853811    -0.512645738194    12.000000000000
         C           -3.185683711940     0.193921146189     0.560216261806    12.000000000000
         C           -0.850936711940     0.170481146189    -0.371662738194    12.000000000000
         C            0.220456588060    -0.548706553811     0.025229061806    12.000000000000
         C            1.635611288060     0.021584146189     0.035887261806    12.000000000000
         H           -2.225060711940    -1.459377853811    -0.457858738194     1.007825032230
         H           -2.643839711940    -0.103493853811    -1.502602738194     1.007825032230
         H           -2.835219711940    -0.082888853811     1.558836261806     1.007825032230
         H           -3.228687711940     1.286204146189     0.509355261806     1.007825032230
         H           -4.202591711940    -0.190709853811     0.435303261806     1.007825032230
         H           -0.722011711940     1.250381146189    -0.459185738194     1.007825032230
         H            0.163201288060    -1.648214853811    -0.023838738194     1.007825032230

  Basis Set: AUG-CC-PVTZ
    Blend: AUG-CC-PVTZ
  Basis Set: (AUG-CC-PVTZ AUX)
    Blend: AUG-CC-PVTZ-JKFIT
	 Reference Energy          =    -343.2793171116105668 [Eh]
	 Singles Energy            =      -0.0000000000000000 [Eh]
	 Same-Spin Energy          =      -0.3485925316506456 [Eh]
	 Opposite-Spin Energy      =      -1.1065550621280251 [Eh]
	 Correlation Energy        =      -1.4551475937786709 [Eh]
	 Total Energy              =    -344.7344647053892572 [Eh]

	 ================> DF-SCS-MP2 Energies <==================
	-----------------------------------------------------------
	 SCS Same-Spin Scale       =       0.3333333333333333 [-]
	 SCS Opposite-Spin Scale   =       1.2000000000000000 [-]
	 SCS Same-Spin Energy      =      -0.1161975105502152 [Eh]
	 SCS Opposite-Spin Energy  =      -1.3278660745536301 [Eh]
	 SCS Correlation Energy    =      -1.4440635851038452 [Eh]
	 SCS Total Energy          =    -344.7233806967144005 [Eh]
	-----------------------------------------------------------

  Dipole Moment: [D]
     X:    -9.5186      Y:    -1.1160      Z:    -0.5796     Total:     9.6013

*** Psi4 exiting successfully. Buy a developer a beer!
