                               Psi4 1.4a2.dev612

  ==> Input File <==

--------------------------------------------------------------------------
#psi4
#
memory 32 gb

molecule  {
-1 1
  O        2.6974490    -0.8132830     0.2843680
  O        1.8995890     1.2895000    -0.0586210
  C       -2.1006760    -0.3536310    -0.4965290
  C       -3.0416170     0.2044990     0.5763330
  C       -0.7068700     0.1810590    -0.3555460
  C        0.3413206    -0.5228883     0.1887547
  C        1.7796780     0.0321620     0.0520040
  H       -2.0809940    -1.4488000    -0.4417420
  H       -2.4997730    -0.0929160    -1.4864860
  H       -2.6911530    -0.0723110     1.5749530
  H       -3.0846210     1.2967820     0.5254720
  H       -4.0585250    -0.1801320     0.4514200
  H       -0.5779450     1.2609590    -0.4430690
  H        0.3072680    -1.6376370    -0.0077220
units angstrom
no_reorient  #important for SAPT in psi4, default
symmetry c1  #important for SAPT in psi4, default
}

set PROPERTIES_ORIGIN ["COM"]
properties('MP2/aug-cc-pvtz', properties = ['dipole'])
--------------------------------------------------------------------------

    Molecular point group: c1
  Charge       = -1
  Multiplicity = 1
  Basis Set: AUG-CC-PVTZ
    Blend: AUG-CC-PVTZ
  Basis Set: (AUG-CC-PVTZ AUX)
    Blend: AUG-CC-PVTZ-JKFIT

    Orbital Energies [Eh]
    ---------------------

    Doubly Occupied:

       1A    -20.295273     2A    -20.292060     3A    -11.144862
       4A    -11.117251     5A    -11.116135     6A    -11.097529
       7A    -11.076476     8A     -1.160961     9A     -1.060784
      10A     -0.955046    11A     -0.856213    12A     -0.743380
      13A     -0.629256    14A     -0.542942    15A     -0.492156
      16A     -0.479894    17A     -0.443120    18A     -0.418804
      19A     -0.407833    20A     -0.382492    21A     -0.374630
      22A     -0.358133    23A     -0.342487    24A     -0.209540
      25A     -0.207529    26A     -0.200373    27A     -0.191060

  @DF-RHF Final Energy:  -343.26001798702970

   => Energetics <=

    Nuclear Repulsion Energy =            270.1218726486603146
    One-Electron Energy =               -1013.5713405567281598
    Two-Electron Energy =                 400.1894499210381468
    Total Energy =                       -343.2600179870296984
  Basis Set: (AUG-CC-PVTZ AUX)
    Blend: AUG-CC-PVTZ-RI
    Molecular point group: c1

    Geometry (in Angstrom), charge = -1, multiplicity = 1:

       Center              X                  Y                   Z               Mass
    ------------   -----------------  -----------------  -----------------  -----------------
         O            2.556193469967    -0.825707343088     0.250391563042    15.994914619570
         O            1.758333469967     1.277075656912    -0.092597436958    15.994914619570
         C           -2.241931530033    -0.366055343088    -0.530505436958    12.000000000000
         C           -3.182872530033     0.192074656912     0.542356563042    12.000000000000
         C           -0.848125530033     0.168634656912    -0.389522436958    12.000000000000
         C            0.200065069967    -0.535312643088     0.154778263042    12.000000000000
         C            1.638422469967     0.019737656912     0.018027563042    12.000000000000
         H           -2.222249530033    -1.461224343088    -0.475718436958     1.007825032230
         H           -2.641028530033    -0.105340343088    -1.520462436958     1.007825032230
         H           -2.832408530033    -0.084735343088     1.540976563042     1.007825032230
         H           -3.225876530033     1.284357656912     0.491495563042     1.007825032230
         H           -4.199780530033    -0.192556343088     0.417443563042     1.007825032230
         H           -0.719200530033     1.248534656912    -0.477045436958     1.007825032230
         H            0.166012469967    -1.650061343088    -0.041698436958     1.007825032230

  Basis Set: AUG-CC-PVTZ
    Blend: AUG-CC-PVTZ
  Basis Set: (AUG-CC-PVTZ AUX)
    Blend: AUG-CC-PVTZ-JKFIT
	 Reference Energy          =    -343.2600179870296984 [Eh]
	 Singles Energy            =      -0.0000000000000000 [Eh]
	 Same-Spin Energy          =      -0.3498287603268816 [Eh]
	 Opposite-Spin Energy      =      -1.1096195203285477 [Eh]
	 Correlation Energy        =      -1.4594482806554294 [Eh]
	 Total Energy              =    -344.7194662676851067 [Eh]

	 ================> DF-SCS-MP2 Energies <==================
	-----------------------------------------------------------
	 SCS Same-Spin Scale       =       0.3333333333333333 [-]
	 SCS Opposite-Spin Scale   =       1.2000000000000000 [-]
	 SCS Same-Spin Energy      =      -0.1166095867756272 [Eh]
	 SCS Opposite-Spin Energy  =      -1.3315434243942572 [Eh]
	 SCS Correlation Energy    =      -1.4481530111698844 [Eh]
	 SCS Total Energy          =    -344.7081709981995914 [Eh]
	-----------------------------------------------------------

  Dipole Moment: [D]
     X:    -9.5248      Y:    -1.0136      Z:    -0.6001     Total:     9.5974

*** Psi4 exiting successfully. Buy a developer a beer!
