                               Psi4 1.4a2.dev612

  ==> Input File <==

--------------------------------------------------------------------------
#psi4
#
memory 32 gb

molecule  {
-1 1
  O        2.6974490    -0.8132830     0.2843680
  O        1.8995890     1.2895000    -0.0586210
  C       -2.1006760    -0.3536310    -0.4965290
  C       -3.0416170     0.2044990     0.5763330
  C       -0.7068700     0.1810590    -0.3555460
  C        0.3490548    -0.5279685     0.1396184
  C        1.7796780     0.0321620     0.0520040
  H       -2.0809940    -1.4488000    -0.4417420
  H       -2.4997730    -0.0929160    -1.4864860
  H       -2.6911530    -0.0723110     1.5749530
  H       -3.0846210     1.2967820     0.5254720
  H       -4.0585250    -0.1801320     0.4514200
  H       -0.5779450     1.2609590    -0.4430690
  H        0.3072680    -1.6376370    -0.0077220
units angstrom
no_reorient  #important for SAPT in psi4, default
symmetry c1  #important for SAPT in psi4, default
}

set PROPERTIES_ORIGIN ["COM"]
properties('MP2/aug-cc-pvtz', properties = ['dipole'])
--------------------------------------------------------------------------

    Molecular point group: c1
  Charge       = -1
  Multiplicity = 1
  Basis Set: AUG-CC-PVTZ
    Blend: AUG-CC-PVTZ
  Basis Set: (AUG-CC-PVTZ AUX)
    Blend: AUG-CC-PVTZ-JKFIT

    Orbital Energies [Eh]
    ---------------------

    Doubly Occupied:

       1A    -20.295247     2A    -20.291891     3A    -11.143995
       4A    -11.116742     5A    -11.115500     6A    -11.093933
       7A    -11.074604     8A     -1.161177     9A     -1.060821
      10A     -0.954812    11A     -0.857962    12A     -0.743576
      13A     -0.630296    14A     -0.544677    15A     -0.492606
      16A     -0.481312    17A     -0.443757    18A     -0.419214
      19A     -0.408289    20A     -0.382583    21A     -0.374855
      22A     -0.358177    23A     -0.344510    24A     -0.209723
      25A     -0.208151    26A     -0.201760    27A     -0.191066

  @DF-RHF Final Energy:  -343.26792382860049

   => Energetics <=

    Nuclear Repulsion Energy =            270.3696532651906068
    One-Electron Energy =               -1014.0726874733884415
    Two-Electron Energy =                 400.4351103795972904
    Total Energy =                       -343.2679238286004875
  Basis Set: (AUG-CC-PVTZ AUX)
    Blend: AUG-CC-PVTZ-RI
    Molecular point group: c1

    Geometry (in Angstrom), charge = -1, multiplicity = 1:

       Center              X                  Y                   Z               Mass
    ------------   -----------------  -----------------  -----------------  -----------------
         O            2.555256413370    -0.825091838585     0.256344795963    15.994914619570
         O            1.757396413370     1.277691161415    -0.086644204037    15.994914619570
         C           -2.242868586630    -0.365439838585    -0.524552204037    12.000000000000
         C           -3.183809586630     0.192690161415     0.548309795963    12.000000000000
         C           -0.849062586630     0.169250161415    -0.383569204037    12.000000000000
         C            0.206862213370    -0.539777338585     0.111595195963    12.000000000000
         C            1.637485413370     0.020353161415     0.023980795963    12.000000000000
         H           -2.223186586630    -1.460608838585    -0.469765204037     1.007825032230
         H           -2.641965586630    -0.104724838585    -1.514509204037     1.007825032230
         H           -2.833345586630    -0.084119838585     1.546929795963     1.007825032230
         H           -3.226813586630     1.284973161415     0.497448795963     1.007825032230
         H           -4.200717586630    -0.191940838585     0.423396795963     1.007825032230
         H           -0.720137586630     1.249150161415    -0.471092204037     1.007825032230
         H            0.165075413370    -1.649445838585    -0.035745204037     1.007825032230

  Basis Set: AUG-CC-PVTZ
    Blend: AUG-CC-PVTZ
  Basis Set: (AUG-CC-PVTZ AUX)
    Blend: AUG-CC-PVTZ-JKFIT
	 Reference Energy          =    -343.2679238286004875 [Eh]
	 Singles Energy            =      -0.0000000000000000 [Eh]
	 Same-Spin Energy          =      -0.3493301805362615 [Eh]
	 Opposite-Spin Energy      =      -1.1083689954398412 [Eh]
	 Correlation Energy        =      -1.4576991759761029 [Eh]
	 Total Energy              =    -344.7256230045766188 [Eh]

	 ================> DF-SCS-MP2 Energies <==================
	-----------------------------------------------------------
	 SCS Same-Spin Scale       =       0.3333333333333333 [-]
	 SCS Opposite-Spin Scale   =       1.2000000000000000 [-]
	 SCS Same-Spin Energy      =      -0.1164433935120872 [Eh]
	 SCS Opposite-Spin Energy  =      -1.3300427945278095 [Eh]
	 SCS Correlation Energy    =      -1.4464861880398967 [Eh]
	 SCS Total Energy          =    -344.7144100166403859 [Eh]
	-----------------------------------------------------------

  Dipole Moment: [D]
     X:    -9.5258      Y:    -1.0544      Z:    -0.5909     Total:     9.6022

*** Psi4 exiting successfully. Buy a developer a beer!
