                               Psi4 1.4a2.dev612

  ==> Input File <==

--------------------------------------------------------------------------
#psi4
#
memory 32 gb

molecule  {
-1 1
  O        2.6974490    -0.8132830     0.2843680
  O        1.8995890     1.2895000    -0.0586210
  C       -2.1006760    -0.3536310    -0.4965290
  C       -3.0416170     0.2044990     0.5763330
  C       -0.7068700     0.1810590    -0.3555460
  C        0.3722575    -0.5432088    -0.0077904
  C        1.7796780     0.0321620     0.0520040
  H       -2.0809940    -1.4488000    -0.4417420
  H       -2.4997730    -0.0929160    -1.4864860
  H       -2.6911530    -0.0723110     1.5749530
  H       -3.0846210     1.2967820     0.5254720
  H       -4.0585250    -0.1801320     0.4514200
  H       -0.5779450     1.2609590    -0.4430690
  H        0.3072680    -1.6376370    -0.0077220
units angstrom
no_reorient  #important for SAPT in psi4, default
symmetry c1  #important for SAPT in psi4, default
}

set PROPERTIES_ORIGIN ["COM"]
properties('MP2/aug-cc-pvtz', properties = ['dipole'])
--------------------------------------------------------------------------

    Molecular point group: c1
  Charge       = -1
  Multiplicity = 1
  Basis Set: AUG-CC-PVTZ
    Blend: AUG-CC-PVTZ
  Basis Set: (AUG-CC-PVTZ AUX)
    Blend: AUG-CC-PVTZ-JKFIT

    Orbital Energies [Eh]
    ---------------------

    Doubly Occupied:

       1A    -20.295323     2A    -20.291684     3A    -11.142328
       4A    -11.115835     5A    -11.114245     6A    -11.086808
       7A    -11.070797     8A     -1.161700     9A     -1.060992
      10A     -0.954366    11A     -0.861470    12A     -0.743829
      13A     -0.632557    14A     -0.548367    15A     -0.493823
      16A     -0.484947    17A     -0.445325    18A     -0.419726
      19A     -0.408828    20A     -0.382871    21A     -0.375548
      22A     -0.357992    23A     -0.348158    24A     -0.210880
      25A     -0.208959    26A     -0.204249    27A     -0.191165

  @DF-RHF Final Energy:  -343.28285479224320

   => Energetics <=

    Nuclear Repulsion Energy =            270.8172212479041150
    One-Electron Energy =               -1014.9746032872133128
    Two-Electron Energy =                 400.8745272470659415
    Total Energy =                       -343.2828547922431994
  Basis Set: (AUG-CC-PVTZ AUX)
    Blend: AUG-CC-PVTZ-RI
    Molecular point group: c1

    Geometry (in Angstrom), charge = -1, multiplicity = 1:

       Center              X                  Y                   Z               Mass
    ------------   -----------------  -----------------  -----------------  -----------------
         O            2.552445231463    -0.823245361425     0.274204482612    15.994914619570
         O            1.754585231463     1.279537638575    -0.068784517388    15.994914619570
         C           -2.245679768537    -0.363593361425    -0.506692517388    12.000000000000
         C           -3.186620768537     0.194536638575     0.566169482612    12.000000000000
         C           -0.851873768537     0.171096638575    -0.365709517388    12.000000000000
         C            0.227253731463    -0.553171161425    -0.017953917388    12.000000000000
         C            1.634674231463     0.022199638575     0.041840482612    12.000000000000
         H           -2.225997768537    -1.458762361425    -0.451905517388     1.007825032230
         H           -2.644776768537    -0.102878361425    -1.496649517388     1.007825032230
         H           -2.836156768537    -0.082273361425     1.564789482612     1.007825032230
         H           -3.229624768537     1.286819638575     0.515308482612     1.007825032230
         H           -4.203528768537    -0.190094361425     0.441256482612     1.007825032230
         H           -0.722948768537     1.250996638575    -0.453232517388     1.007825032230
         H            0.162264231463    -1.647599361425    -0.017885517388     1.007825032230

  Basis Set: AUG-CC-PVTZ
    Blend: AUG-CC-PVTZ
  Basis Set: (AUG-CC-PVTZ AUX)
    Blend: AUG-CC-PVTZ-JKFIT
	 Reference Energy          =    -343.2828547922431994 [Eh]
	 Singles Energy            =      -0.0000000000000000 [Eh]
	 Same-Spin Energy          =      -0.3483546446932795 [Eh]
	 Opposite-Spin Energy      =      -1.1060046176054363 [Eh]
	 Correlation Energy        =      -1.4543592622987158 [Eh]
	 Total Energy              =    -344.7372140545419370 [Eh]

	 ================> DF-SCS-MP2 Energies <==================
	-----------------------------------------------------------
	 SCS Same-Spin Scale       =       0.3333333333333333 [-]
	 SCS Opposite-Spin Scale   =       1.2000000000000000 [-]
	 SCS Same-Spin Energy      =      -0.1161182148977598 [Eh]
	 SCS Opposite-Spin Energy  =      -1.3272055411265236 [Eh]
	 SCS Correlation Energy    =      -1.4433237560242833 [Eh]
	 SCS Total Energy          =    -344.7261785482674554 [Eh]
	-----------------------------------------------------------

  Dipole Moment: [D]
     X:    -9.5143      Y:    -1.1361      Z:    -0.5775     Total:     9.5993

*** Psi4 exiting successfully. Buy a developer a beer!
