                               Psi4 1.3.2 release

  ==> Input File <==

--------------------------------------------------------------------------
#psi4
#
memory 32 gb

molecule  {
-1 1
  O        1.1351350    -0.6918790     0.0330860
  O        0.1531200     1.3913640    -0.1728610
  O        2.4463690    -0.1041220     0.2385550
  C       -1.1933228    -0.6206491    -0.1562926
  C       -2.2980290    -0.0223870     0.3984860
  C        0.1501230     0.1562480    -0.1588130
  H       -1.3784130    -0.5614030    -1.4734780
  H       -0.9935530    -1.6784970    -0.1594820
  H       -3.2561770    -0.4998690     0.1615910
  H       -2.3644390     1.0456200     0.1820980
  H       -2.1175180    -0.1345730     1.4722280
units angstrom
no_reorient  #important for SAPT in psi4, default
symmetry c1  #important for SAPT in psi4, default
}

set PROPERTIES_ORIGIN ["COM"]
properties('MP2/aug-cc-pvtz', properties = ['dipole'])
--------------------------------------------------------------------------

    Molecular point group: c1
  Charge       = -1
  Multiplicity = 1
  Basis Set: AUG-CC-PVTZ
    Blend: AUG-CC-PVTZ
  Basis Set: (AUG-CC-PVTZ AUX)
    Blend: AUG-CC-PVTZ-JKFIT

    Orbital Energies [Eh]
    ---------------------

    Doubly Occupied:

       1A    -20.413317     2A    -20.348762     3A    -20.302667
       4A    -11.193112     5A    -11.108169     6A    -11.091992
       7A     -1.258368     8A     -1.161131     9A     -0.954024
      10A     -0.916264    11A     -0.722300    12A     -0.569411
      13A     -0.517263    14A     -0.489267    15A     -0.472715
      16A     -0.447425    17A     -0.426681    18A     -0.391242
      19A     -0.326199    20A     -0.304958    21A     -0.275517
      22A     -0.248154    23A     -0.192296    24A     -0.167147

  @DF-RHF Final Energy:  -341.08620820351348

   => Energetics <=

    Nuclear Repulsion Energy =            232.4083184332867233
    One-Electron Energy =                -938.3922912926751678
    Two-Electron Energy =                 364.8977646558749939
    Total Energy =                       -341.0862082035134790
  Basis Set: (AUG-CC-PVTZ AUX)
    Blend: AUG-CC-PVTZ-RI
    Molecular point group: c1

    Geometry (in Angstrom), charge = -1, multiplicity = 1:

       Center              X                  Y                   Z               Mass
    ------------   -----------------  -----------------  -----------------  -----------------
         O            1.028972072440    -0.712528420928     0.002027687876    15.994914619570
         O            0.046957072440     1.370714579072    -0.203919312124    15.994914619570
         O            2.340206072440    -0.124771420928     0.207496687876    15.994914619570
         C           -1.299485727560    -0.641298520928    -0.187350912124    12.000000000000
         C           -2.404191927560    -0.043036420928     0.367427687876    12.000000000000
         C            0.043960072440     0.135598579072    -0.189871312124    12.000000000000
         H           -1.484575927560    -0.582052420928    -1.504536312124     1.007825032230
         H           -1.099715927560    -1.699146420928    -0.190540312124     1.007825032230
         H           -3.362339927560    -0.520518420928     0.130532687876     1.007825032230
         H           -2.470601927560     1.024970579072     0.151039687876     1.007825032230
         H           -2.223680927560    -0.155222420928     1.441169687876     1.007825032230

  Basis Set: AUG-CC-PVTZ
    Blend: AUG-CC-PVTZ
  Basis Set: (AUG-CC-PVTZ AUX)
    Blend: AUG-CC-PVTZ-JKFIT
	 Reference Energy          =    -341.0862082035134790 [Eh]
	 Singles Energy            =      -0.0000000000000000 [Eh]
	 Same-Spin Energy          =      -0.3314516862246821 [Eh]
	 Opposite-Spin Energy      =      -1.0216483149209816 [Eh]
	 Correlation Energy        =      -1.3531000011456638 [Eh]
	 Total Energy              =    -342.4393082046591417 [Eh]

	 ================> DF-SCS-MP2 Energies <==================
	-----------------------------------------------------------
	 SCS Same-Spin Scale       =       0.3333333333333333 [-]
	 SCS Opposite-Spin Scale   =       1.2000000000000000 [-]
	 SCS Same-Spin Energy      =      -0.1104838954082274 [Eh]
	 SCS Opposite-Spin Energy  =      -1.2259779779051778 [Eh]
	 SCS Correlation Energy    =      -1.3364618733134053 [Eh]
	 SCS Total Energy          =    -342.4226700768268756 [Eh]
	-----------------------------------------------------------

  Dipole Moment: [D]
     X:    -7.8420      Y:    -1.7780      Z:    -0.2362     Total:     8.0446

*** Psi4 exiting successfully. Buy a developer a beer!
