                               Psi4 1.3.2 release

  ==> Input File <==

--------------------------------------------------------------------------
#psi4
#
memory 32 gb

molecule  {
-1 1
  O        1.1351350    -0.6918790     0.0330860
  O        0.1531200     1.3913640    -0.1728610
  O        2.4463690    -0.1041220     0.2385550
  C       -1.1465760    -0.6228910    -0.4018730
  C       -2.2980290    -0.0223870     0.3984860
  C        0.1501230     0.1562480    -0.1588130
  H       -1.3784130    -0.5614030    -1.4734780
  H       -0.9935530    -1.6784970    -0.1594820
  H       -3.2561770    -0.4998690     0.1615910
  H       -2.3644390     1.0456200     0.1820980
  H       -2.1175180    -0.1345730     1.4722280
units angstrom
no_reorient  #important for SAPT in psi4, default
symmetry c1  #important for SAPT in psi4, default
}

set PROPERTIES_ORIGIN ["COM"]
properties('MP2/aug-cc-pvtz', properties = ['dipole'])
--------------------------------------------------------------------------

    Molecular point group: c1
  Charge       = -1
  Multiplicity = 1
  Basis Set: AUG-CC-PVTZ
    Blend: AUG-CC-PVTZ
  Basis Set: (AUG-CC-PVTZ AUX)
    Blend: AUG-CC-PVTZ-JKFIT

    Orbital Energies [Eh]
    ---------------------

    Doubly Occupied:

       1A    -20.412275     2A    -20.347468     3A    -20.300731
       4A    -11.187022     5A    -11.095087     6A    -11.092345
       7A     -1.256930     8A     -1.159612     9A     -0.939150
      10A     -0.892117    11A     -0.732408    12A     -0.568440
      13A     -0.505820    14A     -0.492158    15A     -0.453903
      16A     -0.435622    17A     -0.411847    18A     -0.376048
      19A     -0.363200    20A     -0.311188    21A     -0.290739
      22A     -0.251582    23A     -0.190463    24A     -0.165876

  @DF-RHF Final Energy:  -341.13946329785722

   => Energetics <=

    Nuclear Repulsion Energy =            231.4815844456361731
    One-Electron Energy =                -936.7780302818675864
    Two-Electron Energy =                 364.1569825383742227
    Total Energy =                       -341.1394632978572190
  Basis Set: (AUG-CC-PVTZ AUX)
    Blend: AUG-CC-PVTZ-RI
    Molecular point group: c1

    Geometry (in Angstrom), charge = -1, multiplicity = 1:

       Center              X                  Y                   Z               Mass
    ------------   -----------------  -----------------  -----------------  -----------------
         O            1.022670823054    -0.712226223323     0.035130773963    15.994914619570
         O            0.040655823054     1.371016776677    -0.170816226037    15.994914619570
         O            2.333904823054    -0.124469223323     0.240599773963    15.994914619570
         C           -1.259040176946    -0.643238223323    -0.399828226037    12.000000000000
         C           -2.410493176946    -0.042734223323     0.400530773963    12.000000000000
         C            0.037658823054     0.135900776677    -0.156768226037    12.000000000000
         H           -1.490877176946    -0.581750223323    -1.471433226037     1.007825032230
         H           -1.106017176946    -1.698844223323    -0.157437226037     1.007825032230
         H           -3.368641176946    -0.520216223323     0.163635773963     1.007825032230
         H           -2.476903176946     1.025272776677     0.184142773963     1.007825032230
         H           -2.229982176946    -0.154920223323     1.474272773963     1.007825032230

  Basis Set: AUG-CC-PVTZ
    Blend: AUG-CC-PVTZ
  Basis Set: (AUG-CC-PVTZ AUX)
    Blend: AUG-CC-PVTZ-JKFIT
	 Reference Energy          =    -341.1394632978572190 [Eh]
	 Singles Energy            =      -0.0000000000000000 [Eh]
	 Same-Spin Energy          =      -0.3295085469428810 [Eh]
	 Opposite-Spin Energy      =      -1.0185052316774614 [Eh]
	 Correlation Energy        =      -1.3480137786203423 [Eh]
	 Total Energy              =    -342.4874770764775462 [Eh]

	 ================> DF-SCS-MP2 Energies <==================
	-----------------------------------------------------------
	 SCS Same-Spin Scale       =       0.3333333333333333 [-]
	 SCS Opposite-Spin Scale   =       1.2000000000000000 [-]
	 SCS Same-Spin Energy      =      -0.1098361823142937 [Eh]
	 SCS Opposite-Spin Energy  =      -1.2222062780129537 [Eh]
	 SCS Correlation Energy    =      -1.3320424603272474 [Eh]
	 SCS Total Energy          =    -342.4715057581844917 [Eh]
	-----------------------------------------------------------

  Dipole Moment: [D]
     X:    -7.8027      Y:    -1.8115      Z:    -0.7209     Total:     8.0426

*** Psi4 exiting successfully. Buy a developer a beer!
