                               Psi4 1.3.2 release

  ==> Input File <==

--------------------------------------------------------------------------
#psi4
#
memory 32 gb

molecule  {
-1 1
  O        1.1351350    -0.6918790     0.0330860
  O        0.1531200     1.3913640    -0.1728610
  O        2.4463690    -0.1041220     0.2385550
  C       -1.1839735    -0.6210975    -0.2054087
  C       -2.2980290    -0.0223870     0.3984860
  C        0.1501230     0.1562480    -0.1588130
  H       -1.3784130    -0.5614030    -1.4734780
  H       -0.9935530    -1.6784970    -0.1594820
  H       -3.2561770    -0.4998690     0.1615910
  H       -2.3644390     1.0456200     0.1820980
  H       -2.1175180    -0.1345730     1.4722280
units angstrom
no_reorient  #important for SAPT in psi4, default
symmetry c1  #important for SAPT in psi4, default
}

set PROPERTIES_ORIGIN ["COM"]
properties('MP2/aug-cc-pvtz', properties = ['dipole'])
--------------------------------------------------------------------------

    Molecular point group: c1
  Charge       = -1
  Multiplicity = 1
  Basis Set: AUG-CC-PVTZ
    Blend: AUG-CC-PVTZ
  Basis Set: (AUG-CC-PVTZ AUX)
    Blend: AUG-CC-PVTZ-JKFIT

    Orbital Energies [Eh]
    ---------------------

    Doubly Occupied:

       1A    -20.412994     2A    -20.348306     3A    -20.302067
       4A    -11.191144     5A    -11.103857     6A    -11.092153
       7A     -1.257944     8A     -1.160655     9A     -0.949114
      10A     -0.911928    11A     -0.724234    12A     -0.568744
      13A     -0.515035    14A     -0.487407    15A     -0.466886
      16A     -0.444977    17A     -0.424677    18A     -0.390084
      19A     -0.330036    20A     -0.306900    21A     -0.282118
      22A     -0.249812    23A     -0.191739    24A     -0.166805

  @DF-RHF Final Energy:  -341.10412258187915

   => Energetics <=

    Nuclear Repulsion Energy =            232.2652312748520558
    One-Electron Energy =                -938.1794714832233240
    Two-Electron Energy =                 364.8101176264920582
    Total Energy =                       -341.1041225818791531
  Basis Set: (AUG-CC-PVTZ AUX)
    Blend: AUG-CC-PVTZ-RI
    Molecular point group: c1

    Geometry (in Angstrom), charge = -1, multiplicity = 1:

       Center              X                  Y                   Z               Mass
    ------------   -----------------  -----------------  -----------------  -----------------
         O            1.027711830651    -0.712467978711     0.008648307789    15.994914619570
         O            0.045696830651     1.370775021289    -0.197298692211    15.994914619570
         O            2.338945830651    -0.124710978711     0.214117307789    15.994914619570
         C           -1.291396669349    -0.641686478711    -0.229846392211    12.000000000000
         C           -2.405452169349    -0.042975978711     0.374048307789    12.000000000000
         C            0.042699830651     0.135659021289    -0.183250692211    12.000000000000
         H           -1.485836169349    -0.581991978711    -1.497915692211     1.007825032230
         H           -1.100976169349    -1.699085978711    -0.183919692211     1.007825032230
         H           -3.363600169349    -0.520457978711     0.137153307789     1.007825032230
         H           -2.471862169349     1.025031021289     0.157660307789     1.007825032230
         H           -2.224941169349    -0.155161978711     1.447790307789     1.007825032230

  Basis Set: AUG-CC-PVTZ
    Blend: AUG-CC-PVTZ
  Basis Set: (AUG-CC-PVTZ AUX)
    Blend: AUG-CC-PVTZ-JKFIT
	 Reference Energy          =    -341.1041225818791531 [Eh]
	 Singles Energy            =      -0.0000000000000000 [Eh]
	 Same-Spin Energy          =      -0.3308784964248372 [Eh]
	 Opposite-Spin Energy      =      -1.0206096860215714 [Eh]
	 Correlation Energy        =      -1.3514881824464087 [Eh]
	 Total Energy              =    -342.4556107643255700 [Eh]

	 ================> DF-SCS-MP2 Energies <==================
	-----------------------------------------------------------
	 SCS Same-Spin Scale       =       0.3333333333333333 [-]
	 SCS Opposite-Spin Scale   =       1.2000000000000000 [-]
	 SCS Same-Spin Energy      =      -0.1102928321416124 [Eh]
	 SCS Opposite-Spin Energy  =      -1.2247316232258856 [Eh]
	 SCS Correlation Energy    =      -1.3350244553674979 [Eh]
	 SCS Total Energy          =    -342.4391470372466415 [Eh]
	-----------------------------------------------------------

  Dipole Moment: [D]
     X:    -7.8402      Y:    -1.7944      Z:    -0.3532     Total:     8.0506

*** Psi4 exiting successfully. Buy a developer a beer!
