                               Psi4 1.3.2 release

  ==> Input File <==

--------------------------------------------------------------------------
#psi4
#
memory 32 gb

molecule  {
-1 1
  O        1.1351350    -0.6918790     0.0330860
  O        0.1531200     1.3913640    -0.1728610
  O        2.4463690    -0.1041220     0.2385550
  C       -1.1559254    -0.6224426    -0.3527569
  C       -2.2980290    -0.0223870     0.3984860
  C        0.1501230     0.1562480    -0.1588130
  H       -1.3784130    -0.5614030    -1.4734780
  H       -0.9935530    -1.6784970    -0.1594820
  H       -3.2561770    -0.4998690     0.1615910
  H       -2.3644390     1.0456200     0.1820980
  H       -2.1175180    -0.1345730     1.4722280
units angstrom
no_reorient  #important for SAPT in psi4, default
symmetry c1  #important for SAPT in psi4, default
}

set PROPERTIES_ORIGIN ["COM"]
properties('MP2/aug-cc-pvtz', properties = ['dipole'])
--------------------------------------------------------------------------

    Molecular point group: c1
  Charge       = -1
  Multiplicity = 1
  Basis Set: AUG-CC-PVTZ
    Blend: AUG-CC-PVTZ
  Basis Set: (AUG-CC-PVTZ AUX)
    Blend: AUG-CC-PVTZ-JKFIT

    Orbital Energies [Eh]
    ---------------------

    Doubly Occupied:

       1A    -20.412360     2A    -20.347535     3A    -20.300895
       4A    -11.187454     5A    -11.094585     6A    -11.093831
       7A     -1.257074     8A     -1.159741     9A     -0.940664
      10A     -0.896939    11A     -0.730174    12A     -0.567882
      13A     -0.508076    14A     -0.489685    15A     -0.455604
      16A     -0.437138    17A     -0.414805    18A     -0.381161
      19A     -0.354522    20A     -0.311219    21A     -0.290182
      22A     -0.251500    23A     -0.190628    24A     -0.166017

  @DF-RHF Final Energy:  -341.13683037379076

   => Energetics <=

    Nuclear Repulsion Energy =            231.7059147024922936
    One-Electron Energy =                -937.2061466012122537
    Two-Electron Energy =                 364.3634015249291451
    Total Energy =                       -341.1368303737907581
  Basis Set: (AUG-CC-PVTZ AUX)
    Blend: AUG-CC-PVTZ-RI
    Molecular point group: c1

    Geometry (in Angstrom), charge = -1, multiplicity = 1:

       Center              X                  Y                   Z               Mass
    ------------   -----------------  -----------------  -----------------  -----------------
         O            1.023931078323    -0.712286665540     0.028510154050    15.994914619570
         O            0.041916078323     1.370956334460    -0.177436845950    15.994914619570
         O            2.335165078323    -0.124529665540     0.233979154050    15.994914619570
         C           -1.267129321677    -0.642850265540    -0.357332745950    12.000000000000
         C           -2.409232921677    -0.042794665540     0.393910154050    12.000000000000
         C            0.038919078323     0.135840334460    -0.163388845950    12.000000000000
         H           -1.489616921677    -0.581810665540    -1.478053845950     1.007825032230
         H           -1.104756921677    -1.698904665540    -0.164057845950     1.007825032230
         H           -3.367380921677    -0.520276665540     0.157015154050     1.007825032230
         H           -2.475642921677     1.025212334460     0.177522154050     1.007825032230
         H           -2.228721921677    -0.154980665540     1.467652154050     1.007825032230

  Basis Set: AUG-CC-PVTZ
    Blend: AUG-CC-PVTZ
  Basis Set: (AUG-CC-PVTZ AUX)
    Blend: AUG-CC-PVTZ-JKFIT
	 Reference Energy          =    -341.1368303737907581 [Eh]
	 Singles Energy            =      -0.0000000000000000 [Eh]
	 Same-Spin Energy          =      -0.3297091538476112 [Eh]
	 Opposite-Spin Energy      =      -1.0187000943405633 [Eh]
	 Correlation Energy        =      -1.3484092481881746 [Eh]
	 Total Energy              =    -342.4852396219789057 [Eh]

	 ================> DF-SCS-MP2 Energies <==================
	-----------------------------------------------------------
	 SCS Same-Spin Scale       =       0.3333333333333333 [-]
	 SCS Opposite-Spin Scale   =       1.2000000000000000 [-]
	 SCS Same-Spin Energy      =      -0.1099030512825371 [Eh]
	 SCS Opposite-Spin Energy  =      -1.2224401132086760 [Eh]
	 SCS Correlation Energy    =      -1.3323431644912129 [Eh]
	 SCS Total Energy          =    -342.4691735382819502 [Eh]
	-----------------------------------------------------------

  Dipole Moment: [D]
     X:    -7.8183      Y:    -1.8141      Z:    -0.6432     Total:     8.0517

*** Psi4 exiting successfully. Buy a developer a beer!
