                               Psi4 1.3.2 release

  ==> Input File <==

--------------------------------------------------------------------------
#psi4
#
memory 32 gb

molecule  {
-1 1
  O        1.1351350    -0.6918790     0.0330860
  O        0.1531200     1.3913640    -0.1728610
  O        2.4463690    -0.1041220     0.2385550
  C       -1.1746241    -0.6215458    -0.2545248
  C       -2.2980290    -0.0223870     0.3984860
  C        0.1501230     0.1562480    -0.1588130
  H       -1.3784130    -0.5614030    -1.4734780
  H       -0.9935530    -1.6784970    -0.1594820
  H       -3.2561770    -0.4998690     0.1615910
  H       -2.3644390     1.0456200     0.1820980
  H       -2.1175180    -0.1345730     1.4722280
units angstrom
no_reorient  #important for SAPT in psi4, default
symmetry c1  #important for SAPT in psi4, default
}

set PROPERTIES_ORIGIN ["COM"]
properties('MP2/aug-cc-pvtz', properties = ['dipole'])
--------------------------------------------------------------------------

    Molecular point group: c1
  Charge       = -1
  Multiplicity = 1
  Basis Set: AUG-CC-PVTZ
    Blend: AUG-CC-PVTZ
  Basis Set: (AUG-CC-PVTZ AUX)
    Blend: AUG-CC-PVTZ-JKFIT

    Orbital Energies [Eh]
    ---------------------

    Doubly Occupied:

       1A    -20.412724     2A    -20.347952     3A    -20.301568
       4A    -11.189531     5A    -11.100108     6A    -11.092571
       7A     -1.257584     8A     -1.160264     9A     -0.945420
      10A     -0.907083    11A     -0.726153    12A     -0.568198
      13A     -0.512770    14A     -0.487113    15A     -0.461787
      16A     -0.442137    17A     -0.421958    18A     -0.388220
      19A     -0.336353    20A     -0.309012    21A     -0.286524
      22A     -0.250729    23A     -0.191271    24A     -0.166492

  @DF-RHF Final Energy:  -341.11875487312267

   => Energetics <=

    Nuclear Repulsion Energy =            232.0994594905612018
    One-Electron Energy =                -937.9093880437908410
    Two-Electron Energy =                 364.6911736801069424
    Total Energy =                       -341.1187548731226684
  Basis Set: (AUG-CC-PVTZ AUX)
    Blend: AUG-CC-PVTZ-RI
    Molecular point group: c1

    Geometry (in Angstrom), charge = -1, multiplicity = 1:

       Center              X                  Y                   Z               Mass
    ------------   -----------------  -----------------  -----------------  -----------------
         O            1.026451575382    -0.712407549974     0.015268927702    15.994914619570
         O            0.044436575382     1.370835450026    -0.190678072298    15.994914619570
         O            2.337685575382    -0.124650549974     0.220737927702    15.994914619570
         C           -1.283307524618    -0.642074349974    -0.272341872298    12.000000000000
         C           -2.406712424618    -0.042915549974     0.380668927702    12.000000000000
         C            0.041439575382     0.135719450026    -0.176630072298    12.000000000000
         H           -1.487096424618    -0.581931549974    -1.491295072298     1.007825032230
         H           -1.102236424618    -1.699025549974    -0.177299072298     1.007825032230
         H           -3.364860424618    -0.520397549974     0.143773927702     1.007825032230
         H           -2.473122424618     1.025091450026     0.164280927702     1.007825032230
         H           -2.226201424618    -0.155101549974     1.454410927702     1.007825032230

  Basis Set: AUG-CC-PVTZ
    Blend: AUG-CC-PVTZ
  Basis Set: (AUG-CC-PVTZ AUX)
    Blend: AUG-CC-PVTZ-JKFIT
	 Reference Energy          =    -341.1187548731226684 [Eh]
	 Singles Energy            =      -0.0000000000000000 [Eh]
	 Same-Spin Energy          =      -0.3303956482944205 [Eh]
	 Opposite-Spin Energy      =      -1.0197651803808130 [Eh]
	 Correlation Energy        =      -1.3501608286752336 [Eh]
	 Total Energy              =    -342.4689157017979255 [Eh]

	 ================> DF-SCS-MP2 Energies <==================
	-----------------------------------------------------------
	 SCS Same-Spin Scale       =       0.3333333333333333 [-]
	 SCS Opposite-Spin Scale   =       1.2000000000000000 [-]
	 SCS Same-Spin Energy      =      -0.1101318827648068 [Eh]
	 SCS Opposite-Spin Energy  =      -1.2237182164569755 [Eh]
	 SCS Correlation Energy    =      -1.3338500992217823 [Eh]
	 SCS Total Energy          =    -342.4526049723444316 [Eh]
	-----------------------------------------------------------

  Dipole Moment: [D]
     X:    -7.8363      Y:    -1.8057      Z:    -0.4598     Total:     8.0547

*** Psi4 exiting successfully. Buy a developer a beer!
