                               Psi4 1.3.2 release

  ==> Input File <==

--------------------------------------------------------------------------
#psi4
#
memory 32 gb

molecule  {
-1 1
  O        1.1351350    -0.6918790     0.0330860
  O        0.1531200     1.3913640    -0.1728610
  O        2.4463690    -0.1041220     0.2385550
  C       -1.1652747    -0.6219942    -0.3036409
  C       -2.2980290    -0.0223870     0.3984860
  C        0.1501230     0.1562480    -0.1588130
  H       -1.3784130    -0.5614030    -1.4734780
  H       -0.9935530    -1.6784970    -0.1594820
  H       -3.2561770    -0.4998690     0.1615910
  H       -2.3644390     1.0456200     0.1820980
  H       -2.1175180    -0.1345730     1.4722280
units angstrom
no_reorient  #important for SAPT in psi4, default
symmetry c1  #important for SAPT in psi4, default
}

set PROPERTIES_ORIGIN ["COM"]
properties('MP2/aug-cc-pvtz', properties = ['dipole'])
--------------------------------------------------------------------------

    Molecular point group: c1
  Charge       = -1
  Multiplicity = 1
  Basis Set: AUG-CC-PVTZ
    Blend: AUG-CC-PVTZ
  Basis Set: (AUG-CC-PVTZ AUX)
    Blend: AUG-CC-PVTZ-JKFIT

    Orbital Energies [Eh]
    ---------------------

    Doubly Occupied:

       1A    -20.412511     2A    -20.347695     3A    -20.301175
       4A    -11.188295     5A    -11.096957     6A    -11.093198
       7A     -1.257293     8A     -1.159959     9A     -0.942688
      10A     -0.901999    11A     -0.728112    12A     -0.567864
      13A     -0.510444    14A     -0.487932    15A     -0.458090
      16A     -0.439351    17A     -0.418485    18A     -0.385342
      19A     -0.344945    20A     -0.310526    21A     -0.288956
      22A     -0.251241    23A     -0.190899    24A     -0.166225

  @DF-RHF Final Energy:  -341.12978122653374

   => Energetics <=

    Nuclear Repulsion Energy =            231.9124762053655218
    One-Electron Energy =                -937.5841497624219301
    Two-Electron Energy =                 364.5418923305227281
    Total Energy =                       -341.1297812265337370
  Basis Set: (AUG-CC-PVTZ AUX)
    Blend: AUG-CC-PVTZ-RI
    Molecular point group: c1

    Geometry (in Angstrom), charge = -1, multiplicity = 1:

       Center              X                  Y                   Z               Mass
    ------------   -----------------  -----------------  -----------------  -----------------
         O            1.025191320113    -0.712347107757     0.021889547616    15.994914619570
         O            0.043176320113     1.370895892243    -0.184057452384    15.994914619570
         O            2.336425320113    -0.124590107757     0.227358547616    15.994914619570
         C           -1.275218379887    -0.642462307757    -0.314837352384    12.000000000000
         C           -2.407972679887    -0.042855107757     0.387289547616    12.000000000000
         C            0.040179320113     0.135779892243    -0.170009452384    12.000000000000
         H           -1.488356679887    -0.581871107757    -1.484674452384     1.007825032230
         H           -1.103496679887    -1.698965107757    -0.170678452384     1.007825032230
         H           -3.366120679887    -0.520337107757     0.150394547616     1.007825032230
         H           -2.474382679887     1.025151892243     0.170901547616     1.007825032230
         H           -2.227461679887    -0.155041107757     1.461031547616     1.007825032230

  Basis Set: AUG-CC-PVTZ
    Blend: AUG-CC-PVTZ
  Basis Set: (AUG-CC-PVTZ AUX)
    Blend: AUG-CC-PVTZ-JKFIT
	 Reference Energy          =    -341.1297812265337370 [Eh]
	 Singles Energy            =      -0.0000000000000000 [Eh]
	 Same-Spin Energy          =      -0.3300053655268106 [Eh]
	 Opposite-Spin Energy      =      -1.0191249536245235 [Eh]
	 Correlation Energy        =      -1.3491303191513340 [Eh]
	 Total Energy              =    -342.4789115456850936 [Eh]

	 ================> DF-SCS-MP2 Energies <==================
	-----------------------------------------------------------
	 SCS Same-Spin Scale       =       0.3333333333333333 [-]
	 SCS Opposite-Spin Scale   =       1.2000000000000000 [-]
	 SCS Same-Spin Energy      =      -0.1100017885089369 [Eh]
	 SCS Opposite-Spin Energy  =      -1.2229499443494281 [Eh]
	 SCS Correlation Energy    =      -1.3329517328583649 [Eh]
	 SCS Total Energy          =    -342.4627329593920990 [Eh]
	-----------------------------------------------------------

  Dipole Moment: [D]
     X:    -7.8292      Y:    -1.8122      Z:    -0.5563     Total:     8.0555

*** Psi4 exiting successfully. Buy a developer a beer!
