                               Psi4 1.4a3.dev225

  ==> Input File <==

--------------------------------------------------------------------------
#psi4
#
memory 32 gb

molecule  {
0 1
 Cl       -1.5623360     0.9145460    -1.3283100
 Cl       -1.8035240    -1.6987570    -0.1947580
 Cl       -1.5102210     0.5498050     1.5667370
  C        0.5425250    -0.2377090    -0.0306430
  C        1.3583330     0.9211750     0.0000800
  C        1.1449540    -1.5037020    -0.0241300
  C        2.7480770     0.7402810    -0.0004710
  C       -0.9732360    -0.1289890    -0.0024010
  C        0.8627320     2.3487980    -0.0134970
  C        2.5304820    -1.6481190    -0.0246080
  C        3.3427940    -0.5189970    -0.0108730
  H        0.4762575    -2.4785145    -0.0308833
  H        3.3795310     1.6262990     0.0194810
  H        0.6542430     2.6831410    -1.0334720
  H       -0.0421520     2.4939510     0.5743960
  H        1.6388160     2.9983140     0.4002560
  H        2.9642350    -2.6446820    -0.0247670
  H        4.4259130    -0.6124980    -0.0086910
units angstrom
no_reorient  #important for SAPT in psi4, default
symmetry c1  #important for SAPT in psi4, default
}

set PROPERTIES_ORIGIN ["COM"]
properties('MP2/aug-cc-pvtz', properties = ['dipole'])
--------------------------------------------------------------------------

    Molecular point group: c1
  Charge       = 0
  Multiplicity = 1
  Basis Set: AUG-CC-PVTZ
    Blend: AUG-CC-PVTZ
  Basis Set: (AUG-CC-PVTZ AUX)
    Blend: AUG-CC-PVTZ-JKFIT

    Orbital Energies [Eh]
    ---------------------

    Doubly Occupied:

       1A   -104.857695     2A   -104.855667     3A   -104.855579
       4A    -11.442416     5A    -11.274684     6A    -11.267915
       7A    -11.263134     8A    -11.251645     9A    -11.245266
      10A    -11.244266    11A    -11.230158    12A    -10.582327
      13A    -10.580273    14A    -10.580220    15A     -8.049008
      16A     -8.046989    17A     -8.046980    18A     -8.046971
      19A     -8.046919    20A     -8.044915    21A     -8.044878
      22A     -8.044864    23A     -8.044814    24A     -1.246234
      25A     -1.164532    26A     -1.106735    27A     -1.104977
      28A     -1.057762    29A     -1.035959    30A     -0.950884
      31A     -0.881175    32A     -0.819683    33A     -0.789038
      34A     -0.700701    35A     -0.667092    36A     -0.646864
      37A     -0.627447    38A     -0.611215    39A     -0.599891
      40A     -0.587233    41A     -0.580449    42A     -0.555426
      43A     -0.519768    44A     -0.507950    45A     -0.501327
      46A     -0.495759    47A     -0.487171    48A     -0.463230
      49A     -0.455611    50A     -0.446009    51A     -0.441575
      52A     -0.351265    53A     -0.339228

  @DF-RHF Final Energy: -1685.64188169605063

   => Energetics <=

    Nuclear Repulsion Energy =            900.9857259477314528
    One-Electron Energy =               -4113.8756699531877530
    Two-Electron Energy =                1527.2480623094058956
    Total Energy =                      -1685.6418816960506319
  Basis Set: (AUG-CC-PVTZ AUX)
    Blend: AUG-CC-PVTZ-RI
    Molecular point group: c1

    Geometry (in Angstrom), charge = 0, multiplicity = 1:

       Center              X                  Y                   Z               Mass
    ------------   -----------------  -----------------  -----------------  -----------------
         CL          -1.474682352409     0.935829887966    -1.329002663505    34.968852682000
         CL          -1.715870352409    -1.677473112034    -0.195450663505    34.968852682000
         CL          -1.422567352409     0.571088887966     1.566044336495    34.968852682000
         C            0.630178647591    -0.216425112034    -0.031335663505    12.000000000000
         C            1.445986647591     0.942458887966    -0.000612663505    12.000000000000
         C            1.232607647591    -1.482418112034    -0.024822663505    12.000000000000
         C            2.835730647591     0.761564887966    -0.001163663505    12.000000000000
         C           -0.885582352409    -0.107705112034    -0.003093663505    12.000000000000
         C            0.950385647591     2.370081887966    -0.014189663505    12.000000000000
         C            2.618135647591    -1.626835112034    -0.025300663505    12.000000000000
         C            3.430447647591    -0.497713112034    -0.011565663505    12.000000000000
         H            0.563911147591    -2.457230612034    -0.031575963505     1.007825032230
         H            3.467184647591     1.647582887966     0.018788336495     1.007825032230
         H            0.741896647591     2.704424887966    -1.034164663505     1.007825032230
         H            0.045501647591     2.515234887966     0.573703336495     1.007825032230
         H            1.726469647591     3.019597887966     0.399563336495     1.007825032230
         H            3.051888647591    -2.623398112034    -0.025459663505     1.007825032230
         H            4.513566647591    -0.591214112034    -0.009383663505     1.007825032230

  Basis Set: AUG-CC-PVTZ
    Blend: AUG-CC-PVTZ
  Basis Set: (AUG-CC-PVTZ AUX)
    Blend: AUG-CC-PVTZ-JKFIT
	 Reference Energy          =   -1685.6418816960506319 [Eh]
	 Singles Energy            =      -0.0000000000000000 [Eh]
	 Same-Spin Energy          =      -0.5440536550222899 [Eh]
	 Opposite-Spin Energy      =      -1.6261495164841338 [Eh]
	 Correlation Energy        =      -2.1702031715064236 [Eh]
	 Total Energy              =   -1687.8120848675571324 [Eh]

	 ================> DF-SCS-MP2 Energies <==================
	-----------------------------------------------------------
	 SCS Same-Spin Scale       =       0.3333333333333333 [-]
	 SCS Opposite-Spin Scale   =       1.2000000000000000 [-]
	 SCS Same-Spin Energy      =      -0.1813512183407633 [Eh]
	 SCS Opposite-Spin Energy  =      -1.9513794197809604 [Eh]
	 SCS Correlation Energy    =      -2.1327306381217235 [Eh]
	 SCS Total Energy          =   -1687.7746123341723887 [Eh]
	-----------------------------------------------------------

  Dipole Moment: [D]
     X:     2.1265      Y:     0.2384      Z:    -0.0547     Total:     2.1405

*** Psi4 exiting successfully. Buy a developer a beer!
