                               Psi4 1.4a3.dev225

  ==> Input File <==

--------------------------------------------------------------------------
#psi4
#
memory 32 gb

molecule  {
0 1
 Cl       -1.5623360     0.9145460    -1.3283100
 Cl       -1.8035240    -1.6987570    -0.1947580
 Cl       -1.5102210     0.5498050     1.5667370
  C        0.5425250    -0.2377090    -0.0306430
  C        1.3583330     0.9211750     0.0000800
  C        1.1449540    -1.5037020    -0.0241300
  C        2.7480770     0.7402810    -0.0004710
  C       -0.9732360    -0.1289890    -0.0024010
  C        0.8627320     2.3487980    -0.0134970
  C        2.5304820    -1.6481190    -0.0246080
  C        3.3427940    -0.5189970    -0.0108730
  H        0.5328240    -2.3960530    -0.0303120
  H        3.3795310     1.6262990     0.0194810
  H        0.6542430     2.6831410    -1.0334720
  H       -0.0421520     2.4939510     0.5743960
  H        1.6388160     2.9983140     0.4002560
  H        2.9642350    -2.6446820    -0.0247670
  H        4.2266545    -0.5952969    -0.0090924
units angstrom
no_reorient  #important for SAPT in psi4, default
symmetry c1  #important for SAPT in psi4, default
}

set PROPERTIES_ORIGIN ["COM"]
properties('MP2/aug-cc-pvtz', properties = ['dipole'])
--------------------------------------------------------------------------

    Molecular point group: c1
  Charge       = 0
  Multiplicity = 1
  Basis Set: AUG-CC-PVTZ
    Blend: AUG-CC-PVTZ
  Basis Set: (AUG-CC-PVTZ AUX)
    Blend: AUG-CC-PVTZ-JKFIT

    Orbital Energies [Eh]
    ---------------------

    Doubly Occupied:

       1A   -104.857762     2A   -104.855460     3A   -104.855337
       4A    -11.442136     5A    -11.273726     6A    -11.266456
       7A    -11.252149     8A    -11.243766     9A    -11.243184
      10A    -11.229400    11A    -11.227401    12A    -10.582351
      13A    -10.580034    14A    -10.580016    15A     -8.049044
      16A     -8.047012    17A     -8.047000    18A     -8.046741
      19A     -8.046716    20A     -8.044676    21A     -8.044661
      22A     -8.044639    23A     -8.044612    24A     -1.246072
      25A     -1.165706    26A     -1.106667    27A     -1.104772
      28A     -1.061054    29A     -1.042654    30A     -0.951041
      31A     -0.894464    32A     -0.824845    33A     -0.799231
      34A     -0.714688    35A     -0.672501    36A     -0.665984
      37A     -0.627194    38A     -0.619238    39A     -0.599486
      40A     -0.586697    41A     -0.581892    42A     -0.556649
      43A     -0.530471    44A     -0.507335    45A     -0.503379
      46A     -0.495239    47A     -0.488629    48A     -0.463940
      49A     -0.455402    50A     -0.447131    51A     -0.441514
      52A     -0.350646    53A     -0.338259

  @DF-RHF Final Energy: -1685.61502185670338

   => Energetics <=

    Nuclear Repulsion Energy =            902.7178338041825327
    One-Electron Energy =               -4117.1715924758218534
    Two-Electron Energy =                1528.8387368149358281
    Total Energy =                      -1685.6150218567033789
  Basis Set: (AUG-CC-PVTZ AUX)
    Blend: AUG-CC-PVTZ-RI
    Molecular point group: c1

    Geometry (in Angstrom), charge = 0, multiplicity = 1:

       Center              X                  Y                   Z               Mass
    ------------   -----------------  -----------------  -----------------  -----------------
         CL          -1.473990836505     0.935346901723    -1.329003486877    34.968852682000
         CL          -1.715178836505    -1.677956098277    -0.195451486877    34.968852682000
         CL          -1.421875836505     0.570605901723     1.566043513123    34.968852682000
         C            0.630870163495    -0.216908098277    -0.031336486877    12.000000000000
         C            1.446678163495     0.941975901723    -0.000613486877    12.000000000000
         C            1.233299163495    -1.482901098277    -0.024823486877    12.000000000000
         C            2.836422163495     0.761081901723    -0.001164486877    12.000000000000
         C           -0.884890836505    -0.108188098277    -0.003094486877    12.000000000000
         C            0.951077163495     2.369598901723    -0.014190486877    12.000000000000
         C            2.618827163495    -1.627318098277    -0.025301486877    12.000000000000
         C            3.431139163495    -0.498196098277    -0.011566486877    12.000000000000
         H            0.621169163495    -2.375252098277    -0.031005486877     1.007825032230
         H            3.467876163495     1.647099901723     0.018787513123     1.007825032230
         H            0.742588163495     2.703941901723    -1.034165486877     1.007825032230
         H            0.046193163495     2.514751901723     0.573702513123     1.007825032230
         H            1.727161163495     3.019114901723     0.399562513123     1.007825032230
         H            3.052580163495    -2.623881098277    -0.025460486877     1.007825032230
         H            4.314999663495    -0.574495998277    -0.009785886877     1.007825032230

  Basis Set: AUG-CC-PVTZ
    Blend: AUG-CC-PVTZ
  Basis Set: (AUG-CC-PVTZ AUX)
    Blend: AUG-CC-PVTZ-JKFIT
	 Reference Energy          =   -1685.6150218567033789 [Eh]
	 Singles Energy            =      -0.0000000000000000 [Eh]
	 Same-Spin Energy          =      -0.5433856067939957 [Eh]
	 Opposite-Spin Energy      =      -1.6244253761433753 [Eh]
	 Correlation Energy        =      -2.1678109829373708 [Eh]
	 Total Energy              =   -1687.7828328396408324 [Eh]

	 ================> DF-SCS-MP2 Energies <==================
	-----------------------------------------------------------
	 SCS Same-Spin Scale       =       0.3333333333333333 [-]
	 SCS Opposite-Spin Scale   =       1.2000000000000000 [-]
	 SCS Same-Spin Energy      =      -0.1811285355979986 [Eh]
	 SCS Opposite-Spin Energy  =      -1.9493104513720503 [Eh]
	 SCS Correlation Energy    =      -2.1304389869700486 [Eh]
	 SCS Total Energy          =   -1687.7454608436735271 [Eh]
	-----------------------------------------------------------

  Dipole Moment: [D]
     X:     2.1704      Y:     0.2234      Z:    -0.0540     Total:     2.1825

*** Psi4 exiting successfully. Buy a developer a beer!
