                               Psi4 1.4a3.dev225

  ==> Input File <==

--------------------------------------------------------------------------
#psi4
#
memory 32 gb

molecule  {
0 1
 Cl       -1.5623360     0.9145460    -1.3283100
 Cl       -1.8035240    -1.6987570    -0.1947580
 Cl       -1.5102210     0.5498050     1.5667370
  C        0.5425250    -0.2377090    -0.0306430
  C        1.2432333     0.7576719    -0.0042546
  C        1.1449540    -1.5037020    -0.0241300
  C        2.7480770     0.7402810    -0.0004710
  C       -0.9732360    -0.1289890    -0.0024010
  C        0.8627320     2.3487980    -0.0134970
  C        2.5304820    -1.6481190    -0.0246080
  C        3.3427940    -0.5189970    -0.0108730
  H        0.5328240    -2.3960530    -0.0303120
  H        3.3795310     1.6262990     0.0194810
  H        0.6542430     2.6831410    -1.0334720
  H       -0.0421520     2.4939510     0.5743960
  H        1.6388160     2.9983140     0.4002560
  H        2.9642350    -2.6446820    -0.0247670
  H        4.4259130    -0.6124980    -0.0086910
units angstrom
no_reorient  #important for SAPT in psi4, default
symmetry c1  #important for SAPT in psi4, default
}

set PROPERTIES_ORIGIN ["COM"]
properties('MP2/aug-cc-pvtz', properties = ['dipole'])
--------------------------------------------------------------------------

    Molecular point group: c1
  Charge       = 0
  Multiplicity = 1
  Basis Set: AUG-CC-PVTZ
    Blend: AUG-CC-PVTZ
  Basis Set: (AUG-CC-PVTZ AUX)
    Blend: AUG-CC-PVTZ-JKFIT

    Orbital Energies [Eh]
    ---------------------

    Doubly Occupied:

       1A   -104.858474     2A   -104.856503     3A   -104.856046
       4A    -11.442219     5A    -11.256979     6A    -11.254631
       7A    -11.251619     8A    -11.250444     9A    -11.248335
      10A    -11.244798    11A    -11.235800    12A    -10.583093
      13A    -10.581018    14A    -10.580694    15A     -8.049780
      16A     -8.047756    17A     -8.047747    18A     -8.047720
      19A     -8.047405    20A     -8.045666    21A     -8.045615
      22A     -8.045338    23A     -8.045298    24A     -1.252639
      25A     -1.176524    26A     -1.107704    27A     -1.105668
      28A     -1.066774    29A     -1.025375    30A     -0.942531
      31A     -0.878729    32A     -0.853187    33A     -0.778273
      34A     -0.707317    35A     -0.664970    36A     -0.648310
      37A     -0.631018    38A     -0.627845    39A     -0.599778
      40A     -0.581657    41A     -0.568372    42A     -0.555719
      43A     -0.528874    44A     -0.515068    45A     -0.496835
      46A     -0.492911    47A     -0.485941    48A     -0.455962
      49A     -0.449458    50A     -0.442149    51A     -0.441990
      52A     -0.375285    53A     -0.331321

  @DF-RHF Final Energy: -1685.59468678242229

   => Energetics <=

    Nuclear Repulsion Energy =            904.6297872624596721
    One-Electron Energy =               -4121.0266231174455243
    Two-Electron Energy =                1530.8021490725636795
    Total Energy =                      -1685.5946867824222863
  Basis Set: (AUG-CC-PVTZ AUX)
    Blend: AUG-CC-PVTZ-RI
    Molecular point group: c1

    Geometry (in Angstrom), charge = 0, multiplicity = 1:

       Center              X                  Y                   Z               Mass
    ------------   -----------------  -----------------  -----------------  -----------------
         CL          -1.468314883782     0.944864886956    -1.328755312574    34.968852682000
         CL          -1.709502883782    -1.668438113044    -0.195203312574    34.968852682000
         CL          -1.416199883782     0.580123886956     1.566291687426    34.968852682000
         C            0.636546116218    -0.207390113044    -0.031088312574    12.000000000000
         C            1.337254416218     0.787990786956    -0.004699912574    12.000000000000
         C            1.238975116218    -1.473383113044    -0.024575312574    12.000000000000
         C            2.842098116218     0.770599886956    -0.000916312574    12.000000000000
         C           -0.879214883782    -0.098670113044    -0.002846312574    12.000000000000
         C            0.956753116218     2.379116886956    -0.013942312574    12.000000000000
         C            2.624503116218    -1.617800113044    -0.025053312574    12.000000000000
         C            3.436815116218    -0.488678113044    -0.011318312574    12.000000000000
         H            0.626845116218    -2.365734113044    -0.030757312574     1.007825032230
         H            3.473552116218     1.656617886956     0.019035687426     1.007825032230
         H            0.748264116218     2.713459886956    -1.033917312574     1.007825032230
         H            0.051869116218     2.524269886956     0.573950687426     1.007825032230
         H            1.732837116218     3.028632886956     0.399810687426     1.007825032230
         H            3.058256116218    -2.614363113044    -0.025212312574     1.007825032230
         H            4.519934116218    -0.582179113044    -0.009136312574     1.007825032230

  Basis Set: AUG-CC-PVTZ
    Blend: AUG-CC-PVTZ
  Basis Set: (AUG-CC-PVTZ AUX)
    Blend: AUG-CC-PVTZ-JKFIT
	 Reference Energy          =   -1685.5946867824222863 [Eh]
	 Singles Energy            =      -0.0000000000000000 [Eh]
	 Same-Spin Energy          =      -0.5422347624057609 [Eh]
	 Opposite-Spin Energy      =      -1.6258004768523120 [Eh]
	 Correlation Energy        =      -2.1680352392580726 [Eh]
	 Total Energy              =   -1687.7627220216802471 [Eh]

	 ================> DF-SCS-MP2 Energies <==================
	-----------------------------------------------------------
	 SCS Same-Spin Scale       =       0.3333333333333333 [-]
	 SCS Opposite-Spin Scale   =       1.2000000000000000 [-]
	 SCS Same-Spin Energy      =      -0.1807449208019203 [Eh]
	 SCS Opposite-Spin Energy  =      -1.9509605722227743 [Eh]
	 SCS Correlation Energy    =      -2.1317054930246946 [Eh]
	 SCS Total Energy          =   -1687.7263922754468695 [Eh]
	-----------------------------------------------------------

  Dipole Moment: [D]
     X:     2.1764      Y:     0.2061      Z:    -0.0451     Total:     2.1866

*** Psi4 exiting successfully. Buy a developer a beer!
