                               Psi4 1.4a3.dev225

  ==> Input File <==

--------------------------------------------------------------------------
#psi4
#
memory 32 gb

molecule  {
0 1
 Cl       -1.5623360     0.9145460    -1.3283100
 Cl       -1.8035240    -1.6987570    -0.1947580
 Cl       -1.5102210     0.5498050     1.5667370
  C        0.5425250    -0.2377090    -0.0306430
  C        1.3583330     0.9211750     0.0000800
  C        1.1449540    -1.5037020    -0.0241300
  C        2.7480770     0.7402810    -0.0004710
  C       -0.9233727    -0.1325655    -0.0033301
  C        0.8627320     2.3487980    -0.0134970
  C        2.5304820    -1.6481190    -0.0246080
  C        3.3427940    -0.5189970    -0.0108730
  H        0.5328240    -2.3960530    -0.0303120
  H        3.3795310     1.6262990     0.0194810
  H        0.6542430     2.6831410    -1.0334720
  H       -0.0421520     2.4939510     0.5743960
  H        1.6388160     2.9983140     0.4002560
  H        2.9642350    -2.6446820    -0.0247670
  H        4.4259130    -0.6124980    -0.0086910
units angstrom
no_reorient  #important for SAPT in psi4, default
symmetry c1  #important for SAPT in psi4, default
}

set PROPERTIES_ORIGIN ["COM"]
properties('MP2/aug-cc-pvtz', properties = ['dipole'])
--------------------------------------------------------------------------

    Molecular point group: c1
  Charge       = 0
  Multiplicity = 1
  Basis Set: AUG-CC-PVTZ
    Blend: AUG-CC-PVTZ
  Basis Set: (AUG-CC-PVTZ AUX)
    Blend: AUG-CC-PVTZ-JKFIT

    Orbital Energies [Eh]
    ---------------------

    Doubly Occupied:

       1A   -104.856608     2A   -104.853965     3A   -104.853921
       4A    -11.443245     5A    -11.271620     6A    -11.269744
       7A    -11.255666     8A    -11.253806     9A    -11.246151
      10A    -11.245599    11A    -11.230812    12A    -10.580885
      13A    -10.578373    14A    -10.578304    15A     -8.047538
      16A     -8.045545    17A     -8.045531    18A     -8.045042
      19A     -8.044966    20A     -8.043010    21A     -8.042980
      22A     -8.042941    23A     -8.042898    24A     -1.244007
      25A     -1.165621    26A     -1.102505    27A     -1.100249
      28A     -1.059884    29A     -1.043205    30A     -0.954642
      31A     -0.889599    32A     -0.827431    33A     -0.788099
      34A     -0.704255    35A     -0.669605    36A     -0.655756
      37A     -0.624860    38A     -0.618801    39A     -0.595133
      40A     -0.586360    41A     -0.582266    42A     -0.556678
      43A     -0.521650    44A     -0.508050    45A     -0.505722
      46A     -0.494626    47A     -0.487166    48A     -0.470187
      49A     -0.451767    50A     -0.444145    51A     -0.439612
      52A     -0.352870    53A     -0.340575

  @DF-RHF Final Energy: -1685.64759414566470

   => Energetics <=

    Nuclear Repulsion Energy =            901.4735767472992620
    One-Electron Energy =               -4114.8333928369420391
    Two-Electron Energy =                1527.7122219439779656
    Total Energy =                      -1685.6475941456646979
  Basis Set: (AUG-CC-PVTZ AUX)
    Blend: AUG-CC-PVTZ-RI
    Molecular point group: c1

    Geometry (in Angstrom), charge = 0, multiplicity = 1:

       Center              X                  Y                   Z               Mass
    ------------   -----------------  -----------------  -----------------  -----------------
         CL          -1.477833749471     0.935636636830    -1.328951820258    34.968852682000
         CL          -1.719021749471    -1.677666363170    -0.195399820258    34.968852682000
         CL          -1.425718749471     0.570895636830     1.566095179742    34.968852682000
         C            0.627027250529    -0.216618363170    -0.031284820258    12.000000000000
         C            1.442835250529     0.942265636830    -0.000561820258    12.000000000000
         C            1.229456250529    -1.482611363170    -0.024771820258    12.000000000000
         C            2.832579250529     0.761371636830    -0.001112820258    12.000000000000
         C           -0.838870449471    -0.111474863170    -0.003971920258    12.000000000000
         C            0.947234250529     2.369888636830    -0.014138820258    12.000000000000
         C            2.614984250529    -1.627028363170    -0.025249820258    12.000000000000
         C            3.427296250529    -0.497906363170    -0.011514820258    12.000000000000
         H            0.617326250529    -2.374962363170    -0.030953820258     1.007825032230
         H            3.464033250529     1.647389636830     0.018839179742     1.007825032230
         H            0.738745250529     2.704231636830    -1.034113820258     1.007825032230
         H            0.042350250529     2.515041636830     0.573754179742     1.007825032230
         H            1.723318250529     3.019404636830     0.399614179742     1.007825032230
         H            3.048737250529    -2.623591363170    -0.025408820258     1.007825032230
         H            4.510415250529    -0.591407363170    -0.009332820258     1.007825032230

  Basis Set: AUG-CC-PVTZ
    Blend: AUG-CC-PVTZ
  Basis Set: (AUG-CC-PVTZ AUX)
    Blend: AUG-CC-PVTZ-JKFIT
	 Reference Energy          =   -1685.6475941456646979 [Eh]
	 Singles Energy            =      -0.0000000000000000 [Eh]
	 Same-Spin Energy          =      -0.5438341392966732 [Eh]
	 Opposite-Spin Energy      =      -1.6256389290067976 [Eh]
	 Correlation Energy        =      -2.1694730683034709 [Eh]
	 Total Energy              =   -1687.8170672139681301 [Eh]

	 ================> DF-SCS-MP2 Energies <==================
	-----------------------------------------------------------
	 SCS Same-Spin Scale       =       0.3333333333333333 [-]
	 SCS Opposite-Spin Scale   =       1.2000000000000000 [-]
	 SCS Same-Spin Energy      =      -0.1812780464322244 [Eh]
	 SCS Opposite-Spin Energy  =      -1.9507667148081571 [Eh]
	 SCS Correlation Energy    =      -2.1320447612403814 [Eh]
	 SCS Total Energy          =   -1687.7796389069051202 [Eh]
	-----------------------------------------------------------

  Dipole Moment: [D]
     X:     2.3810      Y:     0.2255      Z:    -0.0578     Total:     2.3924

*** Psi4 exiting successfully. Buy a developer a beer!
