                               Psi4 1.4a3.dev225

  ==> Input File <==

--------------------------------------------------------------------------
#psi4
#
memory 32 gb

molecule  {
0 1
 Cl       -1.5623360     0.9145460    -1.3283100
 Cl       -1.8035240    -1.6987570    -0.1947580
 Cl       -1.5102210     0.5498050     1.5667370
  C        0.5425250    -0.2377090    -0.0306430
  C        1.2755212     0.9752953    -0.0017294
  C        1.1449540    -1.5037020    -0.0241300
  C        2.7480770     0.7402810    -0.0004710
  C       -0.9732360    -0.1289890    -0.0024010
  C        0.8627320     2.3487980    -0.0134970
  C        2.5304820    -1.6481190    -0.0246080
  C        3.3427940    -0.5189970    -0.0108730
  H        0.5328240    -2.3960530    -0.0303120
  H        3.3795310     1.6262990     0.0194810
  H        0.6542430     2.6831410    -1.0334720
  H       -0.0421520     2.4939510     0.5743960
  H        1.6388160     2.9983140     0.4002560
  H        2.9642350    -2.6446820    -0.0247670
  H        4.4259130    -0.6124980    -0.0086910
units angstrom
no_reorient  #important for SAPT in psi4, default
symmetry c1  #important for SAPT in psi4, default
}

set PROPERTIES_ORIGIN ["COM"]
properties('MP2/aug-cc-pvtz', properties = ['dipole'])
--------------------------------------------------------------------------

    Molecular point group: c1
  Charge       = 0
  Multiplicity = 1
  Basis Set: AUG-CC-PVTZ
    Blend: AUG-CC-PVTZ
  Basis Set: (AUG-CC-PVTZ AUX)
    Blend: AUG-CC-PVTZ-JKFIT

    Orbital Energies [Eh]
    ---------------------

    Doubly Occupied:

       1A   -104.856432     2A   -104.855517     3A   -104.855335
       4A    -11.439986     5A    -11.275717     6A    -11.274616
       7A    -11.252784     8A    -11.252696     9A    -11.250161
      10A    -11.245242    11A    -11.229377    12A    -10.581084
      13A    -10.580241    14A    -10.579920    15A     -8.047775
      16A     -8.046946    17A     -8.046617    18A     -8.045755
      19A     -8.045745    20A     -8.044893    21A     -8.044854
      22A     -8.044572    23A     -8.044520    24A     -1.246305
      25A     -1.158744    26A     -1.107035    27A     -1.104855
      28A     -1.068026    29A     -1.034498    30A     -0.957038
      31A     -0.876333    32A     -0.826531    33A     -0.782401
      34A     -0.702386    35A     -0.667762    36A     -0.655618
      37A     -0.627300    38A     -0.617696    39A     -0.601071
      40A     -0.593131    41A     -0.583649    42A     -0.562601
      43A     -0.520775    44A     -0.508371    45A     -0.504561
      46A     -0.492927    47A     -0.487674    48A     -0.459559
      49A     -0.455298    50A     -0.446247    51A     -0.441413
      52A     -0.351979    53A     -0.329110

  @DF-RHF Final Energy: -1685.63556259087431

   => Energetics <=

    Nuclear Repulsion Energy =            901.6894864281808850
    One-Electron Energy =               -4115.2267488991401478
    Two-Electron Energy =                1527.9016998800850615
    Total Energy =                      -1685.6355625908743150
  Basis Set: (AUG-CC-PVTZ AUX)
    Blend: AUG-CC-PVTZ-RI
    Molecular point group: c1

    Geometry (in Angstrom), charge = 0, multiplicity = 1:

       Center              X                  Y                   Z               Mass
    ------------   -----------------  -----------------  -----------------  -----------------
         CL          -1.470177993591     0.932307356386    -1.328901024276    34.968852682000
         CL          -1.711365993591    -1.680995643614    -0.195349024276    34.968852682000
         CL          -1.418062993591     0.567566356386     1.566145975724    34.968852682000
         C            0.634683006409    -0.219947643614    -0.031234024276    12.000000000000
         C            1.367679206409     0.993056656386    -0.002320424276    12.000000000000
         C            1.237112006409    -1.485940643614    -0.024721024276    12.000000000000
         C            2.840235006409     0.758042356386    -0.001062024276    12.000000000000
         C           -0.881077993591    -0.111227643614    -0.002992024276    12.000000000000
         C            0.954890006409     2.366559356386    -0.014088024276    12.000000000000
         C            2.622640006409    -1.630357643614    -0.025199024276    12.000000000000
         C            3.434952006409    -0.501235643614    -0.011464024276    12.000000000000
         H            0.624982006409    -2.378291643614    -0.030903024276     1.007825032230
         H            3.471689006409     1.644060356386     0.018889975724     1.007825032230
         H            0.746401006409     2.700902356386    -1.034063024276     1.007825032230
         H            0.050006006409     2.511712356386     0.573804975724     1.007825032230
         H            1.730974006409     3.016075356386     0.399664975724     1.007825032230
         H            3.056393006409    -2.626920643614    -0.025358024276     1.007825032230
         H            4.518071006409    -0.594736643614    -0.009282024276     1.007825032230

  Basis Set: AUG-CC-PVTZ
    Blend: AUG-CC-PVTZ
  Basis Set: (AUG-CC-PVTZ AUX)
    Blend: AUG-CC-PVTZ-JKFIT
	 Reference Energy          =   -1685.6355625908743150 [Eh]
	 Singles Energy            =      -0.0000000000000000 [Eh]
	 Same-Spin Energy          =      -0.5449573456501609 [Eh]
	 Opposite-Spin Energy      =      -1.6271112608487264 [Eh]
	 Correlation Energy        =      -2.1720686064988870 [Eh]
	 Total Energy              =   -1687.8076311973732118 [Eh]

	 ================> DF-SCS-MP2 Energies <==================
	-----------------------------------------------------------
	 SCS Same-Spin Scale       =       0.3333333333333333 [-]
	 SCS Opposite-Spin Scale   =       1.2000000000000000 [-]
	 SCS Same-Spin Energy      =      -0.1816524485500536 [Eh]
	 SCS Opposite-Spin Energy  =      -1.9525335130184716 [Eh]
	 SCS Correlation Energy    =      -2.1341859615685252 [Eh]
	 SCS Total Energy          =   -1687.7697485524429339 [Eh]
	-----------------------------------------------------------

  Dipole Moment: [D]
     X:     2.1426      Y:     0.3683      Z:    -0.0623     Total:     2.1749

*** Psi4 exiting successfully. Buy a developer a beer!
