                               Psi4 1.4a3.dev225

  ==> Input File <==

--------------------------------------------------------------------------
#psi4
#
memory 32 gb

molecule  {
0 1
 Cl       -1.5623360     0.9145460    -1.3283100
 Cl       -1.8035240    -1.6987570    -0.1947580
 Cl       -1.5102210     0.5498050     1.5667370
  C        0.5425250    -0.2377090    -0.0306430
  C        1.3583330     0.9211750     0.0000800
  C        1.1449540    -1.5037020    -0.0241300
  C        2.7480770     0.7402810    -0.0004710
  C       -0.9732360    -0.1289890    -0.0024010
  C        0.8627320     2.3487980    -0.0134970
  C        2.3315597    -1.6273848    -0.0245394
  C        3.3427940    -0.5189970    -0.0108730
  H        0.5328240    -2.3960530    -0.0303120
  H        3.3795310     1.6262990     0.0194810
  H        0.6542430     2.6831410    -1.0334720
  H       -0.0421520     2.4939510     0.5743960
  H        1.6388160     2.9983140     0.4002560
  H        2.9642350    -2.6446820    -0.0247670
  H        4.4259130    -0.6124980    -0.0086910
units angstrom
no_reorient  #important for SAPT in psi4, default
symmetry c1  #important for SAPT in psi4, default
}

set PROPERTIES_ORIGIN ["COM"]
properties('MP2/aug-cc-pvtz', properties = ['dipole'])
--------------------------------------------------------------------------

    Molecular point group: c1
  Charge       = 0
  Multiplicity = 1
  Basis Set: AUG-CC-PVTZ
    Blend: AUG-CC-PVTZ
  Basis Set: (AUG-CC-PVTZ AUX)
    Blend: AUG-CC-PVTZ-JKFIT

    Orbital Energies [Eh]
    ---------------------

    Doubly Occupied:

       1A   -104.857747     2A   -104.854829     3A   -104.854685
       4A    -11.441430     5A    -11.271834     6A    -11.268648
       7A    -11.261807     8A    -11.245567     9A    -11.238564
      10A    -11.231034    11A    -11.222445    12A    -10.582351
      13A    -10.579417    14A    -10.579400    15A     -8.049039
      16A     -8.047013    17A     -8.047004    18A     -8.046111
      19A     -8.046106    20A     -8.044058    21A     -8.044045
      22A     -8.044009    23A     -8.044006    24A     -1.246678
      25A     -1.178617    26A     -1.107619    27A     -1.104255
      28A     -1.076039    29A     -1.031179    30A     -0.962261
      31A     -0.878647    32A     -0.814953    33A     -0.790728
      34A     -0.702832    35A     -0.672793    36A     -0.652285
      37A     -0.627515    38A     -0.618316    39A     -0.600392
      40A     -0.588192    41A     -0.577016    42A     -0.554858
      43A     -0.532019    44A     -0.517632    45A     -0.498931
      46A     -0.489571    47A     -0.474998    48A     -0.455017
      49A     -0.452955    50A     -0.445425    51A     -0.441164
      52A     -0.373031    53A     -0.331174

  @DF-RHF Final Energy: -1685.58560447266791

   => Energetics <=

    Nuclear Repulsion Energy =            905.0925789293312391
    One-Electron Energy =               -4121.9598878191472977
    Two-Electron Energy =                1531.2817044171479210
    Total Energy =                      -1685.5856044726679102
  Basis Set: (AUG-CC-PVTZ AUX)
    Blend: AUG-CC-PVTZ-RI
    Molecular point group: c1

    Geometry (in Angstrom), charge = 0, multiplicity = 1:

       Center              X                  Y                   Z               Mass
    ------------   -----------------  -----------------  -----------------  -----------------
         CL          -1.463478065397     0.934233835668    -1.329009390575    34.968852682000
         CL          -1.704666065397    -1.679069164332    -0.195457390575    34.968852682000
         CL          -1.411363065397     0.569492835668     1.566037609425    34.968852682000
         C            0.641382934603    -0.218021164332    -0.031342390575    12.000000000000
         C            1.457190934603     0.940862835668    -0.000619390575    12.000000000000
         C            1.243811934603    -1.484014164332    -0.024829390575    12.000000000000
         C            2.846934934603     0.759968835668    -0.001170390575    12.000000000000
         C           -0.874378065397    -0.109301164332    -0.003100390575    12.000000000000
         C            0.961589934603     2.368485835668    -0.014196390575    12.000000000000
         C            2.430417634603    -1.607696964332    -0.025238790575    12.000000000000
         C            3.441651934603    -0.499309164332    -0.011572390575    12.000000000000
         H            0.631681934603    -2.376365164332    -0.031011390575     1.007825032230
         H            3.478388934603     1.645986835668     0.018781609425     1.007825032230
         H            0.753100934603     2.702828835668    -1.034171390575     1.007825032230
         H            0.056705934603     2.513638835668     0.573696609425     1.007825032230
         H            1.737673934603     3.018001835668     0.399556609425     1.007825032230
         H            3.063092934603    -2.624994164332    -0.025466390575     1.007825032230
         H            4.524770934603    -0.592810164332    -0.009390390575     1.007825032230

  Basis Set: AUG-CC-PVTZ
    Blend: AUG-CC-PVTZ
  Basis Set: (AUG-CC-PVTZ AUX)
    Blend: AUG-CC-PVTZ-JKFIT
	 Reference Energy          =   -1685.5856044726679102 [Eh]
	 Singles Energy            =      -0.0000000000000000 [Eh]
	 Same-Spin Energy          =      -0.5435031755118298 [Eh]
	 Opposite-Spin Energy      =      -1.6269140223160719 [Eh]
	 Correlation Energy        =      -2.1704171978279017 [Eh]
	 Total Energy              =   -1687.7560216704957838 [Eh]

	 ================> DF-SCS-MP2 Energies <==================
	-----------------------------------------------------------
	 SCS Same-Spin Scale       =       0.3333333333333333 [-]
	 SCS Opposite-Spin Scale   =       1.2000000000000000 [-]
	 SCS Same-Spin Energy      =      -0.1811677251706099 [Eh]
	 SCS Opposite-Spin Energy  =      -1.9522968267792862 [Eh]
	 SCS Correlation Energy    =      -2.1334645519498960 [Eh]
	 SCS Total Energy          =   -1687.7190690246177383 [Eh]
	-----------------------------------------------------------

  Dipole Moment: [D]
     X:     2.1410      Y:     0.3532      Z:    -0.0585     Total:     2.1708

*** Psi4 exiting successfully. Buy a developer a beer!
