                               Psi4 1.4a3.dev225

  ==> Input File <==

--------------------------------------------------------------------------
#psi4
#
memory 32 gb

molecule  {
0 1
 Cl       -1.5623360     0.9145460    -1.3283100
 Cl       -1.8035240    -1.6987570    -0.1947580
 Cl       -1.5102210     0.5498050     1.5667370
  C        0.5425250    -0.2377090    -0.0306430
  C        1.3583330     0.9211750     0.0000800
  C        1.1449540    -1.5037020    -0.0241300
  C        2.7480770     0.7402810    -0.0004710
  C       -0.8735095    -0.1361420    -0.0042591
  C        0.8627320     2.3487980    -0.0134970
  C        2.5304820    -1.6481190    -0.0246080
  C        3.3427940    -0.5189970    -0.0108730
  H        0.5328240    -2.3960530    -0.0303120
  H        3.3795310     1.6262990     0.0194810
  H        0.6542430     2.6831410    -1.0334720
  H       -0.0421520     2.4939510     0.5743960
  H        1.6388160     2.9983140     0.4002560
  H        2.9642350    -2.6446820    -0.0247670
  H        4.4259130    -0.6124980    -0.0086910
units angstrom
no_reorient  #important for SAPT in psi4, default
symmetry c1  #important for SAPT in psi4, default
}

set PROPERTIES_ORIGIN ["COM"]
properties('MP2/aug-cc-pvtz', properties = ['dipole'])
--------------------------------------------------------------------------

    Molecular point group: c1
  Charge       = 0
  Multiplicity = 1
  Basis Set: AUG-CC-PVTZ
    Blend: AUG-CC-PVTZ
  Basis Set: (AUG-CC-PVTZ AUX)
    Blend: AUG-CC-PVTZ-JKFIT

    Orbital Energies [Eh]
    ---------------------

    Doubly Occupied:

       1A   -104.854884     2A   -104.851869     3A   -104.851813
       4A    -11.443693     5A    -11.272977     6A    -11.268470
       7A    -11.258726     8A    -11.256852     9A    -11.247806
      10A    -11.247306    11A    -11.231860    12A    -10.578860
      13A    -10.576086    14A    -10.575944    15A     -8.045474
      16A     -8.043516    17A     -8.043499    18A     -8.042717
      19A     -8.042569    20A     -8.040716    21A     -8.040693
      22A     -8.040572    23A     -8.040536    24A     -1.242642
      25A     -1.166363    26A     -1.098019    27A     -1.095122
      28A     -1.062215    29A     -1.049257    30A     -0.958506
      31A     -0.896630    32A     -0.830337    33A     -0.787525
      34A     -0.705140    35A     -0.672465    36A     -0.659235
      37A     -0.622953    38A     -0.620245    39A     -0.592180
      40A     -0.586547    41A     -0.579612    42A     -0.558281
      43A     -0.522498    44A     -0.508605    45A     -0.507083
      46A     -0.493280    47A     -0.484987    48A     -0.475296
      49A     -0.447545    50A     -0.440524    51A     -0.437121
      52A     -0.354871    53A     -0.342418

  @DF-RHF Final Energy: -1685.64106907777955

   => Energetics <=

    Nuclear Repulsion Energy =            901.4987154800447797
    One-Electron Energy =               -4114.8896896440328419
    Two-Electron Energy =                1527.7499050862086278
    Total Energy =                      -1685.6410690777795480
  Basis Set: (AUG-CC-PVTZ AUX)
    Blend: AUG-CC-PVTZ-RI
    Molecular point group: c1

    Geometry (in Angstrom), charge = 0, multiplicity = 1:

       Center              X                  Y                   Z               Mass
    ------------   -----------------  -----------------  -----------------  -----------------
         CL          -1.480711007424     0.935843011733    -1.328898214139    34.968852682000
         CL          -1.721899007424    -1.677459988267    -0.195346214139    34.968852682000
         CL          -1.428596007424     0.571102011733     1.566148785861    34.968852682000
         C            0.624149992576    -0.216411988267    -0.031231214139    12.000000000000
         C            1.439957992576     0.942472011733    -0.000508214139    12.000000000000
         C            1.226578992576    -1.482404988267    -0.024718214139    12.000000000000
         C            2.829701992576     0.761578011733    -0.001059214139    12.000000000000
         C           -0.791884507424    -0.114844988267    -0.004847314139    12.000000000000
         C            0.944356992576     2.370095011733    -0.014085214139    12.000000000000
         C            2.612106992576    -1.626821988267    -0.025196214139    12.000000000000
         C            3.424418992576    -0.497699988267    -0.011461214139    12.000000000000
         H            0.614448992576    -2.374755988267    -0.030900214139     1.007825032230
         H            3.461155992576     1.647596011733     0.018892785861     1.007825032230
         H            0.735867992576     2.704438011733    -1.034060214139     1.007825032230
         H            0.039472992576     2.515248011733     0.573807785861     1.007825032230
         H            1.720440992576     3.019611011733     0.399667785861     1.007825032230
         H            3.045859992576    -2.623384988267    -0.025355214139     1.007825032230
         H            4.507537992576    -0.591200988267    -0.009279214139     1.007825032230

  Basis Set: AUG-CC-PVTZ
    Blend: AUG-CC-PVTZ
  Basis Set: (AUG-CC-PVTZ AUX)
    Blend: AUG-CC-PVTZ-JKFIT
	 Reference Energy          =   -1685.6410690777795480 [Eh]
	 Singles Energy            =      -0.0000000000000000 [Eh]
	 Same-Spin Energy          =      -0.5443679088373294 [Eh]
	 Opposite-Spin Energy      =      -1.6266747027181625 [Eh]
	 Correlation Energy        =      -2.1710426115554919 [Eh]
	 Total Energy              =   -1687.8121116893350973 [Eh]

	 ================> DF-SCS-MP2 Energies <==================
	-----------------------------------------------------------
	 SCS Same-Spin Scale       =       0.3333333333333333 [-]
	 SCS Opposite-Spin Scale   =       1.2000000000000000 [-]
	 SCS Same-Spin Energy      =      -0.1814559696124431 [Eh]
	 SCS Opposite-Spin Energy  =      -1.9520096432617948 [Eh]
	 SCS Correlation Energy    =      -2.1334656128742377 [Eh]
	 SCS Total Energy          =   -1687.7745346906538089 [Eh]
	-----------------------------------------------------------

  Dipole Moment: [D]
     X:     2.6776      Y:     0.2153      Z:    -0.0629     Total:     2.6870

*** Psi4 exiting successfully. Buy a developer a beer!
