                               Psi4 1.4a3.dev225

  ==> Input File <==

--------------------------------------------------------------------------
#psi4
#
memory 32 gb

molecule  {
0 1
 Cl       -1.5623360     0.9145460    -1.3283100
 Cl       -1.8035240    -1.6987570    -0.1947580
 Cl       -1.5102210     0.5498050     1.5667370
  C        0.5425250    -0.2377090    -0.0306430
  C        1.3173991     0.9489580    -0.0008065
  C        1.1449540    -1.5037020    -0.0241300
  C        2.7480770     0.7402810    -0.0004710
  C       -0.9732360    -0.1289890    -0.0024010
  C        0.8627320     2.3487980    -0.0134970
  C        2.5304820    -1.6481190    -0.0246080
  C        3.3427940    -0.5189970    -0.0108730
  H        0.5328240    -2.3960530    -0.0303120
  H        3.3795310     1.6262990     0.0194810
  H        0.6542430     2.6831410    -1.0334720
  H       -0.0421520     2.4939510     0.5743960
  H        1.6388160     2.9983140     0.4002560
  H        2.9642350    -2.6446820    -0.0247670
  H        4.4259130    -0.6124980    -0.0086910
units angstrom
no_reorient  #important for SAPT in psi4, default
symmetry c1  #important for SAPT in psi4, default
}

set PROPERTIES_ORIGIN ["COM"]
properties('MP2/aug-cc-pvtz', properties = ['dipole'])
--------------------------------------------------------------------------

    Molecular point group: c1
  Charge       = 0
  Multiplicity = 1
  Basis Set: AUG-CC-PVTZ
    Blend: AUG-CC-PVTZ
  Basis Set: (AUG-CC-PVTZ AUX)
    Blend: AUG-CC-PVTZ-JKFIT

    Orbital Energies [Eh]
    ---------------------

    Doubly Occupied:

       1A   -104.857250     2A   -104.855538     3A   -104.855510
       4A    -11.441185     5A    -11.274578     6A    -11.271201
       7A    -11.252899     8A    -11.250947     9A    -11.248496
      10A    -11.245034    11A    -11.229640    12A    -10.581870
      13A    -10.580247    14A    -10.580079    15A     -8.048562
      16A     -8.046953    17A     -8.046777    18A     -8.046536
      19A     -8.046525    20A     -8.044894    21A     -8.044856
      22A     -8.044727    23A     -8.044677    24A     -1.246294
      25A     -1.161387    26A     -1.106911    27A     -1.104925
      28A     -1.062664    29A     -1.035820    30A     -0.954419
      31A     -0.879413    32A     -0.825778    33A     -0.785586
      34A     -0.702739    35A     -0.667392    36A     -0.653711
      37A     -0.627328    38A     -0.616875    39A     -0.600023
      40A     -0.590340    41A     -0.582974    42A     -0.559008
      43A     -0.518116    44A     -0.510693    45A     -0.505678
      46A     -0.494349    47A     -0.488344    48A     -0.462171
      49A     -0.455466    50A     -0.446875    51A     -0.441588
      52A     -0.351217    53A     -0.334208

  @DF-RHF Final Energy: -1685.64548106181701

   => Energetics <=

    Nuclear Repulsion Energy =            901.5443030744784210
    One-Electron Energy =               -4114.9570219576944510
    Two-Electron Energy =                1527.7672378213992488
    Total Energy =                      -1685.6454810618170086
  Basis Set: (AUG-CC-PVTZ AUX)
    Blend: AUG-CC-PVTZ-RI
    Molecular point group: c1

    Geometry (in Angstrom), charge = 0, multiplicity = 1:

       Center              X                  Y                   Z               Mass
    ------------   -----------------  -----------------  -----------------  -----------------
         CL          -1.472594475502     0.933827098518    -1.328954278407    34.968852682000
         CL          -1.713782475502    -1.679475901482    -0.195402278407    34.968852682000
         CL          -1.420479475502     0.569086098518     1.566092721593    34.968852682000
         C            0.632266524498    -0.218427901482    -0.031287278407    12.000000000000
         C            1.407140624498     0.968239098518    -0.001450778407    12.000000000000
         C            1.234695524498    -1.484420901482    -0.024774278407    12.000000000000
         C            2.837818524498     0.759562098518    -0.001115278407    12.000000000000
         C           -0.883494475502    -0.109707901482    -0.003045278407    12.000000000000
         C            0.952473524498     2.368079098518    -0.014141278407    12.000000000000
         C            2.620223524498    -1.628837901482    -0.025252278407    12.000000000000
         C            3.432535524498    -0.499715901482    -0.011517278407    12.000000000000
         H            0.622565524498    -2.376771901482    -0.030956278407     1.007825032230
         H            3.469272524498     1.645580098518     0.018836721593     1.007825032230
         H            0.743984524498     2.702422098518    -1.034116278407     1.007825032230
         H            0.047589524498     2.513232098518     0.573751721593     1.007825032230
         H            1.728557524498     3.017595098518     0.399611721593     1.007825032230
         H            3.053976524498    -2.625400901482    -0.025411278407     1.007825032230
         H            4.515654524498    -0.593216901482    -0.009335278407     1.007825032230

  Basis Set: AUG-CC-PVTZ
    Blend: AUG-CC-PVTZ
  Basis Set: (AUG-CC-PVTZ AUX)
    Blend: AUG-CC-PVTZ-JKFIT
	 Reference Energy          =   -1685.6454810618170086 [Eh]
	 Singles Energy            =      -0.0000000000000000 [Eh]
	 Same-Spin Energy          =      -0.5441800151783214 [Eh]
	 Opposite-Spin Energy      =      -1.6258544353259432 [Eh]
	 Correlation Energy        =      -2.1700344505042644 [Eh]
	 Total Energy              =   -1687.8155155123213262 [Eh]

	 ================> DF-SCS-MP2 Energies <==================
	-----------------------------------------------------------
	 SCS Same-Spin Scale       =       0.3333333333333333 [-]
	 SCS Opposite-Spin Scale   =       1.2000000000000000 [-]
	 SCS Same-Spin Energy      =      -0.1813933383927738 [Eh]
	 SCS Opposite-Spin Energy  =      -1.9510253223911318 [Eh]
	 SCS Correlation Energy    =      -2.1324186607839057 [Eh]
	 SCS Total Energy          =   -1687.7778997226009778 [Eh]
	-----------------------------------------------------------

  Dipole Moment: [D]
     X:     2.1382      Y:     0.2992      Z:    -0.0580     Total:     2.1598

*** Psi4 exiting successfully. Buy a developer a beer!
