                               Psi4 1.4a3.dev225

  ==> Input File <==

--------------------------------------------------------------------------
#psi4
#
memory 32 gb

molecule  {
0 1
 Cl       -1.5623360     0.9145460    -1.3283100
 Cl       -1.8035240    -1.6987570    -0.1947580
 Cl       -1.5102210     0.5498050     1.5667370
  C        0.5425250    -0.2377090    -0.0306430
  C        1.3583330     0.9211750     0.0000800
  C        1.1449540    -1.5037020    -0.0241300
  C        2.7480770     0.7402810    -0.0004710
  C       -0.9732360    -0.1289890    -0.0024010
  C        0.8627320     2.3487980    -0.0134970
  C        2.5304820    -1.6481190    -0.0246080
  C        3.3427940    -0.5189970    -0.0108730
  H        0.5441373    -2.3795607    -0.0301977
  H        3.3795310     1.6262990     0.0194810
  H        0.6542430     2.6831410    -1.0334720
  H       -0.0421520     2.4939510     0.5743960
  H        1.6388160     2.9983140     0.4002560
  H        2.9642350    -2.6446820    -0.0247670
  H        4.4259130    -0.6124980    -0.0086910
units angstrom
no_reorient  #important for SAPT in psi4, default
symmetry c1  #important for SAPT in psi4, default
}

set PROPERTIES_ORIGIN ["COM"]
properties('MP2/aug-cc-pvtz', properties = ['dipole'])
--------------------------------------------------------------------------

    Molecular point group: c1
  Charge       = 0
  Multiplicity = 1
  Basis Set: AUG-CC-PVTZ
    Blend: AUG-CC-PVTZ
  Basis Set: (AUG-CC-PVTZ AUX)
    Blend: AUG-CC-PVTZ-JKFIT

    Orbital Energies [Eh]
    ---------------------

    Doubly Occupied:

       1A   -104.858102     2A   -104.855672     3A   -104.855553
       4A    -11.442387     5A    -11.273877     6A    -11.267325
       7A    -11.251222     8A    -11.251008     9A    -11.244691
      10A    -11.244167    11A    -11.229872    12A    -10.582681
      13A    -10.580251    14A    -10.580229    15A     -8.049375
      16A     -8.047341    17A     -8.047330    18A     -8.046958
      19A     -8.046929    20A     -8.044893    21A     -8.044873
      22A     -8.044856    23A     -8.044824    24A     -1.246369
      25A     -1.164700    26A     -1.106958    27A     -1.104996
      28A     -1.058215    29A     -1.038072    30A     -0.951434
      31A     -0.882806    32A     -0.826160    33A     -0.788836
      34A     -0.703844    35A     -0.667321    36A     -0.653744
      37A     -0.627456    38A     -0.618746    39A     -0.599906
      40A     -0.587088    41A     -0.581999    42A     -0.555232
      43A     -0.521443    44A     -0.507776    45A     -0.504737
      46A     -0.495698    47A     -0.489075    48A     -0.464050
      49A     -0.455641    50A     -0.447444    51A     -0.441772
      52A     -0.351016    53A     -0.338962

  @DF-RHF Final Energy: -1685.64994977638207

   => Energetics <=

    Nuclear Repulsion Energy =            901.5524889440575862
    One-Electron Energy =               -4114.9730481455608242
    Two-Electron Energy =                1527.7706094251211653
    Total Energy =                      -1685.6499497763820727
  Basis Set: (AUG-CC-PVTZ AUX)
    Blend: AUG-CC-PVTZ-RI
    Molecular point group: c1

    Geometry (in Angstrom), charge = 0, multiplicity = 1:

       Center              X                  Y                   Z               Mass
    ------------   -----------------  -----------------  -----------------  -----------------
         CL          -1.475011312416     0.935350336719    -1.329005986069    34.968852682000
         CL          -1.716199312416    -1.677952663281    -0.195453986069    34.968852682000
         CL          -1.422896312416     0.570609336719     1.566041013931    34.968852682000
         C            0.629849687584    -0.216904663281    -0.031338986069    12.000000000000
         C            1.445657687584     0.941979336719    -0.000615986069    12.000000000000
         C            1.232278687584    -1.482897663281    -0.024825986069    12.000000000000
         C            2.835401687584     0.761085336719    -0.001166986069    12.000000000000
         C           -0.885911312416    -0.108184663281    -0.003096986069    12.000000000000
         C            0.950056687584     2.369602336719    -0.014192986069    12.000000000000
         C            2.617806687584    -1.627314663281    -0.025303986069    12.000000000000
         C            3.430118687584    -0.498192663281    -0.011568986069    12.000000000000
         H            0.631461987584    -2.358756363281    -0.030893686069     1.007825032230
         H            3.466855687584     1.647103336719     0.018785013931     1.007825032230
         H            0.741567687584     2.703945336719    -1.034167986069     1.007825032230
         H            0.045172687584     2.514755336719     0.573700013931     1.007825032230
         H            1.726140687584     3.019118336719     0.399560013931     1.007825032230
         H            3.051559687584    -2.623877663281    -0.025462986069     1.007825032230
         H            4.513237687584    -0.591693663281    -0.009386986069     1.007825032230

  Basis Set: AUG-CC-PVTZ
    Blend: AUG-CC-PVTZ
  Basis Set: (AUG-CC-PVTZ AUX)
    Blend: AUG-CC-PVTZ-JKFIT
	 Reference Energy          =   -1685.6499497763820727 [Eh]
	 Singles Energy            =      -0.0000000000000000 [Eh]
	 Same-Spin Energy          =      -0.5434591775495953 [Eh]
	 Opposite-Spin Energy      =      -1.6247861173063807 [Eh]
	 Correlation Energy        =      -2.1682452948559758 [Eh]
	 Total Energy              =   -1687.8181950712380512 [Eh]

	 ================> DF-SCS-MP2 Energies <==================
	-----------------------------------------------------------
	 SCS Same-Spin Scale       =       0.3333333333333333 [-]
	 SCS Opposite-Spin Scale   =       1.2000000000000000 [-]
	 SCS Same-Spin Energy      =      -0.1811530591831984 [Eh]
	 SCS Opposite-Spin Energy  =      -1.9497433407676568 [Eh]
	 SCS Correlation Energy    =      -2.1308963999508550 [Eh]
	 SCS Total Energy          =   -1687.7808461763329433 [Eh]
	-----------------------------------------------------------

  Dipole Moment: [D]
     X:     2.1336      Y:     0.2311      Z:    -0.0540     Total:     2.1468

*** Psi4 exiting successfully. Buy a developer a beer!
