                               Psi4 1.4a3.dev225

  ==> Input File <==

--------------------------------------------------------------------------
#psi4
#
memory 32 gb

molecule  {
0 1
 Cl       -1.5623360     0.9145460    -1.3283100
 Cl       -1.8035240    -1.6987570    -0.1947580
 Cl       -1.5102210     0.5498050     1.5667370
  C        0.5425250    -0.2377090    -0.0306430
  C        1.3583330     0.9211750     0.0000800
  C        1.1449540    -1.5037020    -0.0241300
  C        2.7480770     0.7402810    -0.0004710
  C       -0.9732360    -0.1289890    -0.0024010
  C        0.8627320     2.3487980    -0.0134970
  C        2.5304820    -1.6481190    -0.0246080
  C        3.3427940    -0.5189970    -0.0108730
  H        0.5328240    -2.3960530    -0.0303120
  H        3.4955867     1.7891413     0.0231480
  H        0.6542430     2.6831410    -1.0334720
  H       -0.0421520     2.4939510     0.5743960
  H        1.6388160     2.9983140     0.4002560
  H        2.9642350    -2.6446820    -0.0247670
  H        4.4259130    -0.6124980    -0.0086910
units angstrom
no_reorient  #important for SAPT in psi4, default
symmetry c1  #important for SAPT in psi4, default
}

set PROPERTIES_ORIGIN ["COM"]
properties('MP2/aug-cc-pvtz', properties = ['dipole'])
--------------------------------------------------------------------------

    Molecular point group: c1
  Charge       = 0
  Multiplicity = 1
  Basis Set: AUG-CC-PVTZ
    Blend: AUG-CC-PVTZ
  Basis Set: (AUG-CC-PVTZ AUX)
    Blend: AUG-CC-PVTZ-JKFIT

    Orbital Energies [Eh]
    ---------------------

    Doubly Occupied:

       1A   -104.858727     2A   -104.856174     3A   -104.856040
       4A    -11.443222     5A    -11.275775     6A    -11.269885
       7A    -11.265803     8A    -11.254259     9A    -11.253576
      10A    -11.246516    11A    -11.229553    12A    -10.583307
      13A    -10.580736    14A    -10.580727    15A     -8.049999
      16A     -8.047966    17A     -8.047953    18A     -8.047441
      19A     -8.047428    20A     -8.045373    21A     -8.045370
      22A     -8.045336    23A     -8.045321    24A     -1.247060
      25A     -1.165230    26A     -1.107511    27A     -1.105489
      28A     -1.058785    29A     -1.035409    30A     -0.950411
      31A     -0.882685    32A     -0.818261    33A     -0.786815
      34A     -0.699423    35A     -0.668288    36A     -0.650077
      37A     -0.628091    38A     -0.605318    39A     -0.599864
      40A     -0.586890    41A     -0.579668    42A     -0.547190
      43A     -0.521355    44A     -0.508430    45A     -0.497096
      46A     -0.491281    47A     -0.489169    48A     -0.464639
      49A     -0.456148    50A     -0.447793    51A     -0.442257
      52A     -0.352480    53A     -0.340488

  @DF-RHF Final Energy: -1685.62757654464144

   => Energetics <=

    Nuclear Repulsion Energy =            900.4339589421762184
    One-Electron Energy =               -4112.7028936893002538
    Two-Electron Energy =                1526.6413582024827065
    Total Energy =                      -1685.6275765446414425
  Basis Set: (AUG-CC-PVTZ AUX)
    Blend: AUG-CC-PVTZ-RI
    Molecular point group: c1

    Geometry (in Angstrom), charge = 0, multiplicity = 1:

       Center              X                  Y                   Z               Mass
    ------------   -----------------  -----------------  -----------------  -----------------
         CL          -1.475518916455     0.934641093365    -1.329023203212    34.968852682000
         CL          -1.716706916455    -1.678661906635    -0.195471203212    34.968852682000
         CL          -1.423403916455     0.569900093365     1.566023796788    34.968852682000
         C            0.629342083545    -0.217613906635    -0.031356203212    12.000000000000
         C            1.445150083545     0.941270093365    -0.000633203212    12.000000000000
         C            1.231771083545    -1.483606906635    -0.024843203212    12.000000000000
         C            2.834894083545     0.760376093365    -0.001184203212    12.000000000000
         C           -0.886418916455    -0.108893906635    -0.003114203212    12.000000000000
         C            0.949549083545     2.368893093365    -0.014210203212    12.000000000000
         C            2.617299083545    -1.628023906635    -0.025321203212    12.000000000000
         C            3.429611083545    -0.498901906635    -0.011586203212    12.000000000000
         H            0.619641083545    -2.375957906635    -0.031025203212     1.007825032230
         H            3.582403783545     1.809236393365     0.022434796788     1.007825032230
         H            0.741060083545     2.703236093365    -1.034185203212     1.007825032230
         H            0.044665083545     2.514046093365     0.573682796788     1.007825032230
         H            1.725633083545     3.018409093365     0.399542796788     1.007825032230
         H            3.051052083545    -2.624586906635    -0.025480203212     1.007825032230
         H            4.512730083545    -0.592402906635    -0.009404203212     1.007825032230

  Basis Set: AUG-CC-PVTZ
    Blend: AUG-CC-PVTZ
  Basis Set: (AUG-CC-PVTZ AUX)
    Blend: AUG-CC-PVTZ-JKFIT
	 Reference Energy          =   -1685.6275765446414425 [Eh]
	 Singles Energy            =      -0.0000000000000000 [Eh]
	 Same-Spin Energy          =      -0.5441487272964149 [Eh]
	 Opposite-Spin Energy      =      -1.6271938466662785 [Eh]
	 Correlation Energy        =      -2.1713425739626935 [Eh]
	 Total Energy              =   -1687.7989191186040898 [Eh]

	 ================> DF-SCS-MP2 Energies <==================
	-----------------------------------------------------------
	 SCS Same-Spin Scale       =       0.3333333333333333 [-]
	 SCS Opposite-Spin Scale   =       1.2000000000000000 [-]
	 SCS Same-Spin Energy      =      -0.1813829090988050 [Eh]
	 SCS Opposite-Spin Energy  =      -1.9526326159995342 [Eh]
	 SCS Correlation Energy    =      -2.1340155250983392 [Eh]
	 SCS Total Energy          =   -1687.7615920697398906 [Eh]
	-----------------------------------------------------------

  Dipole Moment: [D]
     X:     2.0600      Y:     0.1493      Z:    -0.0558     Total:     2.0662

*** Psi4 exiting successfully. Buy a developer a beer!
