                               Psi4 1.4a3.dev225

  ==> Input File <==

--------------------------------------------------------------------------
#psi4
#
memory 32 gb

molecule  {
0 1
 Cl       -1.5623360     0.9145460    -1.3283100
 Cl       -1.8035240    -1.6987570    -0.1947580
 Cl       -1.5102210     0.5498050     1.5667370
  C        0.5425250    -0.2377090    -0.0306430
  C        1.3583330     0.9211750     0.0000800
  C        1.1535476    -1.5217614    -0.0240371
  C        2.7480770     0.7402810    -0.0004710
  C       -0.9732360    -0.1289890    -0.0024010
  C        0.8627320     2.3487980    -0.0134970
  C        2.5304820    -1.6481190    -0.0246080
  C        3.3427940    -0.5189970    -0.0108730
  H        0.5328240    -2.3960530    -0.0303120
  H        3.3795310     1.6262990     0.0194810
  H        0.6542430     2.6831410    -1.0334720
  H       -0.0421520     2.4939510     0.5743960
  H        1.6388160     2.9983140     0.4002560
  H        2.9642350    -2.6446820    -0.0247670
  H        4.4259130    -0.6124980    -0.0086910
units angstrom
no_reorient  #important for SAPT in psi4, default
symmetry c1  #important for SAPT in psi4, default
}

set PROPERTIES_ORIGIN ["COM"]
properties('MP2/aug-cc-pvtz', properties = ['dipole'])
--------------------------------------------------------------------------

    Molecular point group: c1
  Charge       = 0
  Multiplicity = 1
  Basis Set: AUG-CC-PVTZ
    Blend: AUG-CC-PVTZ
  Basis Set: (AUG-CC-PVTZ AUX)
    Blend: AUG-CC-PVTZ-JKFIT

    Orbital Energies [Eh]
    ---------------------

    Doubly Occupied:

       1A   -104.858126     2A   -104.855542     3A   -104.855448
       4A    -11.442387     5A    -11.275524     6A    -11.267564
       7A    -11.253323     8A    -11.251535     9A    -11.244568
      10A    -11.243853    11A    -11.230034    12A    -10.582714
      13A    -10.580148    14A    -10.580103    15A     -8.049408
      16A     -8.047376    17A     -8.047364    18A     -8.046855
      19A     -8.046802    20A     -8.044789    21A     -8.044752
      22A     -8.044746    23A     -8.044697    24A     -1.245927
      25A     -1.163972    26A     -1.106918    27A     -1.104881
      28A     -1.059236    29A     -1.035515    30A     -0.952192
      31A     -0.882802    32A     -0.824813    33A     -0.788123
      34A     -0.703314    35A     -0.666613    36A     -0.653839
      37A     -0.627176    38A     -0.616975    39A     -0.599899
      40A     -0.587105    41A     -0.582779    42A     -0.555272
      43A     -0.522517    44A     -0.507225    45A     -0.503621
      46A     -0.495578    47A     -0.489084    48A     -0.463506
      49A     -0.455569    50A     -0.447518    51A     -0.441737
      52A     -0.348801    53A     -0.340568

  @DF-RHF Final Energy: -1685.64915962731948

   => Energetics <=

    Nuclear Repulsion Energy =            901.0686086855021131
    One-Electron Energy =               -4114.0140747962041132
    Two-Electron Energy =                1527.2963064833825229
    Total Energy =                      -1685.6491596273194773
  Basis Set: (AUG-CC-PVTZ AUX)
    Blend: AUG-CC-PVTZ-RI
    Molecular point group: c1

    Geometry (in Angstrom), charge = 0, multiplicity = 1:

       Center              X                  Y                   Z               Mass
    ------------   -----------------  -----------------  -----------------  -----------------
         CL          -1.475452362546     0.936472344109    -1.329010792759    34.968852682000
         CL          -1.716640362546    -1.676830655891    -0.195458792759    34.968852682000
         CL          -1.423337362546     0.571731344109     1.566036207241    34.968852682000
         C            0.629408637454    -0.215782655891    -0.031343792759    12.000000000000
         C            1.445216637454     0.943101344109    -0.000620792759    12.000000000000
         C            1.240431237454    -1.499835055891    -0.024737892759    12.000000000000
         C            2.834960637454     0.762207344109    -0.001171792759    12.000000000000
         C           -0.886352362546    -0.107062655891    -0.003101792759    12.000000000000
         C            0.949615637454     2.370724344109    -0.014197792759    12.000000000000
         C            2.617365637454    -1.626192655891    -0.025308792759    12.000000000000
         C            3.429677637454    -0.497070655891    -0.011573792759    12.000000000000
         H            0.619707637454    -2.374126655891    -0.031012792759     1.007825032230
         H            3.466414637454     1.648225344109     0.018780207241     1.007825032230
         H            0.741126637454     2.705067344109    -1.034172792759     1.007825032230
         H            0.044731637454     2.515877344109     0.573695207241     1.007825032230
         H            1.725699637454     3.020240344109     0.399555207241     1.007825032230
         H            3.051118637454    -2.622755655891    -0.025467792759     1.007825032230
         H            4.512796637454    -0.590571655891    -0.009391792759     1.007825032230

  Basis Set: AUG-CC-PVTZ
    Blend: AUG-CC-PVTZ
  Basis Set: (AUG-CC-PVTZ AUX)
    Blend: AUG-CC-PVTZ-JKFIT
	 Reference Energy          =   -1685.6491596273194773 [Eh]
	 Singles Energy            =      -0.0000000000000000 [Eh]
	 Same-Spin Energy          =      -0.5435617695257056 [Eh]
	 Opposite-Spin Energy      =      -1.6250178664297117 [Eh]
	 Correlation Energy        =      -2.1685796359554175 [Eh]
	 Total Energy              =   -1687.8177392632749161 [Eh]

	 ================> DF-SCS-MP2 Energies <==================
	-----------------------------------------------------------
	 SCS Same-Spin Scale       =       0.3333333333333333 [-]
	 SCS Opposite-Spin Scale   =       1.2000000000000000 [-]
	 SCS Same-Spin Energy      =      -0.1811872565085685 [Eh]
	 SCS Opposite-Spin Energy  =      -1.9500214397156539 [Eh]
	 SCS Correlation Energy    =      -2.1312086962242223 [Eh]
	 SCS Total Energy          =   -1687.7803683235435983 [Eh]
	-----------------------------------------------------------

  Dipole Moment: [D]
     X:     2.1340      Y:     0.2390      Z:    -0.0544     Total:     2.1480

*** Psi4 exiting successfully. Buy a developer a beer!
