                               Psi4 1.4a3.dev225

  ==> Input File <==

--------------------------------------------------------------------------
#psi4
#
memory 32 gb

molecule  {
0 1
 Cl       -1.5623360     0.9145460    -1.3283100
 Cl       -1.8035240    -1.6987570    -0.1947580
 Cl       -1.5102210     0.5498050     1.5667370
  C        0.5425250    -0.2377090    -0.0306430
  C        1.3583330     0.9211750     0.0000800
  C        1.1449540    -1.5037020    -0.0241300
  C        2.7480770     0.7402810    -0.0004710
  C       -1.0729625    -0.1218360    -0.0005429
  C        0.8627320     2.3487980    -0.0134970
  C        2.5304820    -1.6481190    -0.0246080
  C        3.3427940    -0.5189970    -0.0108730
  H        0.5328240    -2.3960530    -0.0303120
  H        3.3795310     1.6262990     0.0194810
  H        0.6542430     2.6831410    -1.0334720
  H       -0.0421520     2.4939510     0.5743960
  H        1.6388160     2.9983140     0.4002560
  H        2.9642350    -2.6446820    -0.0247670
  H        4.4259130    -0.6124980    -0.0086910
units angstrom
no_reorient  #important for SAPT in psi4, default
symmetry c1  #important for SAPT in psi4, default
}

set PROPERTIES_ORIGIN ["COM"]
properties('MP2/aug-cc-pvtz', properties = ['dipole'])
--------------------------------------------------------------------------

    Molecular point group: c1
  Charge       = 0
  Multiplicity = 1
  Basis Set: AUG-CC-PVTZ
    Blend: AUG-CC-PVTZ
  Basis Set: (AUG-CC-PVTZ AUX)
    Blend: AUG-CC-PVTZ-JKFIT

    Orbital Energies [Eh]
    ---------------------

    Doubly Occupied:

       1A   -104.860372     2A   -104.858212     3A   -104.858022
       4A    -11.440107     5A    -11.277572     6A    -11.263659
       7A    -11.249235     8A    -11.247312     9A    -11.242630
      10A    -11.241920    11A    -11.228438    12A    -10.585570
      13A    -10.583204    14A    -10.583196    15A     -8.052343
      16A     -8.050226    17A     -8.050214    18A     -8.049983
      19A     -8.049969    20A     -8.047847    21A     -8.047845
      22A     -8.047793    23A     -8.047784    24A     -1.252494
      25A     -1.162430    26A     -1.115364    27A     -1.113511
      28A     -1.055346    29A     -1.028626    30A     -0.946050
      31A     -0.868538    32A     -0.820684    33A     -0.790652
      34A     -0.700727    35A     -0.663679    36A     -0.646080
      37A     -0.633772    38A     -0.615935    39A     -0.610663
      40A     -0.587367    41A     -0.579579    42A     -0.552886
      43A     -0.520581    44A     -0.507477    45A     -0.501535
      46A     -0.497259    47A     -0.491133    48A     -0.462532
      49A     -0.456226    50A     -0.445542    51A     -0.444096
      52A     -0.347819    53A     -0.336411

  @DF-RHF Final Energy: -1685.64347113716644

   => Energetics <=

    Nuclear Repulsion Energy =            901.3931627700699210
    One-Electron Energy =               -4114.6363736721777968
    Two-Electron Energy =                1527.5997397649414324
    Total Energy =                      -1685.6434711371664434
  Basis Set: (AUG-CC-PVTZ AUX)
    Blend: AUG-CC-PVTZ-RI
    Molecular point group: c1

    Geometry (in Angstrom), charge = 0, multiplicity = 1:

       Center              X                  Y                   Z               Mass
    ------------   -----------------  -----------------  -----------------  -----------------
         CL          -1.469201964073     0.935017512121    -1.329112650156    34.968852682000
         CL          -1.710389964073    -1.678285487879    -0.195560650156    34.968852682000
         CL          -1.417086964073     0.570276512121     1.565934349844    34.968852682000
         C            0.635659035927    -0.217237487879    -0.031445650156    12.000000000000
         C            1.451467035927     0.941646512121    -0.000722650156    12.000000000000
         C            1.238088035927    -1.483230487879    -0.024932650156    12.000000000000
         C            2.841211035927     0.760752512121    -0.001273650156    12.000000000000
         C           -0.979828464073    -0.101364487879    -0.001345550156    12.000000000000
         C            0.955866035927     2.369269512121    -0.014299650156    12.000000000000
         C            2.623616035927    -1.627647487879    -0.025410650156    12.000000000000
         C            3.435928035927    -0.498525487879    -0.011675650156    12.000000000000
         H            0.625958035927    -2.375581487879    -0.031114650156     1.007825032230
         H            3.472665035927     1.646770512121     0.018678349844     1.007825032230
         H            0.747377035927     2.703612512121    -1.034274650156     1.007825032230
         H            0.050982035927     2.514422512121     0.573593349844     1.007825032230
         H            1.731950035927     3.018785512121     0.399453349844     1.007825032230
         H            3.057369035927    -2.624210487879    -0.025569650156     1.007825032230
         H            4.519047035927    -0.592026487879    -0.009493650156     1.007825032230

  Basis Set: AUG-CC-PVTZ
    Blend: AUG-CC-PVTZ
  Basis Set: (AUG-CC-PVTZ AUX)
    Blend: AUG-CC-PVTZ-JKFIT
	 Reference Energy          =   -1685.6434711371664434 [Eh]
	 Singles Energy            =      -0.0000000000000000 [Eh]
	 Same-Spin Energy          =      -0.5436496026190063 [Eh]
	 Opposite-Spin Energy      =      -1.6247181073656354 [Eh]
	 Correlation Energy        =      -2.1683677099846417 [Eh]
	 Total Energy              =   -1687.8118388471511935 [Eh]

	 ================> DF-SCS-MP2 Energies <==================
	-----------------------------------------------------------
	 SCS Same-Spin Scale       =       0.3333333333333333 [-]
	 SCS Opposite-Spin Scale   =       1.2000000000000000 [-]
	 SCS Same-Spin Energy      =      -0.1812165342063354 [Eh]
	 SCS Opposite-Spin Energy  =      -1.9496617288387623 [Eh]
	 SCS Correlation Energy    =      -2.1308782630450978 [Eh]
	 SCS Total Energy          =   -1687.7743494002115767 [Eh]
	-----------------------------------------------------------

  Dipole Moment: [D]
     X:     1.7445      Y:     0.2325      Z:    -0.0501     Total:     1.7606

*** Psi4 exiting successfully. Buy a developer a beer!
