                               Psi4 1.4a3.dev225

  ==> Input File <==

--------------------------------------------------------------------------
#psi4
#
memory 32 gb

molecule  {
0 1
 Cl       -1.5623360     0.9145460    -1.3283100
 Cl       -1.8035240    -1.6987570    -0.1947580
 Cl       -1.5102210     0.5498050     1.5667370
  C        0.5425250    -0.2377090    -0.0306430
  C        1.3583330     0.9211750     0.0000800
  C        1.1449540    -1.5037020    -0.0241300
  C        2.7480770     0.7402810    -0.0004710
  C       -0.9732360    -0.1289890    -0.0024010
  C        0.8627320     2.3487980    -0.0134970
  C        2.5304820    -1.6481190    -0.0246080
  C        3.3427940    -0.5189970    -0.0108730
  H        0.5328240    -2.3960530    -0.0303120
  H        3.3795310     1.6262990     0.0194810
  H        0.6542430     2.6831410    -1.0334720
  H       -0.0005981     2.4872853     0.5473989
  H        1.6388160     2.9983140     0.4002560
  H        2.9642350    -2.6446820    -0.0247670
  H        4.4259130    -0.6124980    -0.0086910
units angstrom
no_reorient  #important for SAPT in psi4, default
symmetry c1  #important for SAPT in psi4, default
}

set PROPERTIES_ORIGIN ["COM"]
properties('MP2/aug-cc-pvtz', properties = ['dipole'])
--------------------------------------------------------------------------

    Molecular point group: c1
  Charge       = 0
  Multiplicity = 1
  Basis Set: AUG-CC-PVTZ
    Blend: AUG-CC-PVTZ
  Basis Set: (AUG-CC-PVTZ AUX)
    Blend: AUG-CC-PVTZ-JKFIT

    Orbital Energies [Eh]
    ---------------------

    Doubly Occupied:

       1A   -104.858062     2A   -104.855813     3A   -104.855705
       4A    -11.442435     5A    -11.273875     6A    -11.267080
       7A    -11.253039     8A    -11.251110     9A    -11.244633
      10A    -11.243904    11A    -11.224312    12A    -10.582650
      13A    -10.580401    14A    -10.580352    15A     -8.049343
      16A     -8.047311    17A     -8.047299    18A     -8.047108
      19A     -8.047053    20A     -8.045044    21A     -8.045006
      22A     -8.044995    23A     -8.044948    24A     -1.246401
      25A     -1.164576    26A     -1.107028    27A     -1.105063
      28A     -1.059043    29A     -1.037540    30A     -0.954684
      31A     -0.883076    32A     -0.825229    33A     -0.789441
      34A     -0.703531    35A     -0.667954    36A     -0.652435
      37A     -0.627558    38A     -0.617545    39A     -0.599818
      40A     -0.591264    41A     -0.582211    42A     -0.557612
      43A     -0.521676    44A     -0.508374    45A     -0.503990
      46A     -0.495663    47A     -0.489632    48A     -0.464133
      49A     -0.455723    50A     -0.448064    51A     -0.441785
      52A     -0.350926    53A     -0.338958

  @DF-RHF Final Energy: -1685.64890559023956

   => Energetics <=

    Nuclear Repulsion Energy =            901.6294937191454437
    One-Electron Energy =               -4115.1119771331004813
    Two-Electron Energy =                1527.8335778237153590
    Total Energy =                      -1685.6489055902395648
  Basis Set: (AUG-CC-PVTZ AUX)
    Blend: AUG-CC-PVTZ-RI
    Molecular point group: c1

    Geometry (in Angstrom), charge = 0, multiplicity = 1:

       Center              X                  Y                   Z               Mass
    ------------   -----------------  -----------------  -----------------  -----------------
         CL          -1.475157864822     0.935462565332    -1.328874598435    34.968852682000
         CL          -1.716345864822    -1.677840434668    -0.195322598435    34.968852682000
         CL          -1.423042864822     0.570721565332     1.566172401565    34.968852682000
         C            0.629703135178    -0.216792434668    -0.031207598435    12.000000000000
         C            1.445511135178     0.942091565332    -0.000484598435    12.000000000000
         C            1.232132135178    -1.482785434668    -0.024694598435    12.000000000000
         C            2.835255135178     0.761197565332    -0.001035598435    12.000000000000
         C           -0.886057864822    -0.108072434668    -0.002965598435    12.000000000000
         C            0.949910135178     2.369714565332    -0.014061598435    12.000000000000
         C            2.617660135178    -1.627202434668    -0.025172598435    12.000000000000
         C            3.429972135178    -0.498080434668    -0.011437598435    12.000000000000
         H            0.620002135178    -2.375136434668    -0.030876598435     1.007825032230
         H            3.466709135178     1.647215565332     0.018916401565     1.007825032230
         H            0.741421135178     2.704057565332    -1.034036598435     1.007825032230
         H            0.086580035178     2.508201865332     0.546834301565     1.007825032230
         H            1.725994135178     3.019230565332     0.399691401565     1.007825032230
         H            3.051413135178    -2.623765434668    -0.025331598435     1.007825032230
         H            4.513091135178    -0.591581434668    -0.009255598435     1.007825032230

  Basis Set: AUG-CC-PVTZ
    Blend: AUG-CC-PVTZ
  Basis Set: (AUG-CC-PVTZ AUX)
    Blend: AUG-CC-PVTZ-JKFIT
	 Reference Energy          =   -1685.6489055902395648 [Eh]
	 Singles Energy            =      -0.0000000000000000 [Eh]
	 Same-Spin Energy          =      -0.5434147888463868 [Eh]
	 Opposite-Spin Energy      =      -1.6245588228751005 [Eh]
	 Correlation Energy        =      -2.1679736117214872 [Eh]
	 Total Energy              =   -1687.8168792019610009 [Eh]

	 ================> DF-SCS-MP2 Energies <==================
	-----------------------------------------------------------
	 SCS Same-Spin Scale       =       0.3333333333333333 [-]
	 SCS Opposite-Spin Scale   =       1.2000000000000000 [-]
	 SCS Same-Spin Energy      =      -0.1811382629487956 [Eh]
	 SCS Opposite-Spin Energy  =      -1.9494705874501204 [Eh]
	 SCS Correlation Energy    =      -2.1306088503989158 [Eh]
	 SCS Total Energy          =   -1687.7795144406384225 [Eh]
	-----------------------------------------------------------

  Dipole Moment: [D]
     X:     2.1224      Y:     0.2429      Z:    -0.0512     Total:     2.1369

*** Psi4 exiting successfully. Buy a developer a beer!
