                               Psi4 1.4a3.dev225

  ==> Input File <==

--------------------------------------------------------------------------
#psi4
#
memory 32 gb

molecule  {
0 1
 Cl       -1.5623360     0.9145460    -1.3283100
 Cl       -1.8035240    -1.6987570    -0.1947580
 Cl       -1.5102210     0.5498050     1.5667370
  C        0.5425250    -0.2377090    -0.0306430
  C        1.3871079     0.9620508     0.0011637
  C        1.1449540    -1.5037020    -0.0241300
  C        2.7480770     0.7402810    -0.0004710
  C       -0.9732360    -0.1289890    -0.0024010
  C        0.8627320     2.3487980    -0.0134970
  C        2.5304820    -1.6481190    -0.0246080
  C        3.3427940    -0.5189970    -0.0108730
  H        0.5328240    -2.3960530    -0.0303120
  H        3.3795310     1.6262990     0.0194810
  H        0.6542430     2.6831410    -1.0334720
  H       -0.0421520     2.4939510     0.5743960
  H        1.6388160     2.9983140     0.4002560
  H        2.9642350    -2.6446820    -0.0247670
  H        4.4259130    -0.6124980    -0.0086910
units angstrom
no_reorient  #important for SAPT in psi4, default
symmetry c1  #important for SAPT in psi4, default
}

set PROPERTIES_ORIGIN ["COM"]
properties('MP2/aug-cc-pvtz', properties = ['dipole'])
--------------------------------------------------------------------------

    Molecular point group: c1
  Charge       = 0
  Multiplicity = 1
  Basis Set: AUG-CC-PVTZ
    Blend: AUG-CC-PVTZ
  Basis Set: (AUG-CC-PVTZ AUX)
    Blend: AUG-CC-PVTZ-JKFIT

    Orbital Energies [Eh]
    ---------------------

    Doubly Occupied:

       1A   -104.857771     2A   -104.855510     3A   -104.855444
       4A    -11.442316     5A    -11.277733     6A    -11.268866
       7A    -11.253487     8A    -11.251916     9A    -11.244975
      10A    -11.241581    11A    -11.228748    12A    -10.582357
      13A    -10.580149    14A    -10.580072    15A     -8.049050
      16A     -8.047017    17A     -8.047004    18A     -8.046856
      19A     -8.046771    20A     -8.044792    21A     -8.044755
      22A     -8.044716    23A     -8.044667    24A     -1.245342
      25A     -1.163417    26A     -1.106767    27A     -1.104824
      28A     -1.062058    29A     -1.036139    30A     -0.953870
      31A     -0.883871    32A     -0.817853    33A     -0.790406
      34A     -0.702828    35A     -0.667305    36A     -0.653323
      37A     -0.626853    38A     -0.615258    39A     -0.599935
      40A     -0.589136    41A     -0.586913    42A     -0.554839
      43A     -0.526186    44A     -0.506431    45A     -0.500038
      46A     -0.494918    47A     -0.488288    48A     -0.464580
      49A     -0.455566    50A     -0.447018    51A     -0.441641
      52A     -0.352055    53A     -0.336104

  @DF-RHF Final Energy: -1685.64641628173558

   => Energetics <=

    Nuclear Repulsion Energy =            900.7640235590312159
    One-Electron Energy =               -4113.4002464233171850
    Two-Electron Energy =                1526.9898065825505000
    Total Energy =                      -1685.6464162817355827
  Basis Set: (AUG-CC-PVTZ AUX)
    Blend: AUG-CC-PVTZ-RI
    Molecular point group: c1

    Geometry (in Angstrom), charge = 0, multiplicity = 1:

       Center              X                  Y                   Z               Mass
    ------------   -----------------  -----------------  -----------------  -----------------
         CL          -1.476616884797     0.933071604227    -1.329067964926    34.968852682000
         CL          -1.717804884797    -1.680231395773    -0.195515964926    34.968852682000
         CL          -1.424501884797     0.568330604227     1.565979035074    34.968852682000
         C            0.628244115203    -0.219183395773    -0.031400964926    12.000000000000
         C            1.472827015203     0.980576404227     0.000405735074    12.000000000000
         C            1.230673115203    -1.485176395773    -0.024887964926    12.000000000000
         C            2.833796115203     0.758806604227    -0.001228964926    12.000000000000
         C           -0.887516884797    -0.110463395773    -0.003158964926    12.000000000000
         C            0.948451115203     2.367323604227    -0.014254964926    12.000000000000
         C            2.616201115203    -1.629593395773    -0.025365964926    12.000000000000
         C            3.428513115203    -0.500471395773    -0.011630964926    12.000000000000
         H            0.618543115203    -2.377527395773    -0.031069964926     1.007825032230
         H            3.465250115203     1.644824604227     0.018723035074     1.007825032230
         H            0.739962115203     2.701666604227    -1.034229964926     1.007825032230
         H            0.043567115203     2.512476604227     0.573638035074     1.007825032230
         H            1.724535115203     3.016839604227     0.399498035074     1.007825032230
         H            3.049954115203    -2.626156395773    -0.025524964926     1.007825032230
         H            4.511632115203    -0.593972395773    -0.009448964926     1.007825032230

  Basis Set: AUG-CC-PVTZ
    Blend: AUG-CC-PVTZ
  Basis Set: (AUG-CC-PVTZ AUX)
    Blend: AUG-CC-PVTZ-JKFIT
	 Reference Energy          =   -1685.6464162817355827 [Eh]
	 Singles Energy            =      -0.0000000000000000 [Eh]
	 Same-Spin Energy          =      -0.5437639540625915 [Eh]
	 Opposite-Spin Energy      =      -1.6254026108870878 [Eh]
	 Correlation Energy        =      -2.1691665649496792 [Eh]
	 Total Energy              =   -1687.8155828466851744 [Eh]

	 ================> DF-SCS-MP2 Energies <==================
	-----------------------------------------------------------
	 SCS Same-Spin Scale       =       0.3333333333333333 [-]
	 SCS Opposite-Spin Scale   =       1.2000000000000000 [-]
	 SCS Same-Spin Energy      =      -0.1812546513541972 [Eh]
	 SCS Opposite-Spin Energy  =      -1.9504831330645054 [Eh]
	 SCS Correlation Energy    =      -2.1317377844187027 [Eh]
	 SCS Total Energy          =   -1687.7781540661542294 [Eh]
	-----------------------------------------------------------

  Dipole Moment: [D]
     X:     2.1219      Y:     0.2510      Z:    -0.0560     Total:     2.1374

*** Psi4 exiting successfully. Buy a developer a beer!
