                               Psi4 1.4a3.dev225

  ==> Input File <==

--------------------------------------------------------------------------
#psi4
#
memory 32 gb

molecule  {
0 1
 Cl       -1.5623360     0.9145460    -1.3283100
 Cl       -1.8035240    -1.6987570    -0.1947580
 Cl       -1.5102210     0.5498050     1.5667370
  C        0.5425250    -0.2377090    -0.0306430
  C        1.3583330     0.9211750     0.0000800
  C        1.1449540    -1.5037020    -0.0241300
  C        2.7480770     0.7402810    -0.0004710
  C       -1.0230993    -0.1254125    -0.0014719
  C        0.8627320     2.3487980    -0.0134970
  C        2.5304820    -1.6481190    -0.0246080
  C        3.3427940    -0.5189970    -0.0108730
  H        0.5328240    -2.3960530    -0.0303120
  H        3.3795310     1.6262990     0.0194810
  H        0.6542430     2.6831410    -1.0334720
  H       -0.0421520     2.4939510     0.5743960
  H        1.6388160     2.9983140     0.4002560
  H        2.9642350    -2.6446820    -0.0247670
  H        4.4259130    -0.6124980    -0.0086910
units angstrom
no_reorient  #important for SAPT in psi4, default
symmetry c1  #important for SAPT in psi4, default
}

set PROPERTIES_ORIGIN ["COM"]
properties('MP2/aug-cc-pvtz', properties = ['dipole'])
--------------------------------------------------------------------------

    Molecular point group: c1
  Charge       = 0
  Multiplicity = 1
  Basis Set: AUG-CC-PVTZ
    Blend: AUG-CC-PVTZ
  Basis Set: (AUG-CC-PVTZ AUX)
    Blend: AUG-CC-PVTZ-JKFIT

    Orbital Energies [Eh]
    ---------------------

    Doubly Occupied:

       1A   -104.859262     2A   -104.857048     3A   -104.856887
       4A    -11.441289     5A    -11.276019     6A    -11.265386
       7A    -11.251024     8A    -11.249137     9A    -11.243622
      10A    -11.242965    11A    -11.229132    12A    -10.584159
      13A    -10.581832    14A    -10.581822    15A     -8.050892
      16A     -8.048819    17A     -8.048807    18A     -8.048574
      19A     -8.048559    20A     -8.046474    21A     -8.046471
      22A     -8.046429    23A     -8.046415    24A     -1.249260
      25A     -1.163552    26A     -1.111207    27A     -1.109397
      28A     -1.056613    29A     -1.032789    30A     -0.948466
      31A     -0.875364    32A     -0.822681    33A     -0.789734
      34A     -0.701993    35A     -0.665271    36A     -0.649124
      37A     -0.630485    38A     -0.616695    39A     -0.605321
      40A     -0.587426    41A     -0.580699    42A     -0.554001
      43A     -0.520786    44A     -0.507621    45A     -0.502792
      46A     -0.496569    47A     -0.490163    48A     -0.459223
      49A     -0.457615    50A     -0.448961    51A     -0.443600
      52A     -0.349368    53A     -0.337628

  @DF-RHF Final Energy: -1685.64822340974365

   => Energetics <=

    Nuclear Repulsion Energy =            901.4288153145959086
    One-Electron Energy =               -4114.7232231989337379
    Two-Electron Energy =                1527.6461844745942926
    Total Energy =                      -1685.6482234097436503
  Basis Set: (AUG-CC-PVTZ AUX)
    Blend: AUG-CC-PVTZ-RI
    Molecular point group: c1

    Geometry (in Angstrom), charge = 0, multiplicity = 1:

       Center              X                  Y                   Z               Mass
    ------------   -----------------  -----------------  -----------------  -----------------
         CL          -1.472079222025     0.935223887024    -1.329059044037    34.968852682000
         CL          -1.713267222025    -1.678079112976    -0.195507044037    34.968852682000
         CL          -1.419964222025     0.570482887024     1.565987955963    34.968852682000
         C            0.632781777975    -0.217031112976    -0.031392044037    12.000000000000
         C            1.448589777975     0.941852887024    -0.000669044037    12.000000000000
         C            1.235210777975    -1.483024112976    -0.024879044037    12.000000000000
         C            2.838333777975     0.760958887024    -0.001220044037    12.000000000000
         C           -0.932842522025    -0.104734612976    -0.002220944037    12.000000000000
         C            0.952988777975     2.369475887024    -0.014246044037    12.000000000000
         C            2.620738777975    -1.627441112976    -0.025357044037    12.000000000000
         C            3.433050777975    -0.498319112976    -0.011622044037    12.000000000000
         H            0.623080777975    -2.375375112976    -0.031061044037     1.007825032230
         H            3.469787777975     1.646976887024     0.018731955963     1.007825032230
         H            0.744499777975     2.703818887024    -1.034221044037     1.007825032230
         H            0.048104777975     2.514628887024     0.573646955963     1.007825032230
         H            1.729072777975     3.018991887024     0.399506955963     1.007825032230
         H            3.054491777975    -2.624004112976    -0.025516044037     1.007825032230
         H            4.516169777975    -0.591820112976    -0.009440044037     1.007825032230

  Basis Set: AUG-CC-PVTZ
    Blend: AUG-CC-PVTZ
  Basis Set: (AUG-CC-PVTZ AUX)
    Blend: AUG-CC-PVTZ-JKFIT
	 Reference Energy          =   -1685.6482234097436503 [Eh]
	 Singles Energy            =      -0.0000000000000000 [Eh]
	 Same-Spin Energy          =      -0.5434923876903734 [Eh]
	 Opposite-Spin Energy      =      -1.6246637663661982 [Eh]
	 Correlation Energy        =      -2.1681561540565717 [Eh]
	 Total Energy              =   -1687.8163795638001830 [Eh]

	 ================> DF-SCS-MP2 Energies <==================
	-----------------------------------------------------------
	 SCS Same-Spin Scale       =       0.3333333333333333 [-]
	 SCS Opposite-Spin Scale   =       1.2000000000000000 [-]
	 SCS Same-Spin Energy      =      -0.1811641292301245 [Eh]
	 SCS Opposite-Spin Energy  =      -1.9495965196394378 [Eh]
	 SCS Correlation Energy    =      -2.1307606488695621 [Eh]
	 SCS Total Energy          =   -1687.7789840586131049 [Eh]
	-----------------------------------------------------------

  Dipole Moment: [D]
     X:     1.9230      Y:     0.2335      Z:    -0.0516     Total:     1.9378

*** Psi4 exiting successfully. Buy a developer a beer!
