                               Psi4 1.4a3.dev225

  ==> Input File <==

--------------------------------------------------------------------------
#psi4
#
memory 32 gb

molecule  {
0 1
 Cl       -1.5623360     0.9145460    -1.3283100
 Cl       -1.8035240    -1.6987570    -0.1947580
 Cl       -1.5102210     0.5498050     1.5667370
  C        0.5425250    -0.2377090    -0.0306430
  C        1.4158828     1.0029266     0.0022473
  C        1.1449540    -1.5037020    -0.0241300
  C        2.7480770     0.7402810    -0.0004710
  C       -0.9732360    -0.1289890    -0.0024010
  C        0.8627320     2.3487980    -0.0134970
  C        2.5304820    -1.6481190    -0.0246080
  C        3.3427940    -0.5189970    -0.0108730
  H        0.5328240    -2.3960530    -0.0303120
  H        3.3795310     1.6262990     0.0194810
  H        0.6542430     2.6831410    -1.0334720
  H       -0.0421520     2.4939510     0.5743960
  H        1.6388160     2.9983140     0.4002560
  H        2.9642350    -2.6446820    -0.0247670
  H        4.4259130    -0.6124980    -0.0086910
units angstrom
no_reorient  #important for SAPT in psi4, default
symmetry c1  #important for SAPT in psi4, default
}

set PROPERTIES_ORIGIN ["COM"]
properties('MP2/aug-cc-pvtz', properties = ['dipole'])
--------------------------------------------------------------------------

    Molecular point group: c1
  Charge       = 0
  Multiplicity = 1
  Basis Set: AUG-CC-PVTZ
    Blend: AUG-CC-PVTZ
  Basis Set: (AUG-CC-PVTZ AUX)
    Blend: AUG-CC-PVTZ-JKFIT

    Orbital Energies [Eh]
    ---------------------

    Doubly Occupied:

       1A   -104.857421     2A   -104.855356     3A   -104.855324
       4A    -11.442158     5A    -11.280653     6A    -11.270045
       7A    -11.253691     8A    -11.252509     9A    -11.245282
      10A    -11.239178    11A    -11.227828    12A    -10.582007
      13A    -10.580035    14A    -10.579922    15A     -8.048701
      16A     -8.046741    17A     -8.046668    18A     -8.046654
      19A     -8.046620    20A     -8.044679    21A     -8.044643
      22A     -8.044567    23A     -8.044518    24A     -1.244441
      25A     -1.162728    26A     -1.106629    27A     -1.104644
      28A     -1.067040    29A     -1.034221    30A     -0.956619
      31A     -0.885404    32A     -0.811897    33A     -0.790885
      34A     -0.702695    35A     -0.667239    36A     -0.654432
      37A     -0.626294    38A     -0.613298    39A     -0.600201
      40A     -0.592624    41A     -0.591212    42A     -0.554315
      43A     -0.531922    44A     -0.505314    45A     -0.496687
      46A     -0.492345    47A     -0.485915    48A     -0.464268
      49A     -0.455490    50A     -0.446571    51A     -0.441502
      52A     -0.354889    53A     -0.332165

  @DF-RHF Final Energy: -1685.63799066202569

   => Energetics <=

    Nuclear Repulsion Energy =            900.1045031404482870
    One-Electron Energy =               -4112.0668134015477335
    Two-Electron Energy =                1526.3243195990737604
    Total Energy =                      -1685.6379906620256861
  Basis Set: (AUG-CC-PVTZ AUX)
    Blend: AUG-CC-PVTZ-RI
    Molecular point group: c1

    Geometry (in Angstrom), charge = 0, multiplicity = 1:

       Center              X                  Y                   Z               Mass
    ------------   -----------------  -----------------  -----------------  -----------------
         CL          -1.478277283846     0.930712946527    -1.329130491934    34.968852682000
         CL          -1.719465283846    -1.682590053473    -0.195578491934    34.968852682000
         CL          -1.426162283846     0.565971946527     1.565916508066    34.968852682000
         C            0.626583716154    -0.221542053473    -0.031463491934    12.000000000000
         C            1.499941516154     1.019093546527     0.001426808066    12.000000000000
         C            1.229012716154    -1.487535053473    -0.024950491934    12.000000000000
         C            2.832135716154     0.756447946527    -0.001291491934    12.000000000000
         C           -0.889177283846    -0.112822053473    -0.003221491934    12.000000000000
         C            0.946790716154     2.364964946527    -0.014317491934    12.000000000000
         C            2.614540716154    -1.631952053473    -0.025428491934    12.000000000000
         C            3.426852716154    -0.502830053473    -0.011693491934    12.000000000000
         H            0.616882716154    -2.379886053473    -0.031132491934     1.007825032230
         H            3.463589716154     1.642465946527     0.018660508066     1.007825032230
         H            0.738301716154     2.699307946527    -1.034292491934     1.007825032230
         H            0.041906716154     2.510117946527     0.573575508066     1.007825032230
         H            1.722874716154     3.014480946527     0.399435508066     1.007825032230
         H            3.048293716154    -2.628515053473    -0.025587491934     1.007825032230
         H            4.509971716154    -0.596331053473    -0.009511491934     1.007825032230

  Basis Set: AUG-CC-PVTZ
    Blend: AUG-CC-PVTZ
  Basis Set: (AUG-CC-PVTZ AUX)
    Blend: AUG-CC-PVTZ-JKFIT
	 Reference Energy          =   -1685.6379906620256861 [Eh]
	 Singles Energy            =      -0.0000000000000000 [Eh]
	 Same-Spin Energy          =      -0.5439654693133389 [Eh]
	 Opposite-Spin Energy      =      -1.6261074657655616 [Eh]
	 Correlation Energy        =      -2.1700729350789008 [Eh]
	 Total Energy              =   -1687.8080635971045922 [Eh]

	 ================> DF-SCS-MP2 Energies <==================
	-----------------------------------------------------------
	 SCS Same-Spin Scale       =       0.3333333333333333 [-]
	 SCS Opposite-Spin Scale   =       1.2000000000000000 [-]
	 SCS Same-Spin Energy      =      -0.1813218231044463 [Eh]
	 SCS Opposite-Spin Energy  =      -1.9513289589186740 [Eh]
	 SCS Correlation Energy    =      -2.1326507820231204 [Eh]
	 SCS Total Energy          =   -1687.7706414440488061 [Eh]
	-----------------------------------------------------------

  Dipole Moment: [D]
     X:     2.1145      Y:     0.2785      Z:    -0.0575     Total:     2.1335

*** Psi4 exiting successfully. Buy a developer a beer!
