                               Psi4 1.4a3.dev225

  ==> Input File <==

--------------------------------------------------------------------------
#psi4
#
memory 32 gb

molecule  {
0 1
 Cl       -1.5623360     0.9145460    -1.3283100
 Cl       -1.8035240    -1.6987570    -0.1947580
 Cl       -1.5102210     0.5498050     1.5667370
  C        0.5425250    -0.2377090    -0.0306430
  C        1.3583330     0.9211750     0.0000800
  C        1.1449540    -1.5037020    -0.0241300
  C        2.7480770     0.7402810    -0.0004710
  C       -0.9732360    -0.1289890    -0.0024010
  C        0.8627320     2.3487980    -0.0134970
  C        2.5105898    -1.6460456    -0.0246011
  C        3.3427940    -0.5189970    -0.0108730
  H        0.5328240    -2.3960530    -0.0303120
  H        3.3795310     1.6262990     0.0194810
  H        0.6542430     2.6831410    -1.0334720
  H       -0.0421520     2.4939510     0.5743960
  H        1.6388160     2.9983140     0.4002560
  H        2.9642350    -2.6446820    -0.0247670
  H        4.4259130    -0.6124980    -0.0086910
units angstrom
no_reorient  #important for SAPT in psi4, default
symmetry c1  #important for SAPT in psi4, default
}

set PROPERTIES_ORIGIN ["COM"]
properties('MP2/aug-cc-pvtz', properties = ['dipole'])
--------------------------------------------------------------------------

    Molecular point group: c1
  Charge       = 0
  Multiplicity = 1
  Basis Set: AUG-CC-PVTZ
    Blend: AUG-CC-PVTZ
  Basis Set: (AUG-CC-PVTZ AUX)
    Blend: AUG-CC-PVTZ-JKFIT

    Orbital Energies [Eh]
    ---------------------

    Doubly Occupied:

       1A   -104.857996     2A   -104.855585     3A   -104.855467
       4A    -11.442290     5A    -11.273762     6A    -11.267455
       7A    -11.252385     8A    -11.250602     9A    -11.244392
      10A    -11.244284    11A    -11.229989    12A    -10.582586
      13A    -10.580166    14A    -10.580144    15A     -8.049278
      16A     -8.047247    17A     -8.047235    18A     -8.046873
      19A     -8.046843    20A     -8.044808    21A     -8.044788
      22A     -8.044771    23A     -8.044739    24A     -1.246328
      25A     -1.165495    26A     -1.106923    27A     -1.104914
      28A     -1.058668    29A     -1.037688    30A     -0.952164
      31A     -0.882298    32A     -0.824040    33A     -0.789059
      34A     -0.702943    35A     -0.667784    36A     -0.652439
      37A     -0.627429    38A     -0.616710    39A     -0.599295
      40A     -0.587117    41A     -0.582425    42A     -0.555344
      43A     -0.522826    44A     -0.508041    45A     -0.501898
      46A     -0.495877    47A     -0.488936    48A     -0.463802
      49A     -0.455557    50A     -0.447285    51A     -0.441700
      52A     -0.351261    53A     -0.339460

  @DF-RHF Final Energy: -1685.64924205195507

   => Energetics <=

    Nuclear Repulsion Energy =            901.7821170116752683
    One-Electron Energy =               -4115.4439408491261929
    Two-Electron Energy =                1528.0125817854957404
    Total Energy =                      -1685.6492420519550706
  Basis Set: (AUG-CC-PVTZ AUX)
    Blend: AUG-CC-PVTZ-RI
    Molecular point group: c1

    Geometry (in Angstrom), charge = 0, multiplicity = 1:

       Center              X                  Y                   Z               Mass
    ------------   -----------------  -----------------  -----------------  -----------------
         CL          -1.473808645444     0.935310620455    -1.329005830298    34.968852682000
         CL          -1.714996645444    -1.677992379545    -0.195453830298    34.968852682000
         CL          -1.421693645444     0.570569620455     1.566041169702    34.968852682000
         C            0.631052354556    -0.216944379545    -0.031338830298    12.000000000000
         C            1.446860354556     0.941939620455    -0.000615830298    12.000000000000
         C            1.233481354556    -1.482937379545    -0.024825830298    12.000000000000
         C            2.836604354556     0.761045620455    -0.001166830298    12.000000000000
         C           -0.884708645444    -0.108224379545    -0.003096830298    12.000000000000
         C            0.951259354556     2.369562620455    -0.014192830298    12.000000000000
         C            2.599117154556    -1.625280979545    -0.025296930298    12.000000000000
         C            3.431321354556    -0.498232379545    -0.011568830298    12.000000000000
         H            0.621351354556    -2.375288379545    -0.031007830298     1.007825032230
         H            3.468058354556     1.647063620455     0.018785169702     1.007825032230
         H            0.742770354556     2.703905620455    -1.034167830298     1.007825032230
         H            0.046375354556     2.514715620455     0.573700169702     1.007825032230
         H            1.727343354556     3.019078620455     0.399560169702     1.007825032230
         H            3.052762354556    -2.623917379545    -0.025462830298     1.007825032230
         H            4.514440354556    -0.591733379545    -0.009386830298     1.007825032230

  Basis Set: AUG-CC-PVTZ
    Blend: AUG-CC-PVTZ
  Basis Set: (AUG-CC-PVTZ AUX)
    Blend: AUG-CC-PVTZ-JKFIT
	 Reference Energy          =   -1685.6492420519550706 [Eh]
	 Singles Energy            =      -0.0000000000000000 [Eh]
	 Same-Spin Energy          =      -0.5435976441783674 [Eh]
	 Opposite-Spin Energy      =      -1.6249822093901514 [Eh]
	 Correlation Energy        =      -2.1685798535685188 [Eh]
	 Total Energy              =   -1687.8178219055234877 [Eh]

	 ================> DF-SCS-MP2 Energies <==================
	-----------------------------------------------------------
	 SCS Same-Spin Scale       =       0.3333333333333333 [-]
	 SCS Opposite-Spin Scale   =       1.2000000000000000 [-]
	 SCS Same-Spin Energy      =      -0.1811992147261225 [Eh]
	 SCS Opposite-Spin Energy  =      -1.9499786512681816 [Eh]
	 SCS Correlation Energy    =      -2.1311778659943039 [Eh]
	 SCS Total Energy          =   -1687.7804199179493025 [Eh]
	-----------------------------------------------------------

  Dipole Moment: [D]
     X:     2.1367      Y:     0.2405      Z:    -0.0545     Total:     2.1508

*** Psi4 exiting successfully. Buy a developer a beer!
