                               Psi4 1.4a3.dev225

  ==> Input File <==

--------------------------------------------------------------------------
#psi4
#
memory 32 gb

molecule  {
0 1
 Cl       -1.5623360     0.9145460    -1.3283100
 Cl       -1.8035240    -1.6987570    -0.1947580
 Cl       -1.5102210     0.5498050     1.5667370
  C        0.5425250    -0.2377090    -0.0306430
  C        1.3583330     0.9211750     0.0000800
  C        1.1449540    -1.5037020    -0.0241300
  C        2.7480770     0.7402810    -0.0004710
  C       -0.9732360    -0.1289890    -0.0024010
  C        0.8627320     2.3487980    -0.0134970
  C        2.5304820    -1.6481190    -0.0246080
  C        3.3427940    -0.5189970    -0.0108730
  H        0.5893905    -2.3135915    -0.0297407
  H        3.3795310     1.6262990     0.0194810
  H        0.6542430     2.6831410    -1.0334720
  H       -0.0421520     2.4939510     0.5743960
  H        1.6388160     2.9983140     0.4002560
  H        2.9642350    -2.6446820    -0.0247670
  H        4.4259130    -0.6124980    -0.0086910
units angstrom
no_reorient  #important for SAPT in psi4, default
symmetry c1  #important for SAPT in psi4, default
}

set PROPERTIES_ORIGIN ["COM"]
properties('MP2/aug-cc-pvtz', properties = ['dipole'])
--------------------------------------------------------------------------

    Molecular point group: c1
  Charge       = 0
  Multiplicity = 1
  Basis Set: AUG-CC-PVTZ
    Blend: AUG-CC-PVTZ
  Basis Set: (AUG-CC-PVTZ AUX)
    Blend: AUG-CC-PVTZ-JKFIT

    Orbital Energies [Eh]
    ---------------------

    Doubly Occupied:

       1A   -104.858365     2A   -104.855700     3A   -104.855563
       4A    -11.442403     5A    -11.273511     6A    -11.267003
       7A    -11.250984     8A    -11.244686     9A    -11.244187
      10A    -11.242027    11A    -11.229731    12A    -10.582906
      13A    -10.580265    14A    -10.580257    15A     -8.049609
      16A     -8.047566    17A     -8.047557    18A     -8.046970
      19A     -8.046958    20A     -8.044904    21A     -8.044903
      22A     -8.044868    23A     -8.044854    24A     -1.246511
      25A     -1.165090    26A     -1.107155    27A     -1.105029
      28A     -1.059016    29A     -1.040081    30A     -0.952099
      31A     -0.884735    32A     -0.831868    33A     -0.788755
      34A     -0.707175    35A     -0.668216    36A     -0.659489
      37A     -0.627487    38A     -0.622346    39A     -0.599927
      40A     -0.587028    41A     -0.582585    42A     -0.555157
      43A     -0.522883    44A     -0.507826    45A     -0.506519
      46A     -0.495681    47A     -0.489641    48A     -0.464345
      49A     -0.455676    50A     -0.448015    51A     -0.441855
      52A     -0.350963    53A     -0.338852

  @DF-RHF Final Energy: -1685.64391433259038

   => Energetics <=

    Nuclear Repulsion Energy =            901.9745964975737706
    One-Electron Energy =               -4115.7614577073527471
    Two-Electron Energy =                1528.1429468771887059
    Total Energy =                      -1685.6439143325903842
  Basis Set: (AUG-CC-PVTZ AUX)
    Blend: AUG-CC-PVTZ-RI
    Molecular point group: c1

    Geometry (in Angstrom), charge = 0, multiplicity = 1:

       Center              X                  Y                   Z               Mass
    ------------   -----------------  -----------------  -----------------  -----------------
         CL          -1.475230619087     0.935030635888    -1.329008200789    34.968852682000
         CL          -1.716418619087    -1.678272364112    -0.195456200789    34.968852682000
         CL          -1.423115619087     0.570289635888     1.566038799211    34.968852682000
         C            0.629630380913    -0.217224364112    -0.031341200789    12.000000000000
         C            1.445438380913     0.941659635888    -0.000618200789    12.000000000000
         C            1.232059380913    -1.483217364112    -0.024828200789    12.000000000000
         C            2.835182380913     0.760765635888    -0.001169200789    12.000000000000
         C           -0.886130619087    -0.108504364112    -0.003099200789    12.000000000000
         C            0.949837380913     2.369282635888    -0.014195200789    12.000000000000
         C            2.617587380913    -1.627634364112    -0.025306200789    12.000000000000
         C            3.429899380913    -0.498512364112    -0.011571200789    12.000000000000
         H            0.676495880913    -2.293106864112    -0.030438900789     1.007825032230
         H            3.466636380913     1.646783635888     0.018782799211     1.007825032230
         H            0.741348380913     2.703625635888    -1.034170200789     1.007825032230
         H            0.044953380913     2.514435635888     0.573697799211     1.007825032230
         H            1.725921380913     3.018798635888     0.399557799211     1.007825032230
         H            3.051340380913    -2.624197364112    -0.025465200789     1.007825032230
         H            4.513018380913    -0.592013364112    -0.009389200789     1.007825032230

  Basis Set: AUG-CC-PVTZ
    Blend: AUG-CC-PVTZ
  Basis Set: (AUG-CC-PVTZ AUX)
    Blend: AUG-CC-PVTZ-JKFIT
	 Reference Energy          =   -1685.6439143325903842 [Eh]
	 Singles Energy            =      -0.0000000000000000 [Eh]
	 Same-Spin Energy          =      -0.5431569008262704 [Eh]
	 Opposite-Spin Energy      =      -1.6242550944044236 [Eh]
	 Correlation Energy        =      -2.1674119952306938 [Eh]
	 Total Energy              =   -1687.8113263278210070 [Eh]

	 ================> DF-SCS-MP2 Energies <==================
	-----------------------------------------------------------
	 SCS Same-Spin Scale       =       0.3333333333333333 [-]
	 SCS Opposite-Spin Scale   =       1.2000000000000000 [-]
	 SCS Same-Spin Energy      =      -0.1810523002754235 [Eh]
	 SCS Opposite-Spin Energy  =      -1.9491061132853083 [Eh]
	 SCS Correlation Energy    =      -2.1301584135607317 [Eh]
	 SCS Total Energy          =   -1687.7740727461512051 [Eh]
	-----------------------------------------------------------

  Dipole Moment: [D]
     X:     2.1389      Y:     0.2334      Z:    -0.0537     Total:     2.1523

*** Psi4 exiting successfully. Buy a developer a beer!
