                               Psi4 1.4a3.dev225

  ==> Input File <==

--------------------------------------------------------------------------
#psi4
#
memory 32 gb

molecule  {
0 1
 Cl       -1.5623360     0.9145460    -1.3283100
 Cl       -1.8035240    -1.6987570    -0.1947580
 Cl       -1.5102210     0.5498050     1.5667370
  C        0.5425250    -0.2377090    -0.0306430
  C        1.3583330     0.9211750     0.0000800
  C        1.1449540    -1.5037020    -0.0241300
  C        2.7480770     0.7402810    -0.0004710
  C       -0.9732360    -0.1289890    -0.0024010
  C        0.8627320     2.3487980    -0.0134970
  C        2.5304820    -1.6481190    -0.0246080
  C        3.3427940    -0.5189970    -0.0108730
  H        0.5328240    -2.3960530    -0.0303120
  H        3.3215031     1.5448778     0.0176475
  H        0.6542430     2.6831410    -1.0334720
  H       -0.0421520     2.4939510     0.5743960
  H        1.6388160     2.9983140     0.4002560
  H        2.9642350    -2.6446820    -0.0247670
  H        4.4259130    -0.6124980    -0.0086910
units angstrom
no_reorient  #important for SAPT in psi4, default
symmetry c1  #important for SAPT in psi4, default
}

set PROPERTIES_ORIGIN ["COM"]
properties('MP2/aug-cc-pvtz', properties = ['dipole'])
--------------------------------------------------------------------------

    Molecular point group: c1
  Charge       = 0
  Multiplicity = 1
  Basis Set: AUG-CC-PVTZ
    Blend: AUG-CC-PVTZ
  Basis Set: (AUG-CC-PVTZ AUX)
    Blend: AUG-CC-PVTZ-JKFIT

    Orbital Energies [Eh]
    ---------------------

    Doubly Occupied:

       1A   -104.857810     2A   -104.855513     3A   -104.855405
       4A    -11.442101     5A    -11.273331     6A    -11.266628
       7A    -11.252843     8A    -11.250461     9A    -11.244144
      10A    -11.232208    11A    -11.230128    12A    -10.582401
      13A    -10.580104    14A    -10.580069    15A     -8.049094
      16A     -8.047063    17A     -8.047051    18A     -8.046810
      19A     -8.046768    20A     -8.044746    21A     -8.044714
      22A     -8.044709    23A     -8.044665    24A     -1.246114
      25A     -1.165045    26A     -1.106738    27A     -1.104836
      28A     -1.058238    29A     -1.040147    30A     -0.952529
      31A     -0.883061    32A     -0.831359    33A     -0.790248
      34A     -0.706811    35A     -0.667057    36A     -0.655417
      37A     -0.627297    38A     -0.625132    39A     -0.599767
      40A     -0.587344    41A     -0.582419    42A     -0.558438
      43A     -0.521300    44A     -0.508308    45A     -0.506361
      46A     -0.495429    47A     -0.488688    48A     -0.463700
      49A     -0.455477    50A     -0.447095    51A     -0.441591
      52A     -0.350651    53A     -0.338526

  @DF-RHF Final Energy: -1685.64405285754447

   => Energetics <=

    Nuclear Repulsion Energy =            902.0461311207936888
    One-Electron Energy =               -4115.9325881232380198
    Two-Electron Energy =                1528.2424041448998651
    Total Energy =                      -1685.6440528575444660
  Basis Set: (AUG-CC-PVTZ AUX)
    Blend: AUG-CC-PVTZ-RI
    Molecular point group: c1

    Geometry (in Angstrom), charge = 0, multiplicity = 1:

       Center              X                  Y                   Z               Mass
    ------------   -----------------  -----------------  -----------------  -----------------
         CL          -1.474675270153     0.935824846450    -1.328996546615    34.968852682000
         CL          -1.715863270153    -1.677478153550    -0.195444546615    34.968852682000
         CL          -1.422560270153     0.571083846450     1.566050453385    34.968852682000
         C            0.630185729847    -0.216430153550    -0.031329546615    12.000000000000
         C            1.445993729847     0.942453846450    -0.000606546615    12.000000000000
         C            1.232614729847    -1.482423153550    -0.024816546615    12.000000000000
         C            2.835737729847     0.761559846450    -0.001157546615    12.000000000000
         C           -0.885575270153    -0.107710153550    -0.003087546615    12.000000000000
         C            0.950392729847     2.370076846450    -0.014183546615    12.000000000000
         C            2.618142729847    -1.626840153550    -0.025294546615    12.000000000000
         C            3.430454729847    -0.497718153550    -0.011559546615    12.000000000000
         H            0.620484729847    -2.374774153550    -0.030998546615     1.007825032230
         H            3.409163829847     1.566156646450     0.016960953385     1.007825032230
         H            0.741903729847     2.704419846450    -1.034158546615     1.007825032230
         H            0.045508729847     2.515229846450     0.573709453385     1.007825032230
         H            1.726476729847     3.019592846450     0.399569453385     1.007825032230
         H            3.051895729847    -2.623403153550    -0.025453546615     1.007825032230
         H            4.513573729847    -0.591219153550    -0.009377546615     1.007825032230

  Basis Set: AUG-CC-PVTZ
    Blend: AUG-CC-PVTZ
  Basis Set: (AUG-CC-PVTZ AUX)
    Blend: AUG-CC-PVTZ-JKFIT
	 Reference Energy          =   -1685.6440528575444660 [Eh]
	 Singles Energy            =      -0.0000000000000000 [Eh]
	 Same-Spin Energy          =      -0.5433464876167253 [Eh]
	 Opposite-Spin Energy      =      -1.6244356391576265 [Eh]
	 Correlation Energy        =      -2.1677821267743518 [Eh]
	 Total Energy              =   -1687.8118349843189208 [Eh]

	 ================> DF-SCS-MP2 Energies <==================
	-----------------------------------------------------------
	 SCS Same-Spin Scale       =       0.3333333333333333 [-]
	 SCS Opposite-Spin Scale   =       1.2000000000000000 [-]
	 SCS Same-Spin Energy      =      -0.1811154958722418 [Eh]
	 SCS Opposite-Spin Energy  =      -1.9493227669891517 [Eh]
	 SCS Correlation Energy    =      -2.1304382628613934 [Eh]
	 SCS Total Energy          =   -1687.7744911204058553 [Eh]
	-----------------------------------------------------------

  Dipole Moment: [D]
     X:     2.1517      Y:     0.2552      Z:    -0.0535     Total:     2.1675

*** Psi4 exiting successfully. Buy a developer a beer!
