                               Psi4 1.4a3.dev225

  ==> Input File <==

--------------------------------------------------------------------------
#psi4
#
memory 32 gb

molecule  {
0 1
 Cl       -1.5623360     0.9145460    -1.3283100
 Cl       -1.8035240    -1.6987570    -0.1947580
 Cl       -1.5102210     0.5498050     1.5667370
  C        0.5425250    -0.2377090    -0.0306430
  C        1.3583330     0.9211750     0.0000800
  C        1.2308904    -1.6842957    -0.0232009
  C        2.7480770     0.7402810    -0.0004710
  C       -0.9732360    -0.1289890    -0.0024010
  C        0.8627320     2.3487980    -0.0134970
  C        2.5304820    -1.6481190    -0.0246080
  C        3.3427940    -0.5189970    -0.0108730
  H        0.5328240    -2.3960530    -0.0303120
  H        3.3795310     1.6262990     0.0194810
  H        0.6542430     2.6831410    -1.0334720
  H       -0.0421520     2.4939510     0.5743960
  H        1.6388160     2.9983140     0.4002560
  H        2.9642350    -2.6446820    -0.0247670
  H        4.4259130    -0.6124980    -0.0086910
units angstrom
no_reorient  #important for SAPT in psi4, default
symmetry c1  #important for SAPT in psi4, default
}

set PROPERTIES_ORIGIN ["COM"]
properties('MP2/aug-cc-pvtz', properties = ['dipole'])
--------------------------------------------------------------------------

    Molecular point group: c1
  Charge       = 0
  Multiplicity = 1
  Basis Set: AUG-CC-PVTZ
    Blend: AUG-CC-PVTZ
  Basis Set: (AUG-CC-PVTZ AUX)
    Blend: AUG-CC-PVTZ-JKFIT

    Orbital Energies [Eh]
    ---------------------

    Doubly Occupied:

       1A   -104.858674     2A   -104.854376     3A   -104.854325
       4A    -11.441883     5A    -11.283928     6A    -11.268109
       7A    -11.254529     8A    -11.253580     9A    -11.248599
      10A    -11.237213    11A    -11.230700    12A    -10.583262
      13A    -10.579052    14A    -10.578965    15A     -8.049961
      16A     -8.047934    17A     -8.047922    18A     -8.045756
      19A     -8.045661    20A     -8.043688    21A     -8.043651
      22A     -8.043601    23A     -8.043553    24A     -1.242989
      25A     -1.160931    26A     -1.106962    27A     -1.103779
      28A     -1.069938    29A     -1.022672    30A     -0.957543
      31A     -0.886306    32A     -0.826329    33A     -0.783775
      34A     -0.705227    35A     -0.674302    36A     -0.660101
      37A     -0.625018    38A     -0.617231    39A     -0.597431
      40A     -0.587587    41A     -0.581690    42A     -0.555907
      43A     -0.532888    44A     -0.505106    45A     -0.497104
      46A     -0.493141    47A     -0.482773    48A     -0.454949
      49A     -0.452770    50A     -0.447976    51A     -0.441374
      52A     -0.359272    53A     -0.330416

  @DF-RHF Final Energy: -1685.60824525806925

   => Energetics <=

    Nuclear Repulsion Energy =            897.8210788649527103
    One-Electron Energy =               -4107.4538277941401248
    Two-Electron Energy =                1524.0245036711182820
    Total Energy =                      -1685.6082452580692461
  Basis Set: (AUG-CC-PVTZ AUX)
    Blend: AUG-CC-PVTZ-RI
    Molecular point group: c1

    Geometry (in Angstrom), charge = 0, multiplicity = 1:

       Center              X                  Y                   Z               Mass
    ------------   -----------------  -----------------  -----------------  -----------------
         CL          -1.479915276807     0.945851066438    -1.329059044037    34.968852682000
         CL          -1.721103276807    -1.667451933562    -0.195507044037    34.968852682000
         CL          -1.427800276807     0.581110066438     1.565987955963    34.968852682000
         C            0.624945723193    -0.206403933562    -0.031392044037    12.000000000000
         C            1.440753723193     0.952480066438    -0.000669044037    12.000000000000
         C            1.313311123193    -1.652990633562    -0.023949944037    12.000000000000
         C            2.830497723193     0.771586066438    -0.001220044037    12.000000000000
         C           -0.890815276807    -0.097683933562    -0.003150044037    12.000000000000
         C            0.945152723193     2.380103066438    -0.014246044037    12.000000000000
         C            2.612902723193    -1.616813933562    -0.025357044037    12.000000000000
         C            3.425214723193    -0.487691933562    -0.011622044037    12.000000000000
         H            0.615244723193    -2.364747933562    -0.031061044037     1.007825032230
         H            3.461951723193     1.657604066438     0.018731955963     1.007825032230
         H            0.736663723193     2.714446066438    -1.034221044037     1.007825032230
         H            0.040268723193     2.525256066438     0.573646955963     1.007825032230
         H            1.721236723193     3.029619066438     0.399506955963     1.007825032230
         H            3.046655723193    -2.613376933562    -0.025516044037     1.007825032230
         H            4.508333723193    -0.581192933562    -0.009440044037     1.007825032230

  Basis Set: AUG-CC-PVTZ
    Blend: AUG-CC-PVTZ
  Basis Set: (AUG-CC-PVTZ AUX)
    Blend: AUG-CC-PVTZ-JKFIT
	 Reference Energy          =   -1685.6082452580692461 [Eh]
	 Singles Energy            =      -0.0000000000000000 [Eh]
	 Same-Spin Energy          =      -0.5434283572734754 [Eh]
	 Opposite-Spin Energy      =      -1.6273624268170102 [Eh]
	 Correlation Energy        =      -2.1707907840904856 [Eh]
	 Total Energy              =   -1687.7790360421597597 [Eh]

	 ================> DF-SCS-MP2 Energies <==================
	-----------------------------------------------------------
	 SCS Same-Spin Scale       =       0.3333333333333333 [-]
	 SCS Opposite-Spin Scale   =       1.2000000000000000 [-]
	 SCS Same-Spin Energy      =      -0.1811427857578251 [Eh]
	 SCS Opposite-Spin Energy  =      -1.9528349121804121 [Eh]
	 SCS Correlation Energy    =      -2.1339776979382372 [Eh]
	 SCS Total Energy          =   -1687.7422229560074811 [Eh]
	-----------------------------------------------------------

  Dipole Moment: [D]
     X:     2.1776      Y:     0.2761      Z:    -0.0557     Total:     2.1957

*** Psi4 exiting successfully. Buy a developer a beer!
