                               Psi4 1.4a3.dev225

  ==> Input File <==

--------------------------------------------------------------------------
#psi4
#
memory 32 gb

molecule  {
0 1
 Cl       -1.5623360     0.9145460    -1.3283100
 Cl       -1.8035240    -1.6987570    -0.1947580
 Cl       -1.5102210     0.5498050     1.5667370
  C        0.5425250    -0.2377090    -0.0306430
  C        1.3583330     0.9211750     0.0000800
  C        1.1449540    -1.5037020    -0.0241300
  C        2.7480770     0.7402810    -0.0004710
  C       -0.7737829    -0.1432950    -0.0061173
  C        0.8627320     2.3487980    -0.0134970
  C        2.5304820    -1.6481190    -0.0246080
  C        3.3427940    -0.5189970    -0.0108730
  H        0.5328240    -2.3960530    -0.0303120
  H        3.3795310     1.6262990     0.0194810
  H        0.6542430     2.6831410    -1.0334720
  H       -0.0421520     2.4939510     0.5743960
  H        1.6388160     2.9983140     0.4002560
  H        2.9642350    -2.6446820    -0.0247670
  H        4.4259130    -0.6124980    -0.0086910
units angstrom
no_reorient  #important for SAPT in psi4, default
symmetry c1  #important for SAPT in psi4, default
}

set PROPERTIES_ORIGIN ["COM"]
properties('MP2/aug-cc-pvtz', properties = ['dipole'])
--------------------------------------------------------------------------

    Molecular point group: c1
  Charge       = 0
  Multiplicity = 1
  Basis Set: AUG-CC-PVTZ
    Blend: AUG-CC-PVTZ
  Basis Set: (AUG-CC-PVTZ AUX)
    Blend: AUG-CC-PVTZ-JKFIT

    Orbital Energies [Eh]
    ---------------------

    Doubly Occupied:

       1A   -104.850111     2A   -104.845976     3A   -104.845591
       4A    -11.442612     5A    -11.281057     6A    -11.267112
       7A    -11.264986     8A    -11.261583     9A    -11.252272
      10A    -11.251867    11A    -11.234555    12A    -10.573542
      13A    -10.569795    14A    -10.569382    15A     -8.040080
      16A     -8.038188    17A     -8.038164    18A     -8.036350
      19A     -8.035932    20A     -8.034406    21A     -8.034395
      22A     -8.033989    23A     -8.033964    24A     -1.244819
      25A     -1.166506    26A     -1.089546    27A     -1.083456
      28A     -1.070743    29A     -1.059339    30A     -0.967832
      31A     -0.909888    32A     -0.837676    33A     -0.787436
      34A     -0.706257    35A     -0.679966    36A     -0.666020
      37A     -0.624335    38A     -0.622131    39A     -0.592799
      40A     -0.587080    41A     -0.567954    42A     -0.561687
      43A     -0.525803    44A     -0.511086    45A     -0.508018
      46A     -0.489611    47A     -0.481586    48A     -0.478817
      49A     -0.437796    50A     -0.432066    51A     -0.430588
      52A     -0.359432    53A     -0.347140

  @DF-RHF Final Energy: -1685.61186627810730

   => Energetics <=

    Nuclear Repulsion Energy =            901.5968941319582655
    One-Electron Energy =               -4115.0908692929433528
    Two-Electron Energy =                1527.8821088828776738
    Total Energy =                      -1685.6118662781072999
  Basis Set: (AUG-CC-PVTZ AUX)
    Blend: AUG-CC-PVTZ-RI
    Molecular point group: c1

    Geometry (in Angstrom), charge = 0, multiplicity = 1:

       Center              X                  Y                   Z               Mass
    ------------   -----------------  -----------------  -----------------  -----------------
         CL          -1.486465534870     0.936255761539    -1.328790990360    34.968852682000
         CL          -1.727653534870    -1.677047238461    -0.195238990360    34.968852682000
         CL          -1.434350534870     0.571514761539     1.566256009640    34.968852682000
         C            0.618395465130    -0.215999238461    -0.031123990360    12.000000000000
         C            1.434203465130     0.942884761539    -0.000400990360    12.000000000000
         C            1.220824465130    -1.481992238461    -0.024610990360    12.000000000000
         C            2.823947465130     0.761990761539    -0.000951990360    12.000000000000
         C           -0.697912434870    -0.121585238461    -0.006598290360    12.000000000000
         C            0.938602465130     2.370507761539    -0.013977990360    12.000000000000
         C            2.606352465130    -1.626409238461    -0.025088990360    12.000000000000
         C            3.418664465130    -0.497287238461    -0.011353990360    12.000000000000
         H            0.608694465130    -2.374343238461    -0.030792990360     1.007825032230
         H            3.455401465130     1.648008761539     0.019000009640     1.007825032230
         H            0.730113465130     2.704850761539    -1.033952990360     1.007825032230
         H            0.033718465130     2.515660761539     0.573915009640     1.007825032230
         H            1.714686465130     3.020023761539     0.399775009640     1.007825032230
         H            3.040105465130    -2.622972238461    -0.025247990360     1.007825032230
         H            4.501783465130    -0.590788238461    -0.009171990360     1.007825032230

  Basis Set: AUG-CC-PVTZ
    Blend: AUG-CC-PVTZ
  Basis Set: (AUG-CC-PVTZ AUX)
    Blend: AUG-CC-PVTZ-JKFIT
	 Reference Energy          =   -1685.6118662781072999 [Eh]
	 Singles Energy            =      -0.0000000000000000 [Eh]
	 Same-Spin Energy          =      -0.5462089766408396 [Eh]
	 Opposite-Spin Energy      =      -1.6298174338802378 [Eh]
	 Correlation Energy        =      -2.1760264105210774 [Eh]
	 Total Energy              =   -1687.7878926886282898 [Eh]

	 ================> DF-SCS-MP2 Energies <==================
	-----------------------------------------------------------
	 SCS Same-Spin Scale       =       0.3333333333333333 [-]
	 SCS Opposite-Spin Scale   =       1.2000000000000000 [-]
	 SCS Same-Spin Energy      =      -0.1820696588802798 [Eh]
	 SCS Opposite-Spin Energy  =      -1.9557809206562853 [Eh]
	 SCS Correlation Energy    =      -2.1378505795365652 [Eh]
	 SCS Total Energy          =   -1687.7497168576437616 [Eh]
	-----------------------------------------------------------

  Dipole Moment: [D]
     X:     3.4449      Y:     0.1813      Z:    -0.0776     Total:     3.4505

*** Psi4 exiting successfully. Buy a developer a beer!
