                               Psi4 1.4a3.dev225

  ==> Input File <==

--------------------------------------------------------------------------
#psi4
#
memory 32 gb

molecule  {
0 1
 Cl       -1.5623360     0.9145460    -1.3283100
 Cl       -1.8035240    -1.6987570    -0.1947580
 Cl       -1.5102210     0.5498050     1.5667370
  C        0.5425250    -0.2377090    -0.0306430
  C        1.3583330     0.9211750     0.0000800
  C        1.1449540    -1.5037020    -0.0241300
  C        2.7480770     0.7402810    -0.0004710
  C       -0.9732360    -0.1289890    -0.0024010
  C        0.8627320     2.3487980    -0.0134970
  C        2.4310208    -1.6377519    -0.0245737
  C        3.3427940    -0.5189970    -0.0108730
  H        0.5328240    -2.3960530    -0.0303120
  H        3.3795310     1.6262990     0.0194810
  H        0.6542430     2.6831410    -1.0334720
  H       -0.0421520     2.4939510     0.5743960
  H        1.6388160     2.9983140     0.4002560
  H        2.9642350    -2.6446820    -0.0247670
  H        4.4259130    -0.6124980    -0.0086910
units angstrom
no_reorient  #important for SAPT in psi4, default
symmetry c1  #important for SAPT in psi4, default
}

set PROPERTIES_ORIGIN ["COM"]
properties('MP2/aug-cc-pvtz', properties = ['dipole'])
--------------------------------------------------------------------------

    Molecular point group: c1
  Charge       = 0
  Multiplicity = 1
  Basis Set: AUG-CC-PVTZ
    Blend: AUG-CC-PVTZ
  Basis Set: (AUG-CC-PVTZ AUX)
    Blend: AUG-CC-PVTZ-JKFIT

    Orbital Energies [Eh]
    ---------------------

    Doubly Occupied:

       1A   -104.857840     2A   -104.855232     3A   -104.855101
       4A    -11.441882     5A    -11.272820     6A    -11.267808
       7A    -11.256800     8A    -11.244875     9A    -11.242624
      10A    -11.238758    11A    -11.230373    12A    -10.582438
      13A    -10.579810    14A    -10.579800    15A     -8.049129
      16A     -8.047099    17A     -8.047088    18A     -8.046513
      19A     -8.046500    20A     -8.044450    21A     -8.044446
      22A     -8.044412    23A     -8.044397    24A     -1.246340
      25A     -1.169926    26A     -1.107038    27A     -1.104599
      28A     -1.064300    29A     -1.035852    30A     -0.956298
      31A     -0.881122    32A     -0.820180    33A     -0.790019
      34A     -0.702310    35A     -0.670252    36A     -0.652615
      37A     -0.627371    38A     -0.615530    39A     -0.598942
      40A     -0.587434    41A     -0.581560    42A     -0.555277
      43A     -0.528065    44A     -0.510662    45A     -0.497740
      46A     -0.490461    47A     -0.487545    48A     -0.462053
      49A     -0.455266    50A     -0.447164    51A     -0.441492
      52A     -0.358350    53A     -0.336780

  @DF-RHF Final Energy: -1685.63561765603367

   => Energetics <=

    Nuclear Repulsion Energy =            903.1683911420198001
    One-Electron Energy =               -4118.2025402192475667
    Two-Electron Energy =                1529.3985314211943205
    Total Energy =                      -1685.6356176560336735
  Basis Set: (AUG-CC-PVTZ AUX)
    Blend: AUG-CC-PVTZ-RI
    Molecular point group: c1

    Geometry (in Angstrom), charge = 0, multiplicity = 1:

       Center              X                  Y                   Z               Mass
    ------------   -----------------  -----------------  -----------------  -----------------
         CL          -1.469217272688     0.934832048797    -1.329007411361    34.968852682000
         CL          -1.710405272688    -1.678470951203    -0.195455411361    34.968852682000
         CL          -1.417102272688     0.570091048797     1.566039588639    34.968852682000
         C            0.635643727312    -0.217422951203    -0.031340411361    12.000000000000
         C            1.451451727312     0.941461048797    -0.000617411361    12.000000000000
         C            1.238072727312    -1.483415951203    -0.024827411361    12.000000000000
         C            2.841195727312     0.760567048797    -0.001168411361    12.000000000000
         C           -0.880117272688    -0.108702951203    -0.003098411361    12.000000000000
         C            0.955850727312     2.369084048797    -0.014194411361    12.000000000000
         C            2.524139527312    -1.617465851203    -0.025271111361    12.000000000000
         C            3.435912727312    -0.498710951203    -0.011570411361    12.000000000000
         H            0.625942727312    -2.375766951203    -0.031009411361     1.007825032230
         H            3.472649727312     1.646585048797     0.018783588639     1.007825032230
         H            0.747361727312     2.703427048797    -1.034169411361     1.007825032230
         H            0.050966727312     2.514237048797     0.573698588639     1.007825032230
         H            1.731934727312     3.018600048797     0.399558588639     1.007825032230
         H            3.057353727312    -2.624395951203    -0.025464411361     1.007825032230
         H            4.519031727312    -0.592211951203    -0.009388411361     1.007825032230

  Basis Set: AUG-CC-PVTZ
    Blend: AUG-CC-PVTZ
  Basis Set: (AUG-CC-PVTZ AUX)
    Blend: AUG-CC-PVTZ-JKFIT
	 Reference Energy          =   -1685.6356176560336735 [Eh]
	 Singles Energy            =      -0.0000000000000000 [Eh]
	 Same-Spin Energy          =      -0.5436534242387698 [Eh]
	 Opposite-Spin Energy      =      -1.6254661889420465 [Eh]
	 Correlation Energy        =      -2.1691196131808166 [Eh]
	 Total Energy              =   -1687.8047372692144563 [Eh]

	 ================> DF-SCS-MP2 Energies <==================
	-----------------------------------------------------------
	 SCS Same-Spin Scale       =       0.3333333333333333 [-]
	 SCS Opposite-Spin Scale   =       1.2000000000000000 [-]
	 SCS Same-Spin Energy      =      -0.1812178080795899 [Eh]
	 SCS Opposite-Spin Energy  =      -1.9505594267304558 [Eh]
	 SCS Correlation Energy    =      -2.1317772348100457 [Eh]
	 SCS Total Energy          =   -1687.7673948908436614 [Eh]
	-----------------------------------------------------------

  Dipole Moment: [D]
     X:     2.1482      Y:     0.2830      Z:    -0.0562     Total:     2.1674

*** Psi4 exiting successfully. Buy a developer a beer!
