                               Psi4 1.4a3.dev225

  ==> Input File <==

--------------------------------------------------------------------------
#psi4
#
memory 32 gb

molecule  {
0 1
 Cl       -1.5623360     0.9145460    -1.3283100
 Cl       -1.8035240    -1.6987570    -0.1947580
 Cl       -1.5102210     0.5498050     1.5667370
  C        0.5425250    -0.2377090    -0.0306430
  C        1.3583330     0.9211750     0.0000800
  C        1.1449540    -1.5037020    -0.0241300
  C        2.7480770     0.7402810    -0.0004710
  C       -0.9732360    -0.1289890    -0.0024010
  C        0.8627320     2.3487980    -0.0134970
  C        2.5304820    -1.6481190    -0.0246080
  C        3.3427940    -0.5189970    -0.0108730
  H        0.5328240    -2.3960530    -0.0303120
  H        3.3911366     1.6425832     0.0198477
  H        0.6542430     2.6831410    -1.0334720
  H       -0.0421520     2.4939510     0.5743960
  H        1.6388160     2.9983140     0.4002560
  H        2.9642350    -2.6446820    -0.0247670
  H        4.4259130    -0.6124980    -0.0086910
units angstrom
no_reorient  #important for SAPT in psi4, default
symmetry c1  #important for SAPT in psi4, default
}

set PROPERTIES_ORIGIN ["COM"]
properties('MP2/aug-cc-pvtz', properties = ['dipole'])
--------------------------------------------------------------------------

    Molecular point group: c1
  Charge       = 0
  Multiplicity = 1
  Basis Set: AUG-CC-PVTZ
    Blend: AUG-CC-PVTZ
  Basis Set: (AUG-CC-PVTZ AUX)
    Blend: AUG-CC-PVTZ-JKFIT

    Orbital Energies [Eh]
    ---------------------

    Doubly Occupied:

       1A   -104.858089     2A   -104.855707     3A   -104.855591
       4A    -11.442454     5A    -11.274141     6A    -11.267608
       7A    -11.253214     8A    -11.251484     9A    -11.246485
      10A    -11.244913    11A    -11.229873    12A    -10.582676
      13A    -10.580288    14A    -10.580263    15A     -8.049369
      16A     -8.047337    17A     -8.047325    18A     -8.046995
      19A     -8.046963    20A     -8.044930    21A     -8.044907
      22A     -8.044893    23A     -8.044858    24A     -1.246396
      25A     -1.164625    26A     -1.106961    27A     -1.105028
      28A     -1.058110    29A     -1.037273    30A     -0.951138
      31A     -0.882399    32A     -0.823903    33A     -0.788604
      34A     -0.702619    35A     -0.667297    36A     -0.651937
      37A     -0.627500    38A     -0.616073    39A     -0.599932
      40A     -0.587067    41A     -0.581648    42A     -0.554516
      43A     -0.521101    44A     -0.507803    45A     -0.503462
      46A     -0.495766    47A     -0.488907    48A     -0.464009
      49A     -0.455673    50A     -0.447304    51A     -0.441787
      52A     -0.351148    53A     -0.339114

  @DF-RHF Final Energy: -1685.64911374851408

   => Energetics <=

    Nuclear Repulsion Energy =            901.3419781806200035
    One-Electron Energy =               -4114.5632605800092279
    Two-Electron Energy =                1527.5721686508750281
    Total Energy =                      -1685.6491137485140825
  Basis Set: (AUG-CC-PVTZ AUX)
    Blend: AUG-CC-PVTZ-RI
    Molecular point group: c1

    Geometry (in Angstrom), charge = 0, multiplicity = 1:

       Center              X                  Y                   Z               Mass
    ------------   -----------------  -----------------  -----------------  -----------------
         CL          -1.475012728964     0.935351345216    -1.329007209254    34.968852682000
         CL          -1.716200728964    -1.677951654784    -0.195455209254    34.968852682000
         CL          -1.422897728964     0.570610345216     1.566039790746    34.968852682000
         C            0.629848271036    -0.216903654784    -0.031340209254    12.000000000000
         C            1.445656271036     0.941980345216    -0.000617209254    12.000000000000
         C            1.232277271036    -1.482896654784    -0.024827209254    12.000000000000
         C            2.835400271036     0.761086345216    -0.001168209254    12.000000000000
         C           -0.885912728964    -0.108183654784    -0.003098209254    12.000000000000
         C            0.950055271036     2.369603345216    -0.014194209254    12.000000000000
         C            2.617805271036    -1.627313654784    -0.025305209254    12.000000000000
         C            3.430117271036    -0.498191654784    -0.011570209254    12.000000000000
         H            0.620147271036    -2.375247654784    -0.031009209254     1.007825032230
         H            3.478459871036     1.663388545216     0.019150490746     1.007825032230
         H            0.741566271036     2.703946345216    -1.034169209254     1.007825032230
         H            0.045171271036     2.514756345216     0.573698790746     1.007825032230
         H            1.726139271036     3.019119345216     0.399558790746     1.007825032230
         H            3.051558271036    -2.623876654784    -0.025464209254     1.007825032230
         H            4.513236271036    -0.591692654784    -0.009388209254     1.007825032230

  Basis Set: AUG-CC-PVTZ
    Blend: AUG-CC-PVTZ
  Basis Set: (AUG-CC-PVTZ AUX)
    Blend: AUG-CC-PVTZ-JKFIT
	 Reference Energy          =   -1685.6491137485140825 [Eh]
	 Singles Energy            =      -0.0000000000000000 [Eh]
	 Same-Spin Energy          =      -0.5435982485227028 [Eh]
	 Opposite-Spin Energy      =      -1.6251277674235949 [Eh]
	 Correlation Energy        =      -2.1687260159462975 [Eh]
	 Total Energy              =   -1687.8178397644603592 [Eh]

	 ================> DF-SCS-MP2 Energies <==================
	-----------------------------------------------------------
	 SCS Same-Spin Scale       =       0.3333333333333333 [-]
	 SCS Opposite-Spin Scale   =       1.2000000000000000 [-]
	 SCS Same-Spin Energy      =      -0.1811994161742342 [Eh]
	 SCS Opposite-Spin Energy  =      -1.9501533209083137 [Eh]
	 SCS Correlation Energy    =      -2.1313527370825480 [Eh]
	 SCS Total Energy          =   -1687.7804664855966621 [Eh]
	-----------------------------------------------------------

  Dipole Moment: [D]
     X:     2.1271      Y:     0.2252      Z:    -0.0543     Total:     2.1397

*** Psi4 exiting successfully. Buy a developer a beer!
