                               Psi4 1.4a3.dev225

  ==> Input File <==

--------------------------------------------------------------------------
#psi4
#
memory 32 gb

molecule  {
0 1
 Cl       -1.5623360     0.9145460    -1.3283100
 Cl       -1.8035240    -1.6987570    -0.1947580
 Cl       -1.5102210     0.5498050     1.5667370
  C        0.5425250    -0.2377090    -0.0306430
  C        1.3583330     0.9211750     0.0000800
  C        1.1449540    -1.5037020    -0.0241300
  C        2.7480770     0.7402810    -0.0004710
  C       -0.9732360    -0.1289890    -0.0024010
  C        0.8627320     2.3487980    -0.0134970
  C        2.5304820    -1.6481190    -0.0246080
  C        3.3427940    -0.5189970    -0.0108730
  H        0.5045407    -2.4372838    -0.0305976
  H        3.3795310     1.6262990     0.0194810
  H        0.6542430     2.6831410    -1.0334720
  H       -0.0421520     2.4939510     0.5743960
  H        1.6388160     2.9983140     0.4002560
  H        2.9642350    -2.6446820    -0.0247670
  H        4.4259130    -0.6124980    -0.0086910
units angstrom
no_reorient  #important for SAPT in psi4, default
symmetry c1  #important for SAPT in psi4, default
}

set PROPERTIES_ORIGIN ["COM"]
properties('MP2/aug-cc-pvtz', properties = ['dipole'])
--------------------------------------------------------------------------

    Molecular point group: c1
  Charge       = 0
  Multiplicity = 1
  Basis Set: AUG-CC-PVTZ
    Blend: AUG-CC-PVTZ
  Basis Set: (AUG-CC-PVTZ AUX)
    Blend: AUG-CC-PVTZ-JKFIT

    Orbital Energies [Eh]
    ---------------------

    Doubly Occupied:

       1A   -104.857865     2A   -104.855664     3A   -104.855562
       4A    -11.442395     5A    -11.274313     6A    -11.267654
       7A    -11.258263     8A    -11.251448     9A    -11.245006
      10A    -11.244207    11A    -11.230029    12A    -10.582475
      13A    -10.580258    14A    -10.580219    15A     -8.049163
      16A     -8.047137    17A     -8.047122    18A     -8.046965
      19A     -8.046918    20A     -8.044900    21A     -8.044863
      22A     -8.044862    23A     -8.044813    24A     -1.246279
      25A     -1.164551    26A     -1.106819    27A     -1.104980
      28A     -1.057873    29A     -1.036715    30A     -0.951058
      31A     -0.881716    32A     -0.822083    33A     -0.788942
      34A     -0.701794    35A     -0.667110    36A     -0.649294
      37A     -0.627445    38A     -0.614551    39A     -0.599897
      40A     -0.587164    41A     -0.581222    42A     -0.555334
      43A     -0.520381    44A     -0.507859    45A     -0.502778
      46A     -0.495731    47A     -0.488169    48A     -0.463640
      49A     -0.455619    50A     -0.446718    51A     -0.441676
      52A     -0.351137    53A     -0.339103

  @DF-RHF Final Energy: -1685.64710383161105

   => Energetics <=

    Nuclear Repulsion Energy =            901.2134577434632092
    One-Electron Energy =               -4114.3216453114173419
    Two-Electron Energy =                1527.4610837363431983
    Total Energy =                      -1685.6471038316110480
  Basis Set: (AUG-CC-PVTZ AUX)
    Blend: AUG-CC-PVTZ-RI
    Molecular point group: c1

    Geometry (in Angstrom), charge = 0, multiplicity = 1:

       Center              X                  Y                   Z               Mass
    ------------   -----------------  -----------------  -----------------  -----------------
         CL          -1.474819418836     0.935630075189    -1.329004048069    34.968852682000
         CL          -1.716007418836    -1.677672924811    -0.195452048069    34.968852682000
         CL          -1.422704418836     0.570889075189     1.566042951931    34.968852682000
         C            0.630041581164    -0.216624924811    -0.031337048069    12.000000000000
         C            1.445849581164     0.942259075189    -0.000614048069    12.000000000000
         C            1.232470581164    -1.482617924811    -0.024824048069    12.000000000000
         C            2.835593581164     0.761365075189    -0.001165048069    12.000000000000
         C           -0.885719418836    -0.107904924811    -0.003095048069    12.000000000000
         C            0.950248581164     2.369882075189    -0.014191048069    12.000000000000
         C            2.617998581164    -1.627034924811    -0.025302048069    12.000000000000
         C            3.430310581164    -0.497912924811    -0.011567048069    12.000000000000
         H            0.592057281164    -2.416199724811    -0.031291648069     1.007825032230
         H            3.467047581164     1.647383075189     0.018786951931     1.007825032230
         H            0.741759581164     2.704225075189    -1.034166048069     1.007825032230
         H            0.045364581164     2.515035075189     0.573701951931     1.007825032230
         H            1.726332581164     3.019398075189     0.399561951931     1.007825032230
         H            3.051751581164    -2.623597924811    -0.025461048069     1.007825032230
         H            4.513429581164    -0.591413924811    -0.009385048069     1.007825032230

  Basis Set: AUG-CC-PVTZ
    Blend: AUG-CC-PVTZ
  Basis Set: (AUG-CC-PVTZ AUX)
    Blend: AUG-CC-PVTZ-JKFIT
	 Reference Energy          =   -1685.6471038316110480 [Eh]
	 Singles Energy            =      -0.0000000000000000 [Eh]
	 Same-Spin Energy          =      -0.5437885553913440 [Eh]
	 Opposite-Spin Energy      =      -1.6255075564340309 [Eh]
	 Correlation Energy        =      -2.1692961118253749 [Eh]
	 Total Energy              =   -1687.8163999434364086 [Eh]

	 ================> DF-SCS-MP2 Energies <==================
	-----------------------------------------------------------
	 SCS Same-Spin Scale       =       0.3333333333333333 [-]
	 SCS Opposite-Spin Scale   =       1.2000000000000000 [-]
	 SCS Same-Spin Energy      =      -0.1812628517971147 [Eh]
	 SCS Opposite-Spin Energy  =      -1.9506090677208370 [Eh]
	 SCS Correlation Energy    =      -2.1318719195179514 [Eh]
	 SCS Total Energy          =   -1687.7789757511291100 [Eh]
	-----------------------------------------------------------

  Dipole Moment: [D]
     X:     2.1294      Y:     0.2337      Z:    -0.0544     Total:     2.1428

*** Psi4 exiting successfully. Buy a developer a beer!
