                               Psi4 1.4a3.dev225

  ==> Input File <==

--------------------------------------------------------------------------
#psi4
#
memory 32 gb

molecule  {
0 1
 Cl       -1.5623360     0.9145460    -1.3283100
 Cl       -1.8035240    -1.6987570    -0.1947580
 Cl       -1.5102210     0.5498050     1.5667370
  C        0.5425250    -0.2377090    -0.0306430
  C        1.3007832     0.8394234    -0.0020873
  C        1.1449540    -1.5037020    -0.0241300
  C        2.7480770     0.7402810    -0.0004710
  C       -0.9732360    -0.1289890    -0.0024010
  C        0.8627320     2.3487980    -0.0134970
  C        2.5304820    -1.6481190    -0.0246080
  C        3.3427940    -0.5189970    -0.0108730
  H        0.5328240    -2.3960530    -0.0303120
  H        3.3795310     1.6262990     0.0194810
  H        0.6542430     2.6831410    -1.0334720
  H       -0.0421520     2.4939510     0.5743960
  H        1.6388160     2.9983140     0.4002560
  H        2.9642350    -2.6446820    -0.0247670
  H        4.4259130    -0.6124980    -0.0086910
units angstrom
no_reorient  #important for SAPT in psi4, default
symmetry c1  #important for SAPT in psi4, default
}

set PROPERTIES_ORIGIN ["COM"]
properties('MP2/aug-cc-pvtz', properties = ['dipole'])
--------------------------------------------------------------------------

    Molecular point group: c1
  Charge       = 0
  Multiplicity = 1
  Basis Set: AUG-CC-PVTZ
    Blend: AUG-CC-PVTZ
  Basis Set: (AUG-CC-PVTZ AUX)
    Blend: AUG-CC-PVTZ-JKFIT

    Orbital Energies [Eh]
    ---------------------

    Doubly Occupied:

       1A   -104.858362     2A   -104.856035     3A   -104.855776
       4A    -11.442355     5A    -11.264611     6A    -11.262605
       7A    -11.252176     8A    -11.250327     9A    -11.249072
      10A    -11.244636    11A    -11.232725    12A    -10.582962
      13A    -10.580574    14A    -10.580452    15A     -8.049652
      16A     -8.047624    17A     -8.047613    18A     -8.047274
      19A     -8.047161    20A     -8.045219    21A     -8.045169
      22A     -8.045094    23A     -8.045056    24A     -1.248861
      25A     -1.169015    26A     -1.107262    27A     -1.105313
      28A     -1.058085    29A     -1.034720    30A     -0.946672
      31A     -0.880100    32A     -0.839823    33A     -0.784149
      34A     -0.704687    35A     -0.666503    36A     -0.650474
      37A     -0.628906    38A     -0.623026    39A     -0.599887
      40A     -0.583733    41A     -0.573784    42A     -0.555759
      43A     -0.523068    44A     -0.510229    45A     -0.499308
      46A     -0.496346    47A     -0.488615    48A     -0.458929
      49A     -0.455775    50A     -0.447311    51A     -0.441909
      52A     -0.359796    53A     -0.336716

  @DF-RHF Final Energy: -1685.63821880752334

   => Energetics <=

    Nuclear Repulsion Energy =            902.9439933607528701
    One-Electron Energy =               -4117.7418409183492258
    Two-Electron Energy =                1529.1596287500731250
    Total Energy =                      -1685.6382188075233444
  Basis Set: (AUG-CC-PVTZ AUX)
    Blend: AUG-CC-PVTZ-RI
    Molecular point group: c1

    Geometry (in Angstrom), charge = 0, multiplicity = 1:

       Center              X                  Y                   Z               Mass
    ------------   -----------------  -----------------  -----------------  -----------------
         CL          -1.471635687650     0.940147577326    -1.328880372360    34.968852682000
         CL          -1.712823687650    -1.673155422674    -0.195328372360    34.968852682000
         CL          -1.419520687650     0.575406577326     1.566166627640    34.968852682000
         C            0.633225312350    -0.212107422674    -0.031213372360    12.000000000000
         C            1.391483512350     0.865024977326    -0.002657672360    12.000000000000
         C            1.235654312350    -1.478100422674    -0.024700372360    12.000000000000
         C            2.838777312350     0.765882577326    -0.001041372360    12.000000000000
         C           -0.882535687650    -0.103387422674    -0.002971372360    12.000000000000
         C            0.953432312350     2.374399577326    -0.014067372360    12.000000000000
         C            2.621182312350    -1.622517422674    -0.025178372360    12.000000000000
         C            3.433494312350    -0.493395422674    -0.011443372360    12.000000000000
         H            0.623524312350    -2.370451422674    -0.030882372360     1.007825032230
         H            3.470231312350     1.651900577326     0.018910627640     1.007825032230
         H            0.744943312350     2.708742577326    -1.034042372360     1.007825032230
         H            0.048548312350     2.519552577326     0.573825627640     1.007825032230
         H            1.729516312350     3.023915577326     0.399685627640     1.007825032230
         H            3.054935312350    -2.619080422674    -0.025337372360     1.007825032230
         H            4.516613312350    -0.586896422674    -0.009261372360     1.007825032230

  Basis Set: AUG-CC-PVTZ
    Blend: AUG-CC-PVTZ
  Basis Set: (AUG-CC-PVTZ AUX)
    Blend: AUG-CC-PVTZ-JKFIT
	 Reference Energy          =   -1685.6382188075233444 [Eh]
	 Singles Energy            =      -0.0000000000000000 [Eh]
	 Same-Spin Energy          =      -0.5429522148236651 [Eh]
	 Opposite-Spin Energy      =      -1.6248731811424812 [Eh]
	 Correlation Energy        =      -2.1678253959661462 [Eh]
	 Total Energy              =   -1687.8060442034895914 [Eh]

	 ================> DF-SCS-MP2 Energies <==================
	-----------------------------------------------------------
	 SCS Same-Spin Scale       =       0.3333333333333333 [-]
	 SCS Opposite-Spin Scale   =       1.2000000000000000 [-]
	 SCS Same-Spin Energy      =      -0.1809840716078883 [Eh]
	 SCS Opposite-Spin Energy  =      -1.9498478173709775 [Eh]
	 SCS Correlation Energy    =      -2.1308318889788658 [Eh]
	 SCS Total Energy          =   -1687.7690506965022905 [Eh]
	-----------------------------------------------------------

  Dipole Moment: [D]
     X:     2.1561      Y:     0.2107      Z:    -0.0498     Total:     2.1670

*** Psi4 exiting successfully. Buy a developer a beer!
