                               Psi4 1.4a3.dev225

  ==> Input File <==

--------------------------------------------------------------------------
#psi4
#
memory 32 gb

molecule  {
0 1
 Cl       -1.5623360     0.9145460    -1.3283100
 Cl       -1.8035240    -1.6987570    -0.1947580
 Cl       -1.5102210     0.5498050     1.5667370
  C        0.5425250    -0.2377090    -0.0306430
  C        1.3583330     0.9211750     0.0000800
  C        1.1449540    -1.5037020    -0.0241300
  C        2.7480770     0.7402810    -0.0004710
  C       -0.9732360    -0.1289890    -0.0024010
  C        0.8627320     2.3487980    -0.0134970
  C        2.5304820    -1.6481190    -0.0246080
  C        3.3427940    -0.5189970    -0.0108730
  H        0.5611073    -2.3548222    -0.0300264
  H        3.3795310     1.6262990     0.0194810
  H        0.6542430     2.6831410    -1.0334720
  H       -0.0421520     2.4939510     0.5743960
  H        1.6388160     2.9983140     0.4002560
  H        2.9642350    -2.6446820    -0.0247670
  H        4.4259130    -0.6124980    -0.0086910
units angstrom
no_reorient  #important for SAPT in psi4, default
symmetry c1  #important for SAPT in psi4, default
}

set PROPERTIES_ORIGIN ["COM"]
properties('MP2/aug-cc-pvtz', properties = ['dipole'])
--------------------------------------------------------------------------

    Molecular point group: c1
  Charge       = 0
  Multiplicity = 1
  Basis Set: AUG-CC-PVTZ
    Blend: AUG-CC-PVTZ
  Basis Set: (AUG-CC-PVTZ AUX)
    Blend: AUG-CC-PVTZ-JKFIT

    Orbital Energies [Eh]
    ---------------------

    Doubly Occupied:

       1A   -104.858202     2A   -104.855681     3A   -104.855555
       4A    -11.442390     5A    -11.273722     6A    -11.267198
       7A    -11.251119     8A    -11.247830     9A    -11.244539
      10A    -11.244164    11A    -11.229815    12A    -10.582767
      13A    -10.580254    14A    -10.580238    15A     -8.049464
      16A     -8.047427    17A     -8.047417    18A     -8.046960
      19A     -8.046938    20A     -8.044895    21A     -8.044882
      22A     -8.044858    23A     -8.044833    24A     -1.246417
      25A     -1.164816    26A     -1.107027    27A     -1.105006
      28A     -1.058453    29A     -1.038768    30A     -0.951650
      31A     -0.883429    32A     -0.828173    33A     -0.788800
      34A     -0.704954    35A     -0.667532    36A     -0.655912
      37A     -0.627465    38A     -0.620257    39A     -0.599912
      40A     -0.587062    41A     -0.582249    42A     -0.555199
      43A     -0.521960    44A     -0.507766    45A     -0.505482
      46A     -0.495689    47A     -0.489333    48A     -0.464179
      49A     -0.455652    50A     -0.447684    51A     -0.441805
      52A     -0.350985    53A     -0.338914

  @DF-RHF Final Energy: -1685.64906685487699

   => Energetics <=

    Nuclear Repulsion Energy =            901.7060386658647531
    One-Electron Energy =               -4115.2628564220694898
    Two-Electron Energy =                1527.9077509013275176
    Total Energy =                      -1685.6490668548769918
  Basis Set: (AUG-CC-PVTZ AUX)
    Blend: AUG-CC-PVTZ-RI
    Molecular point group: c1

    Geometry (in Angstrom), charge = 0, multiplicity = 1:

       Center              X                  Y                   Z               Mass
    ------------   -----------------  -----------------  -----------------  -----------------
         CL          -1.475093552660     0.935230448665    -1.329006816226    34.968852682000
         CL          -1.716281552660    -1.678072551335    -0.195454816226    34.968852682000
         CL          -1.422978552660     0.570489448665     1.566040183774    34.968852682000
         C            0.629767447340    -0.217024551335    -0.031339816226    12.000000000000
         C            1.445575447340     0.941859448665    -0.000616816226    12.000000000000
         C            1.232196447340    -1.483017551335    -0.024826816226    12.000000000000
         C            2.835319447340     0.760965448665    -0.001167816226    12.000000000000
         C           -0.885993552660    -0.108304551335    -0.003097816226    12.000000000000
         C            0.949974447340     2.369482448665    -0.014193816226    12.000000000000
         C            2.617724447340    -1.627434551335    -0.025304816226    12.000000000000
         C            3.430036447340    -0.498312551335    -0.011569816226    12.000000000000
         H            0.648349747340    -2.334137751335    -0.030723216226     1.007825032230
         H            3.466773447340     1.646983448665     0.018784183774     1.007825032230
         H            0.741485447340     2.703825448665    -1.034168816226     1.007825032230
         H            0.045090447340     2.514635448665     0.573699183774     1.007825032230
         H            1.726058447340     3.018998448665     0.399559183774     1.007825032230
         H            3.051477447340    -2.623997551335    -0.025463816226     1.007825032230
         H            4.513155447340    -0.591813551335    -0.009387816226     1.007825032230

  Basis Set: AUG-CC-PVTZ
    Blend: AUG-CC-PVTZ
  Basis Set: (AUG-CC-PVTZ AUX)
    Blend: AUG-CC-PVTZ-JKFIT
	 Reference Energy          =   -1685.6490668548769918 [Eh]
	 Singles Energy            =      -0.0000000000000000 [Eh]
	 Same-Spin Energy          =      -0.5433356618586727 [Eh]
	 Opposite-Spin Energy      =      -1.6245484447170104 [Eh]
	 Correlation Energy        =      -2.1678841065756833 [Eh]
	 Total Energy              =   -1687.8169509614526760 [Eh]

	 ================> DF-SCS-MP2 Energies <==================
	-----------------------------------------------------------
	 SCS Same-Spin Scale       =       0.3333333333333333 [-]
	 SCS Opposite-Spin Scale   =       1.2000000000000000 [-]
	 SCS Same-Spin Energy      =      -0.1811118872862242 [Eh]
	 SCS Opposite-Spin Energy  =      -1.9494581336604124 [Eh]
	 SCS Correlation Energy    =      -2.1305700209466365 [Eh]
	 SCS Total Energy          =   -1687.7796368758235985 [Eh]
	-----------------------------------------------------------

  Dipole Moment: [D]
     X:     2.1355      Y:     0.2313      Z:    -0.0539     Total:     2.1487

*** Psi4 exiting successfully. Buy a developer a beer!
