                               Psi4 1.4a3.dev225

  ==> Input File <==

--------------------------------------------------------------------------
#psi4
#
memory 32 gb

molecule  {
0 1
 Cl       -1.5623360     0.9145460    -1.3283100
 Cl       -1.8035240    -1.6987570    -0.1947580
 Cl       -1.5102210     0.5498050     1.5667370
  C        0.5425250    -0.2377090    -0.0306430
  C        1.3583330     0.9211750     0.0000800
  C        1.1449540    -1.5037020    -0.0241300
  C        2.7480770     0.7402810    -0.0004710
  C       -0.9732360    -0.1289890    -0.0024010
  C        0.8627320     2.3487980    -0.0134970
  C        2.5304820    -1.6481190    -0.0246080
  C        3.3427940    -0.5189970    -0.0108730
  H        0.5328240    -2.3960530    -0.0303120
  H        3.3795310     1.6262990     0.0194810
  H        0.6542430     2.6831410    -1.0334720
  H       -0.2083675     2.5206137     0.6823844
  H        1.6388160     2.9983140     0.4002560
  H        2.9642350    -2.6446820    -0.0247670
  H        4.4259130    -0.6124980    -0.0086910
units angstrom
no_reorient  #important for SAPT in psi4, default
symmetry c1  #important for SAPT in psi4, default
}

set PROPERTIES_ORIGIN ["COM"]
properties('MP2/aug-cc-pvtz', properties = ['dipole'])
--------------------------------------------------------------------------

    Molecular point group: c1
  Charge       = 0
  Multiplicity = 1
  Basis Set: AUG-CC-PVTZ
    Blend: AUG-CC-PVTZ
  Basis Set: (AUG-CC-PVTZ AUX)
    Blend: AUG-CC-PVTZ-JKFIT

    Orbital Energies [Eh]
    ---------------------

    Doubly Occupied:

       1A   -104.857963     2A   -104.855078     3A   -104.854946
       4A    -11.442233     5A    -11.274732     6A    -11.269089
       7A    -11.253688     8A    -11.252123     9A    -11.249947
      10A    -11.245685    11A    -11.245557    12A    -10.582551
      13A    -10.579711    14A    -10.579642    15A     -8.049243
      16A     -8.047211    17A     -8.047199    18A     -8.046395
      19A     -8.046348    20A     -8.044356    21A     -8.044296
      22A     -8.044280    23A     -8.044246    24A     -1.246146
      25A     -1.165275    26A     -1.106583    27A     -1.104675
      28A     -1.056370    29A     -1.038318    30A     -0.942792
      31A     -0.880614    32A     -0.824404    33A     -0.787309
      34A     -0.702706    35A     -0.665625    36A     -0.652452
      37A     -0.627144    38A     -0.618344    39A     -0.600486
      40A     -0.584568    41A     -0.576393    42A     -0.543439
      43A     -0.518720    44A     -0.505370    45A     -0.503905
      46A     -0.495902    47A     -0.482909    48A     -0.463099
      49A     -0.455259    50A     -0.442019    51A     -0.440421
      52A     -0.351698    53A     -0.339221

  @DF-RHF Final Energy: -1685.62813358217136

   => Energetics <=

    Nuclear Repulsion Energy =            900.8523036701394631
    One-Electron Energy =               -4113.6035065101987129
    Two-Electron Energy =                1527.1230692578878916
    Total Energy =                      -1685.6281335821713583
  Basis Set: (AUG-CC-PVTZ AUX)
    Blend: AUG-CC-PVTZ-RI
    Molecular point group: c1

    Geometry (in Angstrom), charge = 0, multiplicity = 1:

       Center              X                  Y                   Z               Mass
    ------------   -----------------  -----------------  -----------------  -----------------
         CL          -1.474150969939     0.935301048789    -1.329528766995    34.968852682000
         CL          -1.715338969939    -1.678001951211    -0.195976766995    34.968852682000
         CL          -1.422035969939     0.570560048789     1.565518233005    34.968852682000
         C            0.630710030061    -0.216953951211    -0.031861766995    12.000000000000
         C            1.446518030061     0.941930048789    -0.001138766995    12.000000000000
         C            1.233139030061    -1.482946951211    -0.025348766995    12.000000000000
         C            2.836262030061     0.761036048789    -0.001689766995    12.000000000000
         C           -0.885050969939    -0.108233951211    -0.003619766995    12.000000000000
         C            0.950917030061     2.369553048789    -0.014715766995    12.000000000000
         C            2.618667030061    -1.627363951211    -0.025826766995    12.000000000000
         C            3.430979030061    -0.498241951211    -0.012091766995    12.000000000000
         H            0.621009030061    -2.375297951211    -0.031530766995     1.007825032230
         H            3.467716030061     1.647054048789     0.018262233005     1.007825032230
         H            0.742428030061     2.703896048789    -1.034690766995     1.007825032230
         H           -0.120182469939     2.541368748789     0.681165633005     1.007825032230
         H            1.727001030061     3.019069048789     0.399037233005     1.007825032230
         H            3.052420030061    -2.623926951211    -0.025985766995     1.007825032230
         H            4.514098030061    -0.591742951211    -0.009909766995     1.007825032230

  Basis Set: AUG-CC-PVTZ
    Blend: AUG-CC-PVTZ
  Basis Set: (AUG-CC-PVTZ AUX)
    Blend: AUG-CC-PVTZ-JKFIT
	 Reference Energy          =   -1685.6281335821713583 [Eh]
	 Singles Energy            =      -0.0000000000000000 [Eh]
	 Same-Spin Energy          =      -0.5442352996721942 [Eh]
	 Opposite-Spin Energy      =      -1.6272560951821804 [Eh]
	 Correlation Energy        =      -2.1714913948543746 [Eh]
	 Total Energy              =   -1687.7996249770258146 [Eh]

	 ================> DF-SCS-MP2 Energies <==================
	-----------------------------------------------------------
	 SCS Same-Spin Scale       =       0.3333333333333333 [-]
	 SCS Opposite-Spin Scale   =       1.2000000000000000 [-]
	 SCS Same-Spin Energy      =      -0.1814117665573980 [Eh]
	 SCS Opposite-Spin Energy  =      -1.9527073142186164 [Eh]
	 SCS Correlation Energy    =      -2.1341190807760144 [Eh]
	 SCS Total Energy          =   -1687.7622526629472759 [Eh]
	-----------------------------------------------------------

  Dipole Moment: [D]
     X:     2.1834      Y:     0.1613      Z:    -0.0723     Total:     2.1905

*** Psi4 exiting successfully. Buy a developer a beer!
