                               Psi4 1.4a3.dev225

  ==> Input File <==

--------------------------------------------------------------------------
#psi4
#
memory 32 gb

molecule  {
0 1
 Cl       -1.5623360     0.9145460    -1.3283100
 Cl       -1.8035240    -1.6987570    -0.1947580
 Cl       -1.5102210     0.5498050     1.5667370
  C        0.5425250    -0.2377090    -0.0306430
  C        1.3468230     0.9048247    -0.0003535
  C        1.1449540    -1.5037020    -0.0241300
  C        2.7480770     0.7402810    -0.0004710
  C       -0.9732360    -0.1289890    -0.0024010
  C        0.8627320     2.3487980    -0.0134970
  C        2.5304820    -1.6481190    -0.0246080
  C        3.3427940    -0.5189970    -0.0108730
  H        0.5328240    -2.3960530    -0.0303120
  H        3.3795310     1.6262990     0.0194810
  H        0.6542430     2.6831410    -1.0334720
  H       -0.0421520     2.4939510     0.5743960
  H        1.6388160     2.9983140     0.4002560
  H        2.9642350    -2.6446820    -0.0247670
  H        4.4259130    -0.6124980    -0.0086910
units angstrom
no_reorient  #important for SAPT in psi4, default
symmetry c1  #important for SAPT in psi4, default
}

set PROPERTIES_ORIGIN ["COM"]
properties('MP2/aug-cc-pvtz', properties = ['dipole'])
--------------------------------------------------------------------------

    Molecular point group: c1
  Charge       = 0
  Multiplicity = 1
  Basis Set: AUG-CC-PVTZ
    Blend: AUG-CC-PVTZ
  Basis Set: (AUG-CC-PVTZ AUX)
    Blend: AUG-CC-PVTZ-JKFIT

    Orbital Energies [Eh]
    ---------------------

    Doubly Occupied:

       1A   -104.858120     2A   -104.855735     3A   -104.855597
       4A    -11.442396     5A    -11.272277     6A    -11.266711
       7A    -11.252963     8A    -11.251007     9A    -11.245250
      10A    -11.244709    11A    -11.230434    12A    -10.582709
      13A    -10.580294    14A    -10.580286    15A     -8.049402
      16A     -8.047370    17A     -8.047358    18A     -8.046998
      19A     -8.046989    20A     -8.044933    21A     -8.044932
      22A     -8.044895    23A     -8.044884    24A     -1.246778
      25A     -1.165297    26A     -1.106979    27A     -1.105054
      28A     -1.057077    29A     -1.037860    30A     -0.950333
      31A     -0.881918    32A     -0.827877    33A     -0.788058
      34A     -0.703400    35A     -0.667149    36A     -0.651997
      37A     -0.627709    38A     -0.618673    39A     -0.599905
      40A     -0.586348    41A     -0.579971    42A     -0.555394
      43A     -0.520086    44A     -0.508157    45A     -0.504873
      46A     -0.495878    47A     -0.488940    48A     -0.463416
      49A     -0.455660    50A     -0.447321    51A     -0.441784
      52A     -0.351692    53A     -0.339345

  @DF-RHF Final Energy: -1685.64954280817324

   => Energetics <=

    Nuclear Repulsion Energy =            901.7381969213661250
    One-Electron Energy =               -4115.3531218548268953
    Two-Electron Energy =                1527.9653821252875332
    Total Energy =                      -1685.6495428081732371
  Basis Set: (AUG-CC-PVTZ AUX)
    Blend: AUG-CC-PVTZ-RI
    Molecular point group: c1

    Geometry (in Angstrom), charge = 0, multiplicity = 1:

       Center              X                  Y                   Z               Mass
    ------------   -----------------  -----------------  -----------------  -----------------
         CL          -1.474292323820     0.936373723853    -1.328980417882    34.968852682000
         CL          -1.715480323820    -1.676929276147    -0.195428417882    34.968852682000
         CL          -1.422177323820     0.571632723853     1.566066582118    34.968852682000
         C            0.630568676180    -0.215881276147    -0.031313417882    12.000000000000
         C            1.434866676180     0.926652423853    -0.001023917882    12.000000000000
         C            1.232997676180    -1.481874276147    -0.024800417882    12.000000000000
         C            2.836120676180     0.762108723853    -0.001141417882    12.000000000000
         C           -0.885192323820    -0.107161276147    -0.003071417882    12.000000000000
         C            0.950775676180     2.370625723853    -0.014167417882    12.000000000000
         C            2.618525676180    -1.626291276147    -0.025278417882    12.000000000000
         C            3.430837676180    -0.497169276147    -0.011543417882    12.000000000000
         H            0.620867676180    -2.374225276147    -0.030982417882     1.007825032230
         H            3.467574676180     1.648126723853     0.018810582118     1.007825032230
         H            0.742286676180     2.704968723853    -1.034142417882     1.007825032230
         H            0.045891676180     2.515778723853     0.573725582118     1.007825032230
         H            1.726859676180     3.020141723853     0.399585582118     1.007825032230
         H            3.052278676179    -2.622854276147    -0.025437417882     1.007825032230
         H            4.513956676180    -0.590670276147    -0.009361417882     1.007825032230

  Basis Set: AUG-CC-PVTZ
    Blend: AUG-CC-PVTZ
  Basis Set: (AUG-CC-PVTZ AUX)
    Blend: AUG-CC-PVTZ-JKFIT
	 Reference Energy          =   -1685.6495428081732371 [Eh]
	 Singles Energy            =      -0.0000000000000000 [Eh]
	 Same-Spin Energy          =      -0.5434482836898699 [Eh]
	 Opposite-Spin Energy      =      -1.6248692803323168 [Eh]
	 Correlation Energy        =      -2.1683175640221868 [Eh]
	 Total Energy              =   -1687.8178603721953550 [Eh]

	 ================> DF-SCS-MP2 Energies <==================
	-----------------------------------------------------------
	 SCS Same-Spin Scale       =       0.3333333333333333 [-]
	 SCS Opposite-Spin Scale   =       1.2000000000000000 [-]
	 SCS Same-Spin Energy      =      -0.1811494278966233 [Eh]
	 SCS Opposite-Spin Energy  =      -1.9498431363987800 [Eh]
	 SCS Correlation Energy    =      -2.1309925642954033 [Eh]
	 SCS Total Energy          =   -1687.7805353724686483 [Eh]
	-----------------------------------------------------------

  Dipole Moment: [D]
     X:     2.1370      Y:     0.2254      Z:    -0.0533     Total:     2.1495

*** Psi4 exiting successfully. Buy a developer a beer!
