                               Psi4 1.4a3.dev225

  ==> Input File <==

--------------------------------------------------------------------------
#psi4
#
memory 32 gb

molecule  {
0 1
 Cl       -1.5623360     0.9145460    -1.3283100
 Cl       -1.8035240    -1.6987570    -0.1947580
 Cl       -1.5102210     0.5498050     1.5667370
  C        0.5425250    -0.2377090    -0.0306430
  C        1.3583330     0.9211750     0.0000800
  C        1.1449540    -1.5037020    -0.0241300
  C        2.7480770     0.7402810    -0.0004710
  C       -0.9732360    -0.1289890    -0.0024010
  C        0.8627320     2.3487980    -0.0134970
  C        2.5304820    -1.6481190    -0.0246080
  C        3.3427940    -0.5189970    -0.0108730
  H        0.5328240    -2.3960530    -0.0303120
  H        3.3795310     1.6262990     0.0194810
  H        0.6542430     2.6831410    -1.0334720
  H       -0.0421520     2.4939510     0.5743960
  H        1.6388160     2.9983140     0.4002560
  H        2.9642350    -2.6446820    -0.0247670
  H        4.4059871    -0.6107779    -0.0087311
units angstrom
no_reorient  #important for SAPT in psi4, default
symmetry c1  #important for SAPT in psi4, default
}

set PROPERTIES_ORIGIN ["COM"]
properties('MP2/aug-cc-pvtz', properties = ['dipole'])
--------------------------------------------------------------------------

    Molecular point group: c1
  Charge       = 0
  Multiplicity = 1
  Basis Set: AUG-CC-PVTZ
    Blend: AUG-CC-PVTZ
  Basis Set: (AUG-CC-PVTZ AUX)
    Blend: AUG-CC-PVTZ-JKFIT

    Orbital Energies [Eh]
    ---------------------

    Doubly Occupied:

       1A   -104.857992     2A   -104.855632     3A   -104.855517
       4A    -11.442344     5A    -11.273933     6A    -11.267292
       7A    -11.253008     8A    -11.248996     9A    -11.244592
      10A    -11.243983    11A    -11.229845    12A    -10.582580
      13A    -10.580214    14A    -10.580188    15A     -8.049273
      16A     -8.047241    17A     -8.047229    18A     -8.046921
      19A     -8.046888    20A     -8.044856    21A     -8.044832
      22A     -8.044819    23A     -8.044783    24A     -1.246295
      25A     -1.164652    26A     -1.106875    27A     -1.104953
      28A     -1.058180    29A     -1.038015    30A     -0.951244
      31A     -0.883251    32A     -0.824856    33A     -0.789611
      34A     -0.703935    35A     -0.667183    36A     -0.654491
      37A     -0.627410    38A     -0.617917    39A     -0.599839
      40A     -0.587049    41A     -0.581805    42A     -0.555380
      43A     -0.522365    44A     -0.507729    45A     -0.504087
      46A     -0.495636    47A     -0.488827    48A     -0.463941
      49A     -0.455595    50A     -0.447239    51A     -0.441710
      52A     -0.350964    53A     -0.338898

  @DF-RHF Final Energy: -1685.64990294283371

   => Energetics <=

    Nuclear Repulsion Energy =            901.5659335864085051
    One-Electron Energy =               -4115.0058978036167900
    Two-Electron Energy =                1527.7900612743746933
    Total Energy =                      -1685.6499029428337053
  Basis Set: (AUG-CC-PVTZ AUX)
    Blend: AUG-CC-PVTZ-RI
    Molecular point group: c1

    Geometry (in Angstrom), charge = 0, multiplicity = 1:

       Center              X                  Y                   Z               Mass
    ------------   -----------------  -----------------  -----------------  -----------------
         CL          -1.474859920582     0.935421925955    -1.329005237814    34.968852682000
         CL          -1.716047920582    -1.677881074045    -0.195453237814    34.968852682000
         CL          -1.422744920582     0.570680925955     1.566041762186    34.968852682000
         C            0.630001079418    -0.216833074045    -0.031338237814    12.000000000000
         C            1.445809079418     0.942050925955    -0.000615237814    12.000000000000
         C            1.232430079418    -1.482826074045    -0.024825237814    12.000000000000
         C            2.835553079418     0.761156925955    -0.001166237814    12.000000000000
         C           -0.885759920582    -0.108113074045    -0.003096237814    12.000000000000
         C            0.950208079418     2.369673925955    -0.014192237814    12.000000000000
         C            2.617958079418    -1.627243074045    -0.025303237814    12.000000000000
         C            3.430270079418    -0.498121074045    -0.011568237814    12.000000000000
         H            0.620300079418    -2.375177074045    -0.031007237814     1.007825032230
         H            3.467007079418     1.647174925955     0.018785762186     1.007825032230
         H            0.741719079418     2.704016925955    -1.034167237814     1.007825032230
         H            0.045324079418     2.514826925955     0.573700762186     1.007825032230
         H            1.726292079418     3.019189925955     0.399560762186     1.007825032230
         H            3.051711079418    -2.623806074045    -0.025462237814     1.007825032230
         H            4.493463179418    -0.589901974045    -0.009426337814     1.007825032230

  Basis Set: AUG-CC-PVTZ
    Blend: AUG-CC-PVTZ
  Basis Set: (AUG-CC-PVTZ AUX)
    Blend: AUG-CC-PVTZ-JKFIT
	 Reference Energy          =   -1685.6499029428337053 [Eh]
	 Singles Energy            =      -0.0000000000000000 [Eh]
	 Same-Spin Energy          =      -0.5435124466760878 [Eh]
	 Opposite-Spin Energy      =      -1.6248257144991043 [Eh]
	 Correlation Energy        =      -2.1683381611751922 [Eh]
	 Total Energy              =   -1687.8182411040088482 [Eh]

	 ================> DF-SCS-MP2 Energies <==================
	-----------------------------------------------------------
	 SCS Same-Spin Scale       =       0.3333333333333333 [-]
	 SCS Opposite-Spin Scale   =       1.2000000000000000 [-]
	 SCS Same-Spin Energy      =      -0.1811708155586959 [Eh]
	 SCS Opposite-Spin Energy  =      -1.9497908573989251 [Eh]
	 SCS Correlation Energy    =      -2.1309616729576208 [Eh]
	 SCS Total Energy          =   -1687.7808646157914154 [Eh]
	-----------------------------------------------------------

  Dipole Moment: [D]
     X:     2.1395      Y:     0.2301      Z:    -0.0541     Total:     2.1526

*** Psi4 exiting successfully. Buy a developer a beer!
