                               Psi4 1.4a3.dev225

  ==> Input File <==

--------------------------------------------------------------------------
#psi4
#
memory 32 gb

molecule  {
0 1
 Cl       -1.5623360     0.9145460    -1.3283100
 Cl       -1.8035240    -1.6987570    -0.1947580
 Cl       -1.5102210     0.5498050     1.5667370
  C        0.5425250    -0.2377090    -0.0306430
  C        1.3583330     0.9211750     0.0000800
  C        1.1449540    -1.5037020    -0.0241300
  C        2.7480770     0.7402810    -0.0004710
  C       -0.9732360    -0.1289890    -0.0024010
  C        0.8627320     2.3487980    -0.0134970
  C        2.4807514    -1.6429355    -0.0245908
  C        3.3427940    -0.5189970    -0.0108730
  H        0.5328240    -2.3960530    -0.0303120
  H        3.3795310     1.6262990     0.0194810
  H        0.6542430     2.6831410    -1.0334720
  H       -0.0421520     2.4939510     0.5743960
  H        1.6388160     2.9983140     0.4002560
  H        2.9642350    -2.6446820    -0.0247670
  H        4.4259130    -0.6124980    -0.0086910
units angstrom
no_reorient  #important for SAPT in psi4, default
symmetry c1  #important for SAPT in psi4, default
}

set PROPERTIES_ORIGIN ["COM"]
properties('MP2/aug-cc-pvtz', properties = ['dipole'])
--------------------------------------------------------------------------

    Molecular point group: c1
  Charge       = 0
  Multiplicity = 1
  Basis Set: AUG-CC-PVTZ
    Blend: AUG-CC-PVTZ
  Basis Set: (AUG-CC-PVTZ AUX)
    Blend: AUG-CC-PVTZ-JKFIT

    Orbital Energies [Eh]
    ---------------------

    Doubly Occupied:

       1A   -104.857935     2A   -104.855454     3A   -104.855332
       4A    -11.442139     5A    -11.273408     6A    -11.267553
       7A    -11.254058     8A    -11.246663     9A    -11.244525
      10A    -11.243539    11A    -11.230118    12A    -10.582528
      13A    -10.580034    14A    -10.580017    15A     -8.049220
      16A     -8.047189    17A     -8.047178    18A     -8.046740
      19A     -8.046716    20A     -8.044675    21A     -8.044661
      22A     -8.044638    23A     -8.044612    24A     -1.246319
      25A     -1.166949    26A     -1.106946    27A     -1.104796
      28A     -1.060197    29A     -1.037339    30A     -0.953595
      31A     -0.881963    32A     -0.822661    33A     -0.789403
      34A     -0.702635    35A     -0.668684    36A     -0.652534
      37A     -0.627398    38A     -0.615817    39A     -0.598761
      40A     -0.587170    41A     -0.582728    42A     -0.555387
      43A     -0.525072    44A     -0.508778    45A     -0.498498
      46A     -0.495517    47A     -0.488954    48A     -0.463410
      49A     -0.455443    50A     -0.447280    51A     -0.441623
      52A     -0.352978    53A     -0.339078

  @DF-RHF Final Energy: -1685.64641093241403

   => Energetics <=

    Nuclear Repulsion Energy =            902.2882049647197391
    One-Electron Energy =               -4116.4555386976844602
    Two-Electron Energy =                1528.5209228005508066
    Total Energy =                      -1685.6464109324140281
  Basis Set: (AUG-CC-PVTZ AUX)
    Blend: AUG-CC-PVTZ-RI
    Molecular point group: c1

    Geometry (in Angstrom), charge = 0, multiplicity = 1:

       Center              X                  Y                   Z               Mass
    ------------   -----------------  -----------------  -----------------  -----------------
         CL          -1.472086879218     0.935131158247    -1.329006424639    34.968852682000
         CL          -1.713274879218    -1.678171841753    -0.195454424639    34.968852682000
         CL          -1.419971879218     0.570390158247     1.566040575361    34.968852682000
         C            0.632774120782    -0.217123841753    -0.031339424639    12.000000000000
         C            1.448582120782     0.941760158247    -0.000616424639    12.000000000000
         C            1.235203120782    -1.483116841753    -0.024826424639    12.000000000000
         C            2.838326120782     0.760866158247    -0.001167424639    12.000000000000
         C           -0.882986879218    -0.108403841753    -0.003097424639    12.000000000000
         C            0.952981120782     2.369383158247    -0.014193424639    12.000000000000
         C            2.571000520782    -1.622350341753    -0.025287224639    12.000000000000
         C            3.433043120782    -0.498411841753    -0.011569424639    12.000000000000
         H            0.623073120782    -2.375467841753    -0.031008424639     1.007825032230
         H            3.469780120782     1.646884158247     0.018784575361     1.007825032230
         H            0.744492120782     2.703726158247    -1.034168424639     1.007825032230
         H            0.048097120782     2.514536158247     0.573699575361     1.007825032230
         H            1.729065120782     3.018899158247     0.399559575361     1.007825032230
         H            3.054484120782    -2.624096841753    -0.025463424639     1.007825032230
         H            4.516162120782    -0.591912841753    -0.009387424639     1.007825032230

  Basis Set: AUG-CC-PVTZ
    Blend: AUG-CC-PVTZ
  Basis Set: (AUG-CC-PVTZ AUX)
    Blend: AUG-CC-PVTZ-JKFIT
	 Reference Energy          =   -1685.6464109324140281 [Eh]
	 Singles Energy            =      -0.0000000000000000 [Eh]
	 Same-Spin Energy          =      -0.5436454236457851 [Eh]
	 Opposite-Spin Energy      =      -1.6250844767576960 [Eh]
	 Correlation Energy        =      -2.1687299004034810 [Eh]
	 Total Energy              =   -1687.8151408328174057 [Eh]

	 ================> DF-SCS-MP2 Energies <==================
	-----------------------------------------------------------
	 SCS Same-Spin Scale       =       0.3333333333333333 [-]
	 SCS Opposite-Spin Scale   =       1.2000000000000000 [-]
	 SCS Same-Spin Energy      =      -0.1812151412152617 [Eh]
	 SCS Opposite-Spin Energy  =      -1.9501013721092351 [Eh]
	 SCS Correlation Energy    =      -2.1313165133244967 [Eh]
	 SCS Total Energy          =   -1687.7777274457384920 [Eh]
	-----------------------------------------------------------

  Dipole Moment: [D]
     X:     2.1422      Y:     0.2552      Z:    -0.0551     Total:     2.1580

*** Psi4 exiting successfully. Buy a developer a beer!
