                               Psi4 1.4a3.dev225

  ==> Input File <==

--------------------------------------------------------------------------
#psi4
#
memory 32 gb

molecule  {
0 1
 Cl       -1.5623360     0.9145460    -1.3283100
 Cl       -1.8035240    -1.6987570    -0.1947580
 Cl       -1.5102210     0.5498050     1.5667370
  C        0.5425250    -0.2377090    -0.0306430
  C        1.3583330     0.9211750     0.0000800
  C        1.0590176    -1.3231083    -0.0250591
  C        2.7480770     0.7402810    -0.0004710
  C       -0.9732360    -0.1289890    -0.0024010
  C        0.8627320     2.3487980    -0.0134970
  C        2.5304820    -1.6481190    -0.0246080
  C        3.3427940    -0.5189970    -0.0108730
  H        0.5328240    -2.3960530    -0.0303120
  H        3.3795310     1.6262990     0.0194810
  H        0.6542430     2.6831410    -1.0334720
  H       -0.0421520     2.4939510     0.5743960
  H        1.6388160     2.9983140     0.4002560
  H        2.9642350    -2.6446820    -0.0247670
  H        4.4259130    -0.6124980    -0.0086910
units angstrom
no_reorient  #important for SAPT in psi4, default
symmetry c1  #important for SAPT in psi4, default
}

set PROPERTIES_ORIGIN ["COM"]
properties('MP2/aug-cc-pvtz', properties = ['dipole'])
--------------------------------------------------------------------------

    Molecular point group: c1
  Charge       = 0
  Multiplicity = 1
  Basis Set: AUG-CC-PVTZ
    Blend: AUG-CC-PVTZ
  Basis Set: (AUG-CC-PVTZ AUX)
    Blend: AUG-CC-PVTZ-JKFIT

    Orbital Energies [Eh]
    ---------------------

    Doubly Occupied:

       1A   -104.857048     2A   -104.857019     3A   -104.856572
       4A    -11.442162     5A    -11.266200     6A    -11.254185
       7A    -11.252669     8A    -11.248495     9A    -11.246319
      10A    -11.241201    11A    -11.228722    12A    -10.581607
      13A    -10.581534    14A    -10.581242    15A     -8.048285
      16A     -8.048239    17A     -8.047953    18A     -8.046257
      19A     -8.046245    20A     -8.046190    21A     -8.046142
      22A     -8.045894    23A     -8.045858    24A     -1.252997
      25A     -1.177416    26A     -1.107240    27A     -1.106058
      28A     -1.064838    29A     -1.047199    30A     -0.940637
      31A     -0.880298    32A     -0.831464    33A     -0.790170
      34A     -0.702972    35A     -0.673698    36A     -0.641578
      37A     -0.631499    38A     -0.625358    39A     -0.599182
      40A     -0.587712    41A     -0.568354    42A     -0.555143
      43A     -0.519675    44A     -0.516123    45A     -0.497853
      46A     -0.496951    47A     -0.476514    48A     -0.464314
      49A     -0.456289    50A     -0.442678    51A     -0.437929
      52A     -0.381150    53A     -0.324103

  @DF-RHF Final Energy: -1685.58906517488435

   => Energetics <=

    Nuclear Repulsion Energy =            905.6997032764809319
    One-Electron Energy =               -4123.1506733492133208
    Two-Electron Energy =                1531.8619048978478077
    Total Energy =                      -1685.5890651748843538
  Basis Set: (AUG-CC-PVTZ AUX)
    Blend: AUG-CC-PVTZ-RI
    Molecular point group: c1

    Geometry (in Angstrom), charge = 0, multiplicity = 1:

       Center              X                  Y                   Z               Mass
    ------------   -----------------  -----------------  -----------------  -----------------
         CL          -1.469997694689     0.925009457415    -1.328951820258    34.968852682000
         CL          -1.711185694689    -1.688293542585    -0.195399820258    34.968852682000
         CL          -1.417882694689     0.560268457415     1.566095179742    34.968852682000
         C            0.634863305311    -0.227245542585    -0.031284820258    12.000000000000
         C            1.450671305311     0.931638457415    -0.000561820258    12.000000000000
         C            1.151355905311    -1.312644842585    -0.025700920258    12.000000000000
         C            2.840415305311     0.750744457415    -0.001112820258    12.000000000000
         C           -0.880897694689    -0.118525542585    -0.003042820258    12.000000000000
         C            0.955070305311     2.359261457415    -0.014138820258    12.000000000000
         C            2.622820305311    -1.637655542585    -0.025249820258    12.000000000000
         C            3.435132305311    -0.508533542585    -0.011514820258    12.000000000000
         H            0.625162305311    -2.385589542585    -0.030953820258     1.007825032230
         H            3.471869305311     1.636762457415     0.018839179742     1.007825032230
         H            0.746581305311     2.693604457415    -1.034113820258     1.007825032230
         H            0.050186305311     2.504414457415     0.573754179742     1.007825032230
         H            1.731154305311     3.008777457415     0.399614179742     1.007825032230
         H            3.056573305311    -2.634218542585    -0.025408820258     1.007825032230
         H            4.518251305311    -0.602034542585    -0.009332820258     1.007825032230

  Basis Set: AUG-CC-PVTZ
    Blend: AUG-CC-PVTZ
  Basis Set: (AUG-CC-PVTZ AUX)
    Blend: AUG-CC-PVTZ-JKFIT
	 Reference Energy          =   -1685.5890651748843538 [Eh]
	 Singles Energy            =      -0.0000000000000000 [Eh]
	 Same-Spin Energy          =      -0.5429901506468228 [Eh]
	 Opposite-Spin Energy      =      -1.6268253860921420 [Eh]
	 Correlation Energy        =      -2.1698155367389647 [Eh]
	 Total Energy              =   -1687.7588807116233056 [Eh]

	 ================> DF-SCS-MP2 Energies <==================
	-----------------------------------------------------------
	 SCS Same-Spin Scale       =       0.3333333333333333 [-]
	 SCS Opposite-Spin Scale   =       1.2000000000000000 [-]
	 SCS Same-Spin Energy      =      -0.1809967168822743 [Eh]
	 SCS Opposite-Spin Energy  =      -1.9521904633105702 [Eh]
	 SCS Correlation Energy    =      -2.1331871801928446 [Eh]
	 SCS Total Energy          =   -1687.7222523550772166 [Eh]
	-----------------------------------------------------------

  Dipole Moment: [D]
     X:     2.1226      Y:     0.1506      Z:    -0.0509     Total:     2.1285

*** Psi4 exiting successfully. Buy a developer a beer!
