                               Psi4 1.4a3.dev225

  ==> Input File <==

--------------------------------------------------------------------------
#psi4
#
memory 32 gb

molecule  {
0 1
 Cl       -1.5623360     0.9145460    -1.3283100
 Cl       -1.8035240    -1.6987570    -0.1947580
 Cl       -1.5102210     0.5498050     1.5667370
  C        0.5425250    -0.2377090    -0.0306430
  C        1.4371703     0.8614088     0.0017397
  C        1.1449540    -1.5037020    -0.0241300
  C        2.7480770     0.7402810    -0.0004710
  C       -0.9732360    -0.1289890    -0.0024010
  C        0.8627320     2.3487980    -0.0134970
  C        2.5304820    -1.6481190    -0.0246080
  C        3.3427940    -0.5189970    -0.0108730
  H        0.5328240    -2.3960530    -0.0303120
  H        3.3795310     1.6262990     0.0194810
  H        0.6542430     2.6831410    -1.0334720
  H       -0.0421520     2.4939510     0.5743960
  H        1.6388160     2.9983140     0.4002560
  H        2.9642350    -2.6446820    -0.0247670
  H        4.4259130    -0.6124980    -0.0086910
units angstrom
no_reorient  #important for SAPT in psi4, default
symmetry c1  #important for SAPT in psi4, default
}

set PROPERTIES_ORIGIN ["COM"]
properties('MP2/aug-cc-pvtz', properties = ['dipole'])
--------------------------------------------------------------------------

    Molecular point group: c1
  Charge       = 0
  Multiplicity = 1
  Basis Set: AUG-CC-PVTZ
    Blend: AUG-CC-PVTZ
  Basis Set: (AUG-CC-PVTZ AUX)
    Blend: AUG-CC-PVTZ-JKFIT

    Orbital Energies [Eh]
    ---------------------

    Doubly Occupied:

       1A   -104.859503     2A   -104.855924     3A   -104.855553
       4A    -11.444772     5A    -11.273448     6A    -11.260020
       7A    -11.253756     8A    -11.252135     9A    -11.244128
      10A    -11.234470    11A    -11.230106    12A    -10.584030
      13A    -10.580460    14A    -10.580229    15A     -8.050724
      16A     -8.048682    17A     -8.048667    18A     -8.047159
      19A     -8.046938    20A     -8.045095    21A     -8.045048
      22A     -8.044862    23A     -8.044827    24A     -1.246588
      25A     -1.173114    26A     -1.107146    27A     -1.105076
      28A     -1.053023    29A     -1.041237    30A     -0.943931
      31A     -0.888011    32A     -0.823097    33A     -0.795441
      34A     -0.704429    35A     -0.667662    36A     -0.650742
      37A     -0.627926    38A     -0.623395    39A     -0.600222
      40A     -0.581112    41A     -0.578074    42A     -0.549023
      43A     -0.529095    44A     -0.510251    45A     -0.498611
      46A     -0.489610    47A     -0.484626    48A     -0.464176
      49A     -0.455954    50A     -0.447672    51A     -0.442009
      52A     -0.356324    53A     -0.343717

  @DF-RHF Final Energy: -1685.64004184331839

   => Energetics <=

    Nuclear Repulsion Energy =            901.4369944897380265
    One-Electron Energy =               -4114.7304015827503463
    Two-Electron Energy =                1527.6533652496939339
    Total Energy =                      -1685.6400418433183859
  Basis Set: (AUG-CC-PVTZ AUX)
    Blend: AUG-CC-PVTZ-RI
    Molecular point group: c1

    Geometry (in Angstrom), charge = 0, multiplicity = 1:

       Center              X                  Y                   Z               Mass
    ------------   -----------------  -----------------  -----------------  -----------------
         CL          -1.479505637194     0.938878953031    -1.329101201874    34.968852682000
         CL          -1.720693637194    -1.674424046969    -0.195549201874    34.968852682000
         CL          -1.427390637194     0.574137953031     1.565945798126    34.968852682000
         C            0.625355362806    -0.213376046969    -0.031434201874    12.000000000000
         C            1.520000662806     0.885741753031     0.000948498126    12.000000000000
         C            1.227784362806    -1.479369046969    -0.024921201874    12.000000000000
         C            2.830907362806     0.764613953031    -0.001262201874    12.000000000000
         C           -0.890405637194    -0.104656046969    -0.003192201874    12.000000000000
         C            0.945562362806     2.373130953031    -0.014288201874    12.000000000000
         C            2.613312362806    -1.623786046969    -0.025399201874    12.000000000000
         C            3.425624362806    -0.494664046969    -0.011664201874    12.000000000000
         H            0.615654362806    -2.371720046969    -0.031103201874     1.007825032230
         H            3.462361362806     1.650631953031     0.018689798126     1.007825032230
         H            0.737073362806     2.707473953031    -1.034263201874     1.007825032230
         H            0.040678362806     2.518283953031     0.573604798126     1.007825032230
         H            1.721646362806     3.022646953031     0.399464798126     1.007825032230
         H            3.047065362806    -2.620349046969    -0.025558201874     1.007825032230
         H            4.508743362806    -0.588165046969    -0.009482201874     1.007825032230

  Basis Set: AUG-CC-PVTZ
    Blend: AUG-CC-PVTZ
  Basis Set: (AUG-CC-PVTZ AUX)
    Blend: AUG-CC-PVTZ-JKFIT
	 Reference Energy          =   -1685.6400418433183859 [Eh]
	 Singles Energy            =      -0.0000000000000000 [Eh]
	 Same-Spin Energy          =      -0.5427459297510386 [Eh]
	 Opposite-Spin Energy      =      -1.6243346430429320 [Eh]
	 Correlation Energy        =      -2.1670805727939708 [Eh]
	 Total Energy              =   -1687.8071224161124064 [Eh]

	 ================> DF-SCS-MP2 Energies <==================
	-----------------------------------------------------------
	 SCS Same-Spin Scale       =       0.3333333333333333 [-]
	 SCS Opposite-Spin Scale   =       1.2000000000000000 [-]
	 SCS Same-Spin Energy      =      -0.1809153099170129 [Eh]
	 SCS Opposite-Spin Energy  =      -1.9492015716515183 [Eh]
	 SCS Correlation Energy    =      -2.1301168815685312 [Eh]
	 SCS Total Energy          =   -1687.7701587248868691 [Eh]
	-----------------------------------------------------------

  Dipole Moment: [D]
     X:     2.1203      Y:     0.0950      Z:    -0.0476     Total:     2.1229

*** Psi4 exiting successfully. Buy a developer a beer!
