                               Psi4 1.4a3.dev225

  ==> Input File <==

--------------------------------------------------------------------------
#psi4
#
memory 32 gb

molecule  {
0 1
 Cl       -1.5623360     0.9145460    -1.3283100
 Cl       -1.8035240    -1.6987570    -0.1947580
 Cl       -1.5102210     0.5498050     1.5667370
  C        0.5425250    -0.2377090    -0.0306430
  C        1.2327502     1.0001546    -0.0026874
  C        1.1449540    -1.5037020    -0.0241300
  C        2.7480770     0.7402810    -0.0004710
  C       -0.9732360    -0.1289890    -0.0024010
  C        0.8627320     2.3487980    -0.0134970
  C        2.5304820    -1.6481190    -0.0246080
  C        3.3427940    -0.5189970    -0.0108730
  H        0.5328240    -2.3960530    -0.0303120
  H        3.3795310     1.6262990     0.0194810
  H        0.6542430     2.6831410    -1.0334720
  H       -0.0421520     2.4939510     0.5743960
  H        1.6388160     2.9983140     0.4002560
  H        2.9642350    -2.6446820    -0.0247670
  H        4.4259130    -0.6124980    -0.0086910
units angstrom
no_reorient  #important for SAPT in psi4, default
symmetry c1  #important for SAPT in psi4, default
}

set PROPERTIES_ORIGIN ["COM"]
properties('MP2/aug-cc-pvtz', properties = ['dipole'])
--------------------------------------------------------------------------

    Molecular point group: c1
  Charge       = 0
  Multiplicity = 1
  Basis Set: AUG-CC-PVTZ
    Blend: AUG-CC-PVTZ
  Basis Set: (AUG-CC-PVTZ AUX)
    Blend: AUG-CC-PVTZ-JKFIT

    Orbital Energies [Eh]
    ---------------------

    Doubly Occupied:

       1A   -104.855583     2A   -104.855501     3A   -104.855153
       4A    -11.438801     5A    -11.279081     6A    -11.275971
       7A    -11.256118     8A    -11.252516     9A    -11.249723
      10A    -11.245385    11A    -11.229215    12A    -10.580267
      13A    -10.580242    14A    -10.579755    15A     -8.046956
      16A     -8.046945    17A     -8.046451    18A     -8.044943
      19A     -8.044933    20A     -8.044900    21A     -8.044859
      22A     -8.044412    23A     -8.044358    24A     -1.246387
      25A     -1.156705    26A     -1.107366    27A     -1.104796
      28A     -1.073921    29A     -1.033703    30A     -0.959145
      31A     -0.873315    32A     -0.827111    33A     -0.779351
      34A     -0.702117    35A     -0.668337    36A     -0.658276
      37A     -0.627427    38A     -0.619630    39A     -0.603699
      40A     -0.594785    41A     -0.584338    42A     -0.565328
      43A     -0.524346    44A     -0.506231    45A     -0.500966
      46A     -0.491481    47A     -0.486796    48A     -0.456128
      49A     -0.455139    50A     -0.445037    51A     -0.441227
      52A     -0.352949    53A     -0.324093

  @DF-RHF Final Energy: -1685.62041572618477

   => Energetics <=

    Nuclear Repulsion Energy =            901.8860611073218934
    One-Electron Energy =               -4115.5885576563559880
    Two-Electron Energy =                1528.0820808228493206
    Total Energy =                      -1685.6204157261847740
  Basis Set: (AUG-CC-PVTZ AUX)
    Blend: AUG-CC-PVTZ-RI
    Molecular point group: c1

    Geometry (in Angstrom), charge = 0, multiplicity = 1:

       Center              X                  Y                   Z               Mass
    ------------   -----------------  -----------------  -----------------  -----------------
         CL          -1.467709977100     0.930872899339    -1.328845744769    34.968852682000
         CL          -1.708897977100    -1.682430100661    -0.195293744769    34.968852682000
         CL          -1.415594977100     0.566131899339     1.566201255231    34.968852682000
         C            0.637151022900    -0.221382100661    -0.031178744769    12.000000000000
         C            1.327376222900     1.016481499339    -0.003223144769    12.000000000000
         C            1.239580022900    -1.487375100661    -0.024665744769    12.000000000000
         C            2.842703022900     0.756607899339    -0.001006744769    12.000000000000
         C           -0.878609977100    -0.112662100661    -0.002936744769    12.000000000000
         C            0.957358022900     2.365124899339    -0.014032744769    12.000000000000
         C            2.625108022900    -1.631792100661    -0.025143744769    12.000000000000
         C            3.437420022900    -0.502670100661    -0.011408744769    12.000000000000
         H            0.627450022900    -2.379726100661    -0.030847744769     1.007825032230
         H            3.474157022900     1.642625899339     0.018945255231     1.007825032230
         H            0.748869022900     2.699467899339    -1.034007744769     1.007825032230
         H            0.052474022900     2.510277899339     0.573860255231     1.007825032230
         H            1.733442022900     3.014640899339     0.399720255231     1.007825032230
         H            3.058861022900    -2.628355100661    -0.025302744769     1.007825032230
         H            4.520539022900    -0.596171100661    -0.009226744769     1.007825032230

  Basis Set: AUG-CC-PVTZ
    Blend: AUG-CC-PVTZ
  Basis Set: (AUG-CC-PVTZ AUX)
    Blend: AUG-CC-PVTZ-JKFIT
	 Reference Energy          =   -1685.6204157261847740 [Eh]
	 Singles Energy            =      -0.0000000000000000 [Eh]
	 Same-Spin Energy          =      -0.5458774533160635 [Eh]
	 Opposite-Spin Energy      =      -1.6287328914579278 [Eh]
	 Correlation Energy        =      -2.1746103447739911 [Eh]
	 Total Energy              =   -1687.7950260709587837 [Eh]

	 ================> DF-SCS-MP2 Energies <==================
	-----------------------------------------------------------
	 SCS Same-Spin Scale       =       0.3333333333333333 [-]
	 SCS Opposite-Spin Scale   =       1.2000000000000000 [-]
	 SCS Same-Spin Energy      =      -0.1819591511053545 [Eh]
	 SCS Opposite-Spin Energy  =      -1.9544794697495131 [Eh]
	 SCS Correlation Energy    =      -2.1364386208548676 [Eh]
	 SCS Total Energy          =   -1687.7568543470397344 [Eh]
	-----------------------------------------------------------

  Dipole Moment: [D]
     X:     2.1448      Y:     0.4391      Z:    -0.0669     Total:     2.1903

*** Psi4 exiting successfully. Buy a developer a beer!
