                               Psi4 1.4a3.dev225

  ==> Input File <==

--------------------------------------------------------------------------
#psi4
#
memory 32 gb

molecule  {
0 1
 Cl       -1.5623360     0.9145460    -1.3283100
 Cl       -1.8035240    -1.6987570    -0.1947580
 Cl       -1.5102210     0.5498050     1.5667370
  C        0.5425250    -0.2377090    -0.0306430
  C        1.3583330     0.9211750     0.0000800
  C        1.1449540    -1.5037020    -0.0241300
  C        2.7480770     0.7402810    -0.0004710
  C       -0.9732360    -0.1289890    -0.0024010
  C        0.8627320     2.3487980    -0.0134970
  C        2.7294043    -1.6688532    -0.0246766
  C        3.3427940    -0.5189970    -0.0108730
  H        0.5328240    -2.3960530    -0.0303120
  H        3.3795310     1.6262990     0.0194810
  H        0.6542430     2.6831410    -1.0334720
  H       -0.0421520     2.4939510     0.5743960
  H        1.6388160     2.9983140     0.4002560
  H        2.9642350    -2.6446820    -0.0247670
  H        4.4259130    -0.6124980    -0.0086910
units angstrom
no_reorient  #important for SAPT in psi4, default
symmetry c1  #important for SAPT in psi4, default
}

set PROPERTIES_ORIGIN ["COM"]
properties('MP2/aug-cc-pvtz', properties = ['dipole'])
--------------------------------------------------------------------------

    Molecular point group: c1
  Charge       = 0
  Multiplicity = 1
  Basis Set: AUG-CC-PVTZ
    Blend: AUG-CC-PVTZ
  Basis Set: (AUG-CC-PVTZ AUX)
    Blend: AUG-CC-PVTZ-JKFIT

    Orbital Energies [Eh]
    ---------------------

    Doubly Occupied:

       1A   -104.858087     2A   -104.856101     3A   -104.856022
       4A    -11.442846     5A    -11.275364     6A    -11.270692
       7A    -11.268248     8A    -11.248368     9A    -11.243239
      10A    -11.241200    11A    -11.229670    12A    -10.582654
      13A    -10.580716    14A    -10.580647    15A     -8.049349
      16A     -8.047424    17A     -8.047348    18A     -8.047317
      19A     -8.047301    20A     -8.045358    21A     -8.045323
      22A     -8.045293    23A     -8.045243    24A     -1.246274
      25A     -1.159624    26A     -1.106787    27A     -1.105397
      28A     -1.064889    29A     -1.030872    30A     -0.947689
      31A     -0.881144    32A     -0.831327    33A     -0.790288
      34A     -0.706998    35A     -0.667465    36A     -0.652192
      37A     -0.633789    38A     -0.627437    39A     -0.605537
      40A     -0.586968    41A     -0.572106    42A     -0.552184
      43A     -0.521134    44A     -0.505948    45A     -0.497450
      46A     -0.493326    47A     -0.482593    48A     -0.461001
      49A     -0.456214    50A     -0.444296    51A     -0.441649
      52A     -0.365235    53A     -0.325743

  @DF-RHF Final Energy: -1685.60910250865800

   => Energetics <=

    Nuclear Repulsion Energy =            898.4333184527823732
    One-Electron Energy =               -4108.6501180374925752
    Two-Electron Energy =                1524.6076970760523182
    Total Energy =                      -1685.6091025086579975
  Basis Set: (AUG-CC-PVTZ AUX)
    Blend: AUG-CC-PVTZ-RI
    Molecular point group: c1

    Geometry (in Angstrom), charge = 0, multiplicity = 1:

       Center              X                  Y                   Z               Mass
    ------------   -----------------  -----------------  -----------------  -----------------
         CL          -1.486434906099     0.936626688186    -1.329001473719    34.968852682000
         CL          -1.727622906099    -1.676676311814    -0.195449473719    34.968852682000
         CL          -1.434319906099     0.571885688186     1.566045526281    34.968852682000
         C            0.618426093901    -0.215628311814    -0.031334473719    12.000000000000
         C            1.434234093901     0.943255688186    -0.000611473719    12.000000000000
         C            1.220855093901    -1.481621311814    -0.024821473719    12.000000000000
         C            2.823978093901     0.762361688186    -0.001162473719    12.000000000000
         C           -0.897334906099    -0.106908311814    -0.003092473719    12.000000000000
         C            0.938633093901     2.370878688186    -0.014188473719    12.000000000000
         C            2.805305393901    -1.646772511814    -0.025368073719    12.000000000000
         C            3.418695093901    -0.496916311814    -0.011564473719    12.000000000000
         H            0.608725093901    -2.373972311814    -0.031003473719     1.007825032230
         H            3.455432093901     1.648379688186     0.018789526281     1.007825032230
         H            0.730144093901     2.705221688186    -1.034163473719     1.007825032230
         H            0.033749093901     2.516031688186     0.573704526281     1.007825032230
         H            1.714717093901     3.020394688186     0.399564526281     1.007825032230
         H            3.040136093901    -2.622601311814    -0.025458473719     1.007825032230
         H            4.501814093901    -0.590417311814    -0.009382473719     1.007825032230

  Basis Set: AUG-CC-PVTZ
    Blend: AUG-CC-PVTZ
  Basis Set: (AUG-CC-PVTZ AUX)
    Blend: AUG-CC-PVTZ-JKFIT
	 Reference Energy          =   -1685.6091025086579975 [Eh]
	 Singles Energy            =      -0.0000000000000000 [Eh]
	 Same-Spin Energy          =      -0.5426912575075100 [Eh]
	 Opposite-Spin Energy      =      -1.6270285235550421 [Eh]
	 Correlation Energy        =      -2.1697197810625521 [Eh]
	 Total Energy              =   -1687.7788222897204378 [Eh]

	 ================> DF-SCS-MP2 Energies <==================
	-----------------------------------------------------------
	 SCS Same-Spin Scale       =       0.3333333333333333 [-]
	 SCS Opposite-Spin Scale   =       1.2000000000000000 [-]
	 SCS Same-Spin Energy      =      -0.1808970858358367 [Eh]
	 SCS Opposite-Spin Energy  =      -1.9524342282660505 [Eh]
	 SCS Correlation Energy    =      -2.1333313141018873 [Eh]
	 SCS Total Energy          =   -1687.7424338227599492 [Eh]
	-----------------------------------------------------------

  Dipole Moment: [D]
     X:     2.0873      Y:     0.1604      Z:    -0.0509     Total:     2.0941

*** Psi4 exiting successfully. Buy a developer a beer!
