                               Psi4 1.4a3.dev225

  ==> Input File <==

--------------------------------------------------------------------------
#psi4
#
memory 32 gb

molecule  {
0 1
 Cl       -1.5623360     0.9145460    -1.3283100
 Cl       -1.8035240    -1.6987570    -0.1947580
 Cl       -1.5102210     0.5498050     1.5667370
  C        0.5425250    -0.2377090    -0.0306430
  C        1.3583330     0.9211750     0.0000800
  C        1.1449540    -1.5037020    -0.0241300
  C        2.7480770     0.7402810    -0.0004710
  C       -0.9532907    -0.1304196    -0.0027726
  C        0.8627320     2.3487980    -0.0134970
  C        2.5304820    -1.6481190    -0.0246080
  C        3.3427940    -0.5189970    -0.0108730
  H        0.5328240    -2.3960530    -0.0303120
  H        3.3795310     1.6262990     0.0194810
  H        0.6542430     2.6831410    -1.0334720
  H       -0.0421520     2.4939510     0.5743960
  H        1.6388160     2.9983140     0.4002560
  H        2.9642350    -2.6446820    -0.0247670
  H        4.4259130    -0.6124980    -0.0086910
units angstrom
no_reorient  #important for SAPT in psi4, default
symmetry c1  #important for SAPT in psi4, default
}

set PROPERTIES_ORIGIN ["COM"]
properties('MP2/aug-cc-pvtz', properties = ['dipole'])
--------------------------------------------------------------------------

    Molecular point group: c1
  Charge       = 0
  Multiplicity = 1
  Basis Set: AUG-CC-PVTZ
    Blend: AUG-CC-PVTZ
  Basis Set: (AUG-CC-PVTZ AUX)
    Blend: AUG-CC-PVTZ-JKFIT

    Orbital Energies [Eh]
    ---------------------

    Doubly Occupied:

       1A   -104.857493     2A   -104.855033     3A   -104.854943
       4A    -11.442768     5A    -11.273061     6A    -11.268324
       7A    -11.254091     8A    -11.252231     9A    -11.245297
      10A    -11.244714    11A    -11.230258    12A    -10.581956
      13A    -10.579542    14A    -10.579501    15A     -8.048633
      16A     -8.046617    17A     -8.046604    18A     -8.046233
      19A     -8.046186    20A     -8.044182    21A     -8.044148
      22A     -8.044143    23A     -8.044096    24A     -1.245318
      25A     -1.165052    26A     -1.105164    27A     -1.103136
      28A     -1.058761    29A     -1.039791    30A     -0.952580
      31A     -0.885311    32A     -0.825876    33A     -0.788541
      34A     -0.703632    35A     -0.668126    36A     -0.653706
      37A     -0.626349    38A     -0.618071    39A     -0.597852
      40A     -0.586833    41A     -0.582159    42A     -0.555805
      43A     -0.521301    44A     -0.507880    45A     -0.504804
      46A     -0.495303    47A     -0.488237    48A     -0.466554
      49A     -0.454126    50A     -0.446094    51A     -0.440931
      52A     -0.351754    53A     -0.339601

  @DF-RHF Final Energy: -1685.64938163328770

   => Energetics <=

    Nuclear Repulsion Energy =            901.4612112273822504
    One-Electron Energy =               -4114.8037763322745377
    Two-Electron Energy =                1527.6931834716046978
    Total Energy =                      -1685.6493816332877032
  Basis Set: (AUG-CC-PVTZ AUX)
    Blend: AUG-CC-PVTZ-RI
    Molecular point group: c1

    Geometry (in Angstrom), charge = 0, multiplicity = 1:

       Center              X                  Y                   Z               Mass
    ------------   -----------------  -----------------  -----------------  -----------------
         CL          -1.476107390083     0.935512811888    -1.328983989700    34.968852682000
         CL          -1.717295390083    -1.677790188112    -0.195431989700    34.968852682000
         CL          -1.423992390083     0.570771811888     1.566063010300    34.968852682000
         C            0.628753609917    -0.216742188112    -0.031316989700    12.000000000000
         C            1.444561609917     0.942141811888    -0.000593989700    12.000000000000
         C            1.231182609917    -1.482735188112    -0.024803989700    12.000000000000
         C            2.834305609917     0.761247811888    -0.001144989700    12.000000000000
         C           -0.867062090083    -0.109452788112    -0.003446589700    12.000000000000
         C            0.948960609917     2.369764811888    -0.014170989700    12.000000000000
         C            2.616710609917    -1.627152188112    -0.025281989700    12.000000000000
         C            3.429022609917    -0.498030188112    -0.011546989700    12.000000000000
         H            0.619052609917    -2.375086188112    -0.030985989700     1.007825032230
         H            3.465759609917     1.647265811888     0.018807010300     1.007825032230
         H            0.740471609917     2.704107811888    -1.034145989700     1.007825032230
         H            0.044076609917     2.514917811888     0.573722010300     1.007825032230
         H            1.725044609917     3.019280811888     0.399582010300     1.007825032230
         H            3.050463609917    -2.623715188112    -0.025440989700     1.007825032230
         H            4.512141609917    -0.591531188112    -0.009364989700     1.007825032230

  Basis Set: AUG-CC-PVTZ
    Blend: AUG-CC-PVTZ
  Basis Set: (AUG-CC-PVTZ AUX)
    Blend: AUG-CC-PVTZ-JKFIT
	 Reference Energy          =   -1685.6493816332877032 [Eh]
	 Singles Energy            =      -0.0000000000000000 [Eh]
	 Same-Spin Energy          =      -0.5436335647298812 [Eh]
	 Opposite-Spin Energy      =      -1.6251932140543315 [Eh]
	 Correlation Energy        =      -2.1688267787842128 [Eh]
	 Total Energy              =   -1687.8182084120719537 [Eh]

	 ================> DF-SCS-MP2 Energies <==================
	-----------------------------------------------------------
	 SCS Same-Spin Scale       =       0.3333333333333333 [-]
	 SCS Opposite-Spin Scale   =       1.2000000000000000 [-]
	 SCS Same-Spin Energy      =      -0.1812111882432937 [Eh]
	 SCS Opposite-Spin Energy  =      -1.9502318568651977 [Eh]
	 SCS Correlation Energy    =      -2.1314430451084916 [Eh]
	 SCS Total Energy          =   -1687.7808246783961295 [Eh]
	-----------------------------------------------------------

  Dipole Moment: [D]
     X:     2.2266      Y:     0.2295      Z:    -0.0554     Total:     2.2391

*** Psi4 exiting successfully. Buy a developer a beer!
