                               Psi4 1.4a3.dev225

  ==> Input File <==

--------------------------------------------------------------------------
#psi4
#
memory 32 gb

molecule  {
0 1
 Cl       -1.5623360     0.9145460    -1.3283100
 Cl       -1.8035240    -1.6987570    -0.1947580
 Cl       -1.5102210     0.5498050     1.5667370
  C        0.5425250    -0.2377090    -0.0306430
  C        1.3583330     0.9211750     0.0000800
  C        1.1449540    -1.5037020    -0.0241300
  C        2.7480770     0.7402810    -0.0004710
  C       -0.9732360    -0.1289890    -0.0024010
  C        0.8627320     2.3487980    -0.0134970
  C        2.5304820    -1.6481190    -0.0246080
  C        3.3427940    -0.5189970    -0.0108730
  H        0.5328240    -2.3960530    -0.0303120
  H        3.3795310     1.6262990     0.0194810
  H        0.6542430     2.6831410    -1.0334720
  H       -0.0255304     2.4912847     0.5635972
  H        1.6388160     2.9983140     0.4002560
  H        2.9642350    -2.6446820    -0.0247670
  H        4.4259130    -0.6124980    -0.0086910
units angstrom
no_reorient  #important for SAPT in psi4, default
symmetry c1  #important for SAPT in psi4, default
}

set PROPERTIES_ORIGIN ["COM"]
properties('MP2/aug-cc-pvtz', properties = ['dipole'])
--------------------------------------------------------------------------

    Molecular point group: c1
  Charge       = 0
  Multiplicity = 1
  Basis Set: AUG-CC-PVTZ
    Blend: AUG-CC-PVTZ
  Basis Set: (AUG-CC-PVTZ AUX)
    Blend: AUG-CC-PVTZ-JKFIT

    Orbital Energies [Eh]
    ---------------------

    Doubly Occupied:

       1A   -104.858046     2A   -104.855727     3A   -104.855615
       4A    -11.442406     5A    -11.273941     6A    -11.267276
       7A    -11.253095     8A    -11.251204     9A    -11.244716
      10A    -11.244061    11A    -11.227695    12A    -10.582633
      13A    -10.580312    14A    -10.580276    15A     -8.049326
      16A     -8.047294    17A     -8.047282    18A     -8.047019
      19A     -8.046976    20A     -8.044954    21A     -8.044920
      22A     -8.044917    23A     -8.044872    24A     -1.246364
      25A     -1.164610    26A     -1.106959    27A     -1.105020
      28A     -1.058438    29A     -1.037601    30A     -0.952589
      31A     -0.882692    32A     -0.825025    33A     -0.789085
      34A     -0.703311    35A     -0.667500    36A     -0.652388
      37A     -0.627492    38A     -0.617594    39A     -0.599864
      40A     -0.588581    41A     -0.582038    42A     -0.556270
      43A     -0.521348    44A     -0.508044    45A     -0.504113
      46A     -0.495688    47A     -0.489196    48A     -0.464025
      49A     -0.455670    50A     -0.447607    51A     -0.441763
      52A     -0.350994    53A     -0.338980

  @DF-RHF Final Energy: -1685.64986332593048

   => Energetics <=

    Nuclear Repulsion Energy =            901.5220535306048077
    One-Electron Energy =               -4114.9130053099879660
    Two-Electron Energy =                1527.7410884534526758
    Total Energy =                      -1685.6498633259304825
  Basis Set: (AUG-CC-PVTZ AUX)
    Blend: AUG-CC-PVTZ-RI
    Molecular point group: c1

    Geometry (in Angstrom), charge = 0, multiplicity = 1:

       Center              X                  Y                   Z               Mass
    ------------   -----------------  -----------------  -----------------  -----------------
         CL          -1.475037037571     0.935443183386    -1.328953098856    34.968852682000
         CL          -1.716225037571    -1.677859816614    -0.195401098856    34.968852682000
         CL          -1.422922037571     0.570702183386     1.566093901144    34.968852682000
         C            0.629823962429    -0.216811816614    -0.031286098856    12.000000000000
         C            1.445631962429     0.942072183386    -0.000563098856    12.000000000000
         C            1.232252962429    -1.482804816614    -0.024773098856    12.000000000000
         C            2.835375962429     0.761178183386    -0.001114098856    12.000000000000
         C           -0.885937037571    -0.108091816614    -0.003044098856    12.000000000000
         C            0.950030962429     2.369695183386    -0.014140098856    12.000000000000
         C            2.617780962429    -1.627221816614    -0.025251098856    12.000000000000
         C            3.430092962429    -0.498099816614    -0.011516098856    12.000000000000
         H            0.620122962429    -2.375155816614    -0.030955098856     1.007825032230
         H            3.466829962429     1.647196183386     0.018837901144     1.007825032230
         H            0.741541962429     2.704038183386    -1.034115098856     1.007825032230
         H            0.061768562429     2.512181883386     0.562954101144     1.007825032230
         H            1.726114962429     3.019211183386     0.399612901144     1.007825032230
         H            3.051533962429    -2.623784816614    -0.025410098856     1.007825032230
         H            4.513211962429    -0.591600816614    -0.009334098856     1.007825032230

  Basis Set: AUG-CC-PVTZ
    Blend: AUG-CC-PVTZ
  Basis Set: (AUG-CC-PVTZ AUX)
    Blend: AUG-CC-PVTZ-JKFIT
	 Reference Energy          =   -1685.6498633259304825 [Eh]
	 Singles Energy            =      -0.0000000000000000 [Eh]
	 Same-Spin Energy          =      -0.5434921178853307 [Eh]
	 Opposite-Spin Energy      =      -1.6247954810037719 [Eh]
	 Correlation Energy        =      -2.1682875988891026 [Eh]
	 Total Energy              =   -1687.8181509248195198 [Eh]

	 ================> DF-SCS-MP2 Energies <==================
	-----------------------------------------------------------
	 SCS Same-Spin Scale       =       0.3333333333333333 [-]
	 SCS Opposite-Spin Scale   =       1.2000000000000000 [-]
	 SCS Same-Spin Energy      =      -0.1811640392951102 [Eh]
	 SCS Opposite-Spin Energy  =      -1.9497545772045262 [Eh]
	 SCS Correlation Energy    =      -2.1309186164996365 [Eh]
	 SCS Total Energy          =   -1687.7807819424301670 [Eh]
	-----------------------------------------------------------

  Dipole Moment: [D]
     X:     2.1282      Y:     0.2362      Z:    -0.0529     Total:     2.1419

*** Psi4 exiting successfully. Buy a developer a beer!
