                               Psi4 1.4a3.dev225

  ==> Input File <==

--------------------------------------------------------------------------
#psi4
#
memory 32 gb

molecule  {
0 1
 Cl       -1.5623360     0.9145460    -1.3283100
 Cl       -1.8035240    -1.6987570    -0.1947580
 Cl       -1.5102210     0.5498050     1.5667370
  C        0.5425250    -0.2377090    -0.0306430
  C        1.3583330     0.9211750     0.0000800
  C        1.1234699    -1.4585536    -0.0243623
  C        2.7480770     0.7402810    -0.0004710
  C       -0.9732360    -0.1289890    -0.0024010
  C        0.8627320     2.3487980    -0.0134970
  C        2.5304820    -1.6481190    -0.0246080
  C        3.3427940    -0.5189970    -0.0108730
  H        0.5328240    -2.3960530    -0.0303120
  H        3.3795310     1.6262990     0.0194810
  H        0.6542430     2.6831410    -1.0334720
  H       -0.0421520     2.4939510     0.5743960
  H        1.6388160     2.9983140     0.4002560
  H        2.9642350    -2.6446820    -0.0247670
  H        4.4259130    -0.6124980    -0.0086910
units angstrom
no_reorient  #important for SAPT in psi4, default
symmetry c1  #important for SAPT in psi4, default
}

set PROPERTIES_ORIGIN ["COM"]
properties('MP2/aug-cc-pvtz', properties = ['dipole'])
--------------------------------------------------------------------------

    Molecular point group: c1
  Charge       = 0
  Multiplicity = 1
  Basis Set: AUG-CC-PVTZ
    Blend: AUG-CC-PVTZ
  Basis Set: (AUG-CC-PVTZ AUX)
    Blend: AUG-CC-PVTZ-JKFIT

    Orbital Energies [Eh]
    ---------------------

    Doubly Occupied:

       1A   -104.857793     2A   -104.855989     3A   -104.855813
       4A    -11.442356     5A    -11.269680     6A    -11.266974
       7A    -11.252388     8A    -11.250627     9A    -11.247063
      10A    -11.243280    11A    -11.229601    12A    -10.582378
      13A    -10.580537    14A    -10.580502    15A     -8.049068
      16A     -8.047236    17A     -8.047211    18A     -8.047036
      19A     -8.047024    20A     -8.045182    21A     -8.045147
      22A     -8.045133    23A     -8.045110    24A     -1.247511
      25A     -1.166721    26A     -1.106927    27A     -1.105258
      28A     -1.055318    29A     -1.043532    30A     -0.948899
      31A     -0.881645    32A     -0.825550    33A     -0.790460
      34A     -0.702935    35A     -0.668987    36A     -0.649012
      37A     -0.628208    38A     -0.619690    39A     -0.599739
      40A     -0.587166    41A     -0.578694    42A     -0.555236
      43A     -0.518489    44A     -0.509385    45A     -0.504086
      46A     -0.496031    47A     -0.487722    48A     -0.464765
      49A     -0.455792    50A     -0.446414    51A     -0.441740
      52A     -0.357560    53A     -0.334876

  @DF-RHF Final Energy: -1685.64687888955063

   => Energetics <=

    Nuclear Repulsion Energy =            902.4414674065420741
    One-Electron Energy =               -4116.7537361611757660
    Two-Electron Energy =                1528.6653898650831707
    Total Energy =                      -1685.6468788895506350
  Basis Set: (AUG-CC-PVTZ AUX)
    Blend: AUG-CC-PVTZ-RI
    Molecular point group: c1

    Geometry (in Angstrom), charge = 0, multiplicity = 1:

       Center              X                  Y                   Z               Mass
    ------------   -----------------  -----------------  -----------------  -----------------
         CL          -1.473716787984     0.932825062241    -1.328992027732    34.968852682000
         CL          -1.714904787984    -1.680477937759    -0.195440027732    34.968852682000
         CL          -1.421601787984     0.568084062241     1.566054972268    34.968852682000
         C            0.631144212016    -0.219429937759    -0.031325027732    12.000000000000
         C            1.446952212016     0.939454062241    -0.000602027732    12.000000000000
         C            1.212089112016    -1.440274537759    -0.025044327732    12.000000000000
         C            2.836696212016     0.758560062241    -0.001153027732    12.000000000000
         C           -0.884616787984    -0.110709937759    -0.003083027732    12.000000000000
         C            0.951351212016     2.367077062241    -0.014179027732    12.000000000000
         C            2.619101212016    -1.629839937759    -0.025290027732    12.000000000000
         C            3.431413212016    -0.500717937759    -0.011555027732    12.000000000000
         H            0.621443212016    -2.377773937759    -0.030994027732     1.007825032230
         H            3.468150212016     1.644578062241     0.018798972268     1.007825032230
         H            0.742862212016     2.701420062241    -1.034154027732     1.007825032230
         H            0.046467212016     2.512230062241     0.573713972268     1.007825032230
         H            1.727435212016     3.016593062241     0.399573972268     1.007825032230
         H            3.052854212016    -2.626402937759    -0.025449027732     1.007825032230
         H            4.514532212016    -0.594218937759    -0.009373027732     1.007825032230

  Basis Set: AUG-CC-PVTZ
    Blend: AUG-CC-PVTZ
  Basis Set: (AUG-CC-PVTZ AUX)
    Blend: AUG-CC-PVTZ-JKFIT
	 Reference Energy          =   -1685.6468788895506350 [Eh]
	 Singles Energy            =      -0.0000000000000000 [Eh]
	 Same-Spin Energy          =      -0.5434596751429344 [Eh]
	 Opposite-Spin Energy      =      -1.6250400980248219 [Eh]
	 Correlation Energy        =      -2.1684997731677562 [Eh]
	 Total Energy              =   -1687.8153786627183308 [Eh]

	 ================> DF-SCS-MP2 Energies <==================
	-----------------------------------------------------------
	 SCS Same-Spin Scale       =       0.3333333333333333 [-]
	 SCS Opposite-Spin Scale   =       1.2000000000000000 [-]
	 SCS Same-Spin Energy      =      -0.1811532250476448 [Eh]
	 SCS Opposite-Spin Energy  =      -1.9500481176297861 [Eh]
	 SCS Correlation Energy    =      -2.1312013426774308 [Eh]
	 SCS Total Energy          =   -1687.7780802322281488 [Eh]
	-----------------------------------------------------------

  Dipole Moment: [D]
     X:     2.1294      Y:     0.2108      Z:    -0.0534     Total:     2.1405

*** Psi4 exiting successfully. Buy a developer a beer!
