                               Psi4 1.4a3.dev225

  ==> Input File <==

--------------------------------------------------------------------------
#psi4
#
memory 32 gb

molecule  {
0 1
 Cl       -1.5623360     0.9145460    -1.3283100
 Cl       -1.8035240    -1.6987570    -0.1947580
 Cl       -1.5102210     0.5498050     1.5667370
  C        0.5425250    -0.2377090    -0.0306430
  C        1.3583330     0.9211750     0.0000800
  C        1.1449540    -1.5037020    -0.0241300
  C        2.7480770     0.7402810    -0.0004710
  C       -0.9732360    -0.1289890    -0.0024010
  C        0.8627320     2.3487980    -0.0134970
  C        2.5304820    -1.6481190    -0.0246080
  C        3.3427940    -0.5189970    -0.0108730
  H        0.5328240    -2.3960530    -0.0303120
  H        3.2634753     1.4634567     0.0158140
  H        0.6542430     2.6831410    -1.0334720
  H       -0.0421520     2.4939510     0.5743960
  H        1.6388160     2.9983140     0.4002560
  H        2.9642350    -2.6446820    -0.0247670
  H        4.4259130    -0.6124980    -0.0086910
units angstrom
no_reorient  #important for SAPT in psi4, default
symmetry c1  #important for SAPT in psi4, default
}

set PROPERTIES_ORIGIN ["COM"]
properties('MP2/aug-cc-pvtz', properties = ['dipole'])
--------------------------------------------------------------------------

    Molecular point group: c1
  Charge       = 0
  Multiplicity = 1
  Basis Set: AUG-CC-PVTZ
    Blend: AUG-CC-PVTZ
  Basis Set: (AUG-CC-PVTZ AUX)
    Blend: AUG-CC-PVTZ-JKFIT

    Orbital Energies [Eh]
    ---------------------

    Doubly Occupied:

       1A   -104.857665     2A   -104.855415     3A   -104.855314
       4A    -11.441901     5A    -11.272819     6A    -11.266158
       7A    -11.252726     8A    -11.249987     9A    -11.243670
      10A    -11.230349    11A    -11.220202    12A    -10.582257
      13A    -10.580012    14A    -10.579972    15A     -8.048950
      16A     -8.046920    17A     -8.046907    18A     -8.046719
      19A     -8.046671    20A     -8.044656    21A     -8.044619
      22A     -8.044617    23A     -8.044568    24A     -1.245977
      25A     -1.166112    26A     -1.106637    27A     -1.104741
      28A     -1.059072    29A     -1.043775    30A     -0.954505
      31A     -0.884586    32A     -0.840172    33A     -0.791651
      34A     -0.711738    35A     -0.667329    36A     -0.659658
      37A     -0.630887    38A     -0.627058    39A     -0.599685
      40A     -0.587600    41A     -0.582807    42A     -0.560762
      43A     -0.521614    44A     -0.509561    45A     -0.506704
      46A     -0.495239    47A     -0.488576    48A     -0.463535
      49A     -0.455382    50A     -0.446989    51A     -0.441496
      52A     -0.350478    53A     -0.338232

  @DF-RHF Final Energy: -1685.61548274406414

   => Energetics <=

    Nuclear Repulsion Energy =            902.7160785499847862
    One-Electron Energy =               -4117.1718599608639124
    Two-Electron Energy =                1528.8402986668152153
    Total Energy =                      -1685.6154827440641384
  Basis Set: (AUG-CC-PVTZ AUX)
    Blend: AUG-CC-PVTZ-RI
    Molecular point group: c1

    Geometry (in Angstrom), charge = 0, multiplicity = 1:

       Center              X                  Y                   Z               Mass
    ------------   -----------------  -----------------  -----------------  -----------------
         CL          -1.474394055042     0.936219430488    -1.328987661082    34.968852682000
         CL          -1.715582055042    -1.677083569512    -0.195435661082    34.968852682000
         CL          -1.422279055042     0.571478430488     1.566059338918    34.968852682000
         C            0.630466944958    -0.216035569512    -0.031320661082    12.000000000000
         C            1.446274944958     0.942848430488    -0.000597661082    12.000000000000
         C            1.232895944958    -1.482028569512    -0.024807661082    12.000000000000
         C            2.836018944958     0.761954430488    -0.001148661082    12.000000000000
         C           -0.885294055042    -0.107315569512    -0.003078661082    12.000000000000
         C            0.950673944958     2.370471430488    -0.014174661082    12.000000000000
         C            2.618423944958    -1.626445569512    -0.025285661082    12.000000000000
         C            3.430735944958    -0.497323569512    -0.011550661082    12.000000000000
         H            0.620765944958    -2.374379569512    -0.030989661082     1.007825032230
         H            3.351417244958     1.485130130488     0.015136338918     1.007825032230
         H            0.742184944958     2.704814430488    -1.034149661082     1.007825032230
         H            0.045789944958     2.515624430488     0.573718338918     1.007825032230
         H            1.726757944958     3.019987430488     0.399578338918     1.007825032230
         H            3.052176944958    -2.623008569512    -0.025444661082     1.007825032230
         H            4.513854944958    -0.590824569512    -0.009368661082     1.007825032230

  Basis Set: AUG-CC-PVTZ
    Blend: AUG-CC-PVTZ
  Basis Set: (AUG-CC-PVTZ AUX)
    Blend: AUG-CC-PVTZ-JKFIT
	 Reference Energy          =   -1685.6154827440641384 [Eh]
	 Singles Energy            =      -0.0000000000000000 [Eh]
	 Same-Spin Energy          =      -0.5432533080032386 [Eh]
	 Opposite-Spin Energy      =      -1.6243505921371029 [Eh]
	 Correlation Energy        =      -2.1676039001403415 [Eh]
	 Total Energy              =   -1687.7830866442045590 [Eh]

	 ================> DF-SCS-MP2 Energies <==================
	-----------------------------------------------------------
	 SCS Same-Spin Scale       =       0.3333333333333333 [-]
	 SCS Opposite-Spin Scale   =       1.2000000000000000 [-]
	 SCS Same-Spin Energy      =      -0.1810844360010795 [Eh]
	 SCS Opposite-Spin Energy  =      -1.9492207105645234 [Eh]
	 SCS Correlation Energy    =      -2.1303051465656031 [Eh]
	 SCS Total Energy          =   -1687.7457878906297992 [Eh]
	-----------------------------------------------------------

  Dipole Moment: [D]
     X:     2.1598      Y:     0.2675      Z:    -0.0530     Total:     2.1769

*** Psi4 exiting successfully. Buy a developer a beer!
