                               Psi4 1.4a3.dev225

  ==> Input File <==

--------------------------------------------------------------------------
#psi4
#
memory 32 gb

molecule  {
0 1
 Cl       -1.5623360     0.9145460    -1.3283100
 Cl       -1.8035240    -1.6987570    -0.1947580
 Cl       -1.5102210     0.5498050     1.5667370
  C        0.5425250    -0.2377090    -0.0306430
  C        1.3583330     0.9211750     0.0000800
  C        1.1449540    -1.5037020    -0.0241300
  C        2.7480770     0.7402810    -0.0004710
  C       -0.9732360    -0.1289890    -0.0024010
  C        0.8627320     2.3487980    -0.0134970
  C        2.5304820    -1.6481190    -0.0246080
  C        3.3427940    -0.5189970    -0.0108730
  H        0.5328240    -2.3960530    -0.0303120
  H        3.3795310     1.6262990     0.0194810
  H        0.6542430     2.6831410    -1.0334720
  H       -0.0837059     2.5006167     0.6013931
  H        1.6388160     2.9983140     0.4002560
  H        2.9642350    -2.6446820    -0.0247670
  H        4.4259130    -0.6124980    -0.0086910
units angstrom
no_reorient  #important for SAPT in psi4, default
symmetry c1  #important for SAPT in psi4, default
}

set PROPERTIES_ORIGIN ["COM"]
properties('MP2/aug-cc-pvtz', properties = ['dipole'])
--------------------------------------------------------------------------

    Molecular point group: c1
  Charge       = 0
  Multiplicity = 1
  Basis Set: AUG-CC-PVTZ
    Blend: AUG-CC-PVTZ
  Basis Set: (AUG-CC-PVTZ AUX)
    Blend: AUG-CC-PVTZ-JKFIT

    Orbital Energies [Eh]
    ---------------------

    Doubly Occupied:

       1A   -104.858010     2A   -104.855519     3A   -104.855400
       4A    -11.442341     5A    -11.274134     6A    -11.267786
       7A    -11.253247     8A    -11.251454     9A    -11.244951
      10A    -11.244479    11A    -11.235308    12A    -10.582597
      13A    -10.580101    14A    -10.580092    15A     -8.049290
      16A     -8.047258    17A     -8.047246    18A     -8.046805
      19A     -8.046791    20A     -8.044739    21A     -8.044739
      22A     -8.044703    23A     -8.044688    24A     -1.246282
      25A     -1.164747    26A     -1.106816    27A     -1.104912
      28A     -1.057389    29A     -1.037778    30A     -0.948494
      31A     -0.881882    32A     -0.824668    33A     -0.788360
      34A     -0.702946    35A     -0.666654    36A     -0.652333
      37A     -0.627358    38A     -0.617766    39A     -0.600018
      40A     -0.584920    41A     -0.580531    42A     -0.552373
      43A     -0.520503    44A     -0.507043    45A     -0.504447
      46A     -0.495754    47A     -0.487861    48A     -0.463754
      49A     -0.455540    50A     -0.446233    51A     -0.441703
      52A     -0.351179    53A     -0.339049

  @DF-RHF Final Energy: -1685.64742831888930

   => Energetics <=

    Nuclear Repulsion Energy =            901.2885246325536173
    One-Electron Energy =               -4114.4699588704443158
    Two-Electron Energy =                1527.5340059190014017
    Total Energy =                      -1685.6474283188892969
  Basis Set: (AUG-CC-PVTZ AUX)
    Blend: AUG-CC-PVTZ-RI
    Molecular point group: c1

    Geometry (in Angstrom), charge = 0, multiplicity = 1:

       Center              X                  Y                   Z               Mass
    ------------   -----------------  -----------------  -----------------  -----------------
         CL          -1.474755106675     0.935397958521    -1.329136265859    34.968852682000
         CL          -1.715943106675    -1.677905041479    -0.195584265859    34.968852682000
         CL          -1.422640106675     0.570656958521     1.565910734141    34.968852682000
         C            0.630105893325    -0.216857041479    -0.031469265859    12.000000000000
         C            1.445913893325     0.942026958521    -0.000746265859    12.000000000000
         C            1.232534893325    -1.482850041479    -0.024956265859    12.000000000000
         C            2.835657893325     0.761132958521    -0.001297265859    12.000000000000
         C           -0.885655106675    -0.108137041479    -0.003227265859    12.000000000000
         C            0.950312893325     2.369649958521    -0.014323265859    12.000000000000
         C            2.618062893325    -1.627267041479    -0.025434265859    12.000000000000
         C            3.430374893325    -0.498145041479    -0.011699265859    12.000000000000
         H            0.620404893325    -2.375201041479    -0.031138265859     1.007825032230
         H            3.467111893325     1.647150958521     0.018654734141     1.007825032230
         H            0.741823893325     2.703992958521    -1.034298265859     1.007825032230
         H            0.003874993325     2.521468658521     0.600566834141     1.007825032230
         H            1.726396893325     3.019165958521     0.399429734141     1.007825032230
         H            3.051815893325    -2.623830041479    -0.025593265859     1.007825032230
         H            4.513493893325    -0.591646041479    -0.009517265859     1.007825032230

  Basis Set: AUG-CC-PVTZ
    Blend: AUG-CC-PVTZ
  Basis Set: (AUG-CC-PVTZ AUX)
    Blend: AUG-CC-PVTZ-JKFIT
	 Reference Energy          =   -1685.6474283188892969 [Eh]
	 Singles Energy            =      -0.0000000000000000 [Eh]
	 Same-Spin Energy          =      -0.5436990330038541 [Eh]
	 Opposite-Spin Energy      =      -1.6254534870173147 [Eh]
	 Correlation Energy        =      -2.1691525200211688 [Eh]
	 Total Energy              =   -1687.8165808389105678 [Eh]

	 ================> DF-SCS-MP2 Energies <==================
	-----------------------------------------------------------
	 SCS Same-Spin Scale       =       0.3333333333333333 [-]
	 SCS Opposite-Spin Scale   =       1.2000000000000000 [-]
	 SCS Same-Spin Energy      =      -0.1812330110012847 [Eh]
	 SCS Opposite-Spin Energy  =      -1.9505441844207776 [Eh]
	 SCS Correlation Energy    =      -2.1317771954220621 [Eh]
	 SCS Total Energy          =   -1687.7792055143113430 [Eh]
	-----------------------------------------------------------

  Dipole Moment: [D]
     X:     2.1437      Y:     0.2175      Z:    -0.0578     Total:     2.1555

*** Psi4 exiting successfully. Buy a developer a beer!
