                               Psi4 1.4a3.dev225

  ==> Input File <==

--------------------------------------------------------------------------
#psi4
#
memory 32 gb

molecule  {
0 1
 Cl       -1.5623360     0.9145460    -1.3283100
 Cl       -1.8035240    -1.6987570    -0.1947580
 Cl       -1.5102210     0.5498050     1.5667370
  C        0.5425250    -0.2377090    -0.0306430
  C        1.3583330     0.9211750     0.0000800
  C        1.1449540    -1.5037020    -0.0241300
  C        2.7480770     0.7402810    -0.0004710
  C       -0.9732360    -0.1289890    -0.0024010
  C        0.8627320     2.3487980    -0.0134970
  C        2.5802126    -1.6533025    -0.0246252
  C        3.3427940    -0.5189970    -0.0108730
  H        0.5328240    -2.3960530    -0.0303120
  H        3.3795310     1.6262990     0.0194810
  H        0.6542430     2.6831410    -1.0334720
  H       -0.0421520     2.4939510     0.5743960
  H        1.6388160     2.9983140     0.4002560
  H        2.9642350    -2.6446820    -0.0247670
  H        4.4259130    -0.6124980    -0.0086910
units angstrom
no_reorient  #important for SAPT in psi4, default
symmetry c1  #important for SAPT in psi4, default
}

set PROPERTIES_ORIGIN ["COM"]
properties('MP2/aug-cc-pvtz', properties = ['dipole'])
--------------------------------------------------------------------------

    Molecular point group: c1
  Charge       = 0
  Multiplicity = 1
  Basis Set: AUG-CC-PVTZ
    Blend: AUG-CC-PVTZ
  Basis Set: (AUG-CC-PVTZ AUX)
    Blend: AUG-CC-PVTZ-JKFIT

    Orbital Energies [Eh]
    ---------------------

    Doubly Occupied:

       1A   -104.858119     2A   -104.855857     3A   -104.855751
       4A    -11.442603     5A    -11.274520     6A    -11.267404
       7A    -11.258900     8A    -11.248617     9A    -11.245532
      10A    -11.243832    11A    -11.229765    12A    -10.582701
      13A    -10.580445    14A    -10.580408    15A     -8.049395
      16A     -8.047362    17A     -8.047349    18A     -8.047152
      19A     -8.047108    20A     -8.045087    21A     -8.045053
      22A     -8.045050    23A     -8.045003    24A     -1.246372
      25A     -1.162853    26A     -1.106912    27A     -1.105163
      28A     -1.058092    29A     -1.036658    30A     -0.949558
      31A     -0.882564    32A     -0.826885    33A     -0.788557
      34A     -0.703908    35A     -0.666109    36A     -0.652178
      37A     -0.627508    38A     -0.621068    39A     -0.601777
      40A     -0.587078    41A     -0.579392    42A     -0.554820
      43A     -0.516139    44A     -0.510565    45A     -0.505992
      46A     -0.495132    47A     -0.488504    48A     -0.464011
      49A     -0.455822    50A     -0.447091    51A     -0.441850
      52A     -0.353046    53A     -0.335997

  @DF-RHF Final Energy: -1685.64684319540720

   => Energetics <=

    Nuclear Repulsion Energy =            900.6561101310154527
    One-Electron Energy =               -4113.1766852788869073
    Two-Electron Energy =                1526.8737319524643681
    Total Energy =                      -1685.6468431954072003
  Basis Set: (AUG-CC-PVTZ AUX)
    Blend: AUG-CC-PVTZ-RI
    Molecular point group: c1

    Geometry (in Angstrom), charge = 0, multiplicity = 1:

       Center              X                  Y                   Z               Mass
    ------------   -----------------  -----------------  -----------------  -----------------
         CL          -1.477826092279     0.935729365606    -1.329004439655    34.968852682000
         CL          -1.719014092279    -1.677573634394    -0.195452439655    34.968852682000
         CL          -1.425711092279     0.570988365606     1.566042560345    34.968852682000
         C            0.627034907721    -0.216525634394    -0.031337439655    12.000000000000
         C            1.442842907721     0.942358365606    -0.000614439655    12.000000000000
         C            1.229463907721    -1.482518634394    -0.024824439655    12.000000000000
         C            2.832586907721     0.761464365606    -0.001165439655    12.000000000000
         C           -0.888726092279    -0.107805634394    -0.003095439655    12.000000000000
         C            0.947241907721     2.369981365606    -0.014191439655    12.000000000000
         C            2.664722507721    -1.632119134394    -0.025319639655    12.000000000000
         C            3.427303907721    -0.497813634394    -0.011567439655    12.000000000000
         H            0.617333907721    -2.374869634394    -0.031006439655     1.007825032230
         H            3.464040907721     1.647482365606     0.018786560345     1.007825032230
         H            0.738752907721     2.704324365606    -1.034166439655     1.007825032230
         H            0.042357907721     2.515134365606     0.573701560345     1.007825032230
         H            1.723325907721     3.019497365606     0.399561560345     1.007825032230
         H            3.048744907721    -2.623498634394    -0.025461439655     1.007825032230
         H            4.510422907721    -0.591314634394    -0.009385439655     1.007825032230

  Basis Set: AUG-CC-PVTZ
    Blend: AUG-CC-PVTZ
  Basis Set: (AUG-CC-PVTZ AUX)
    Blend: AUG-CC-PVTZ-JKFIT
	 Reference Energy          =   -1685.6468431954072003 [Eh]
	 Singles Energy            =      -0.0000000000000000 [Eh]
	 Same-Spin Energy          =      -0.5433681704580334 [Eh]
	 Opposite-Spin Energy      =      -1.6251284949096170 [Eh]
	 Correlation Energy        =      -2.1684966653676505 [Eh]
	 Total Energy              =   -1687.8153398607748841 [Eh]

	 ================> DF-SCS-MP2 Energies <==================
	-----------------------------------------------------------
	 SCS Same-Spin Scale       =       0.3333333333333333 [-]
	 SCS Opposite-Spin Scale   =       1.2000000000000000 [-]
	 SCS Same-Spin Energy      =      -0.1811227234860111 [Eh]
	 SCS Opposite-Spin Energy  =      -1.9501541938915403 [Eh]
	 SCS Correlation Energy    =      -2.1312769173775514 [Eh]
	 SCS Total Energy          =   -1687.7781201127847908 [Eh]
	-----------------------------------------------------------

  Dipole Moment: [D]
     X:     2.1202      Y:     0.2107      Z:    -0.0532     Total:     2.1313

*** Psi4 exiting successfully. Buy a developer a beer!
