                               Psi4 1.4a3.dev225

  ==> Input File <==

--------------------------------------------------------------------------
#psi4
#
memory 32 gb

molecule  {
0 1
 Cl       -1.5623360     0.9145460    -1.3283100
 Cl       -1.8035240    -1.6987570    -0.1947580
 Cl       -1.5102210     0.5498050     1.5667370
  C        0.5425250    -0.2377090    -0.0306430
  C        1.3379872     0.9352452    -0.0003586
  C        1.1449540    -1.5037020    -0.0241300
  C        2.7480770     0.7402810    -0.0004710
  C       -0.9732360    -0.1289890    -0.0024010
  C        0.8627320     2.3487980    -0.0134970
  C        2.5304820    -1.6481190    -0.0246080
  C        3.3427940    -0.5189970    -0.0108730
  H        0.5328240    -2.3960530    -0.0303120
  H        3.3795310     1.6262990     0.0194810
  H        0.6542430     2.6831410    -1.0334720
  H       -0.0421520     2.4939510     0.5743960
  H        1.6388160     2.9983140     0.4002560
  H        2.9642350    -2.6446820    -0.0247670
  H        4.4259130    -0.6124980    -0.0086910
units angstrom
no_reorient  #important for SAPT in psi4, default
symmetry c1  #important for SAPT in psi4, default
}

set PROPERTIES_ORIGIN ["COM"]
properties('MP2/aug-cc-pvtz', properties = ['dipole'])
--------------------------------------------------------------------------

    Molecular point group: c1
  Charge       = 0
  Multiplicity = 1
  Basis Set: AUG-CC-PVTZ
    Blend: AUG-CC-PVTZ
  Basis Set: (AUG-CC-PVTZ AUX)
    Blend: AUG-CC-PVTZ-JKFIT

    Orbital Energies [Eh]
    ---------------------

    Doubly Occupied:

       1A   -104.857647     2A   -104.855591     3A   -104.855547
       4A    -11.441786     5A    -11.274256     6A    -11.269312
       7A    -11.253012     8A    -11.251085     9A    -11.246417
      10A    -11.244907    11A    -11.229782    12A    -10.582251
      13A    -10.580250    14A    -10.580154    15A     -8.048943
      16A     -8.046956    17A     -8.046914    18A     -8.046902
      19A     -8.046853    20A     -8.044894    21A     -8.044857
      22A     -8.044800    23A     -8.044750    24A     -1.246310
      25A     -1.162936    26A     -1.106901    27A     -1.104959
      28A     -1.060263    29A     -1.036678    30A     -0.952922
      31A     -0.880942    32A     -0.825354    33A     -0.787216
      34A     -0.702950    35A     -0.667284    36A     -0.652980
      37A     -0.627380    38A     -0.617045    39A     -0.599896
      40A     -0.588736    41A     -0.582466    42A     -0.557113
      43A     -0.519147    44A     -0.509178    45A     -0.505759
      46A     -0.495050    47A     -0.488620    48A     -0.463161
      49A     -0.455550    50A     -0.447090    51A     -0.441670
      52A     -0.351014    53A     -0.336685

  @DF-RHF Final Energy: -1685.64835421983616

   => Energetics <=

    Nuclear Repulsion Energy =            901.4917969584134880
    One-Electron Energy =               -4114.8580607653348125
    Two-Electron Energy =                1527.7179095870851597
    Total Energy =                      -1685.6483542198361647
  Basis Set: (AUG-CC-PVTZ AUX)
    Blend: AUG-CC-PVTZ-RI
    Molecular point group: c1

    Geometry (in Angstrom), charge = 0, multiplicity = 1:

       Center              X                  Y                   Z               Mass
    ------------   -----------------  -----------------  -----------------  -----------------
         CL          -1.473782471348     0.934618368690    -1.328980123596    34.968852682000
         CL          -1.714970471348    -1.678684631310    -0.195428123596    34.968852682000
         CL          -1.421667471348     0.569877368690     1.566066876404    34.968852682000
         C            0.631078528652    -0.217636631310    -0.031313123596    12.000000000000
         C            1.426540728652     0.955317568690    -0.001028723596    12.000000000000
         C            1.233507528652    -1.483629631310    -0.024800123596    12.000000000000
         C            2.836630528652     0.760353368690    -0.001141123596    12.000000000000
         C           -0.884682471348    -0.108916631310    -0.003071123596    12.000000000000
         C            0.951285528652     2.368870368690    -0.014167123596    12.000000000000
         C            2.619035528652    -1.628046631310    -0.025278123596    12.000000000000
         C            3.431347528652    -0.498924631310    -0.011543123596    12.000000000000
         H            0.621377528652    -2.375980631310    -0.030982123596     1.007825032230
         H            3.468084528652     1.646371368690     0.018810876404     1.007825032230
         H            0.742796528652     2.703213368690    -1.034142123596     1.007825032230
         H            0.046401528652     2.514023368690     0.573725876404     1.007825032230
         H            1.727369528652     3.018386368690     0.399585876404     1.007825032230
         H            3.052788528652    -2.624609631310    -0.025437123596     1.007825032230
         H            4.514466528652    -0.592425631310    -0.009361123596     1.007825032230

  Basis Set: AUG-CC-PVTZ
    Blend: AUG-CC-PVTZ
  Basis Set: (AUG-CC-PVTZ AUX)
    Blend: AUG-CC-PVTZ-JKFIT
	 Reference Energy          =   -1685.6483542198361647 [Eh]
	 Singles Energy            =      -0.0000000000000000 [Eh]
	 Same-Spin Energy          =      -0.5438454595950530 [Eh]
	 Opposite-Spin Energy      =      -1.6253649431251000 [Eh]
	 Correlation Energy        =      -2.1692104027201529 [Eh]
	 Total Energy              =   -1687.8175646225563469 [Eh]

	 ================> DF-SCS-MP2 Energies <==================
	-----------------------------------------------------------
	 SCS Same-Spin Scale       =       0.3333333333333333 [-]
	 SCS Opposite-Spin Scale   =       1.2000000000000000 [-]
	 SCS Same-Spin Energy      =      -0.1812818198650177 [Eh]
	 SCS Opposite-Spin Energy  =      -1.9504379317501199 [Eh]
	 SCS Correlation Energy    =      -2.1317197516151376 [Eh]
	 SCS Total Energy          =   -1687.7800739714512019 [Eh]
	-----------------------------------------------------------

  Dipole Moment: [D]
     X:     2.1354      Y:     0.2652      Z:    -0.0560     Total:     2.1525

*** Psi4 exiting successfully. Buy a developer a beer!
