                               Psi4 1.4a3.dev225

  ==> Input File <==

--------------------------------------------------------------------------
#psi4
#
memory 32 gb

molecule  {
0 1
 Cl       -1.5623360     0.9145460    -1.3283100
 Cl       -1.8035240    -1.6987570    -0.1947580
 Cl       -1.5102210     0.5498050     1.5667370
  C        0.5425250    -0.2377090    -0.0306430
  C        1.3583330     0.9211750     0.0000800
  C        1.1449540    -1.5037020    -0.0241300
  C        2.7480770     0.7402810    -0.0004710
  C       -0.9732360    -0.1289890    -0.0024010
  C        0.8627320     2.3487980    -0.0134970
  C        2.5304820    -1.6481190    -0.0246080
  C        3.3427940    -0.5189970    -0.0108730
  H        0.5328240    -2.3960530    -0.0303120
  H        3.4085449     1.6670096     0.0203978
  H        0.6542430     2.6831410    -1.0334720
  H       -0.0421520     2.4939510     0.5743960
  H        1.6388160     2.9983140     0.4002560
  H        2.9642350    -2.6446820    -0.0247670
  H        4.4259130    -0.6124980    -0.0086910
units angstrom
no_reorient  #important for SAPT in psi4, default
symmetry c1  #important for SAPT in psi4, default
}

set PROPERTIES_ORIGIN ["COM"]
properties('MP2/aug-cc-pvtz', properties = ['dipole'])
--------------------------------------------------------------------------

    Molecular point group: c1
  Charge       = 0
  Multiplicity = 1
  Basis Set: AUG-CC-PVTZ
    Blend: AUG-CC-PVTZ
  Basis Set: (AUG-CC-PVTZ AUX)
    Blend: AUG-CC-PVTZ-JKFIT

    Orbital Energies [Eh]
    ---------------------

    Doubly Occupied:

       1A   -104.858177     2A   -104.855770     3A   -104.855651
       4A    -11.442562     5A    -11.274378     6A    -11.267919
       7A    -11.253347     8A    -11.251909     9A    -11.249789
      10A    -11.245145    11A    -11.229813    12A    -10.582763
      13A    -10.580348    14A    -10.580326    15A     -8.049456
      16A     -8.047424    17A     -8.047411    18A     -8.047055
      19A     -8.047025    20A     -8.044989    21A     -8.044969
      22A     -8.044952    23A     -8.044920    24A     -1.246486
      25A     -1.164635    26A     -1.107035    27A     -1.105090
      28A     -1.058164    29A     -1.036783    30A     -0.950920
      31A     -0.882361    32A     -0.822561    33A     -0.788233
      34A     -0.701857    35A     -0.667417    36A     -0.651397
      37A     -0.627579    38A     -0.613793    39A     -0.599972
      40A     -0.587011    41A     -0.581383    42A     -0.553349
      43A     -0.521091    44A     -0.507852    45A     -0.502171
      46A     -0.495849    47A     -0.488976    48A     -0.464104
      49A     -0.455736    50A     -0.447370    51A     -0.441850
      52A     -0.351321    53A     -0.339302

  @DF-RHF Final Energy: -1685.64727980713610

   => Energetics <=

    Nuclear Repulsion Energy =            901.1796642747353872
    One-Electron Energy =               -4114.2383997030192404
    Two-Electron Energy =                1527.4114556211477520
    Total Energy =                      -1685.6472798071361012
  Basis Set: (AUG-CC-PVTZ AUX)
    Blend: AUG-CC-PVTZ-RI
    Molecular point group: c1

    Geometry (in Angstrom), charge = 0, multiplicity = 1:

       Center              X                  Y                   Z               Mass
    ------------   -----------------  -----------------  -----------------  -----------------
         CL          -1.475097093304     0.935232969665    -1.329009875156    34.968852682000
         CL          -1.716285093304    -1.678070030335    -0.195457875156    34.968852682000
         CL          -1.422982093304     0.570491969665     1.566037124844    34.968852682000
         C            0.629763906696    -0.217022030335    -0.031342875156    12.000000000000
         C            1.445571906696     0.941861969665    -0.000619875156    12.000000000000
         C            1.232192906696    -1.483015030335    -0.024829875156    12.000000000000
         C            2.835315906696     0.760967969665    -0.001170875156    12.000000000000
         C           -0.885997093304    -0.108302030335    -0.003100875156    12.000000000000
         C            0.949970906696     2.369484969665    -0.014196875156    12.000000000000
         C            2.617720906696    -1.627432030335    -0.025307875156    12.000000000000
         C            3.430032906696    -0.498310030335    -0.011572875156    12.000000000000
         H            0.620062906696    -2.375366030335    -0.031011875156     1.007825032230
         H            3.495783806696     1.687696569665     0.019697924844     1.007825032230
         H            0.741481906696     2.703827969665    -1.034171875156     1.007825032230
         H            0.045086906696     2.514637969665     0.573696124844     1.007825032230
         H            1.726054906696     3.019000969665     0.399556124844     1.007825032230
         H            3.051473906696    -2.623995030335    -0.025466875156     1.007825032230
         H            4.513151906696    -0.591811030335    -0.009390875156     1.007825032230

  Basis Set: AUG-CC-PVTZ
    Blend: AUG-CC-PVTZ
  Basis Set: (AUG-CC-PVTZ AUX)
    Blend: AUG-CC-PVTZ-JKFIT
	 Reference Energy          =   -1685.6472798071361012 [Eh]
	 Singles Energy            =      -0.0000000000000000 [Eh]
	 Same-Spin Energy          =      -0.5436790937876254 [Eh]
	 Opposite-Spin Energy      =      -1.6253955657846153 [Eh]
	 Correlation Energy        =      -2.1690746595722405 [Eh]
	 Total Energy              =   -1687.8163544667083897 [Eh]

	 ================> DF-SCS-MP2 Energies <==================
	-----------------------------------------------------------
	 SCS Same-Spin Scale       =       0.3333333333333333 [-]
	 SCS Opposite-Spin Scale   =       1.2000000000000000 [-]
	 SCS Same-Spin Energy      =      -0.1812263645958751 [Eh]
	 SCS Opposite-Spin Energy  =      -1.9504746789415384 [Eh]
	 SCS Correlation Energy    =      -2.1317010435374133 [Eh]
	 SCS Total Energy          =   -1687.7789808506734062 [Eh]
	-----------------------------------------------------------

  Dipole Moment: [D]
     X:     2.1184      Y:     0.2151      Z:    -0.0545     Total:     2.1300

*** Psi4 exiting successfully. Buy a developer a beer!
