                               Psi4 1.4a3.dev225

  ==> Input File <==

--------------------------------------------------------------------------
#psi4
#
memory 32 gb

molecule  {
0 1
 Cl       -1.5623360     0.9145460    -1.3283100
 Cl       -1.8035240    -1.6987570    -0.1947580
 Cl       -1.5102210     0.5498050     1.5667370
  C        0.5425250    -0.2377090    -0.0306430
  C        1.3583330     0.9211750     0.0000800
  C        1.1449540    -1.5037020    -0.0241300
  C        2.7480770     0.7402810    -0.0004710
  C       -0.9732360    -0.1289890    -0.0024010
  C        0.8627320     2.3487980    -0.0134970
  C        2.5304820    -1.6481190    -0.0246080
  C        3.3427940    -0.5189970    -0.0108730
  H        0.5328240    -2.3960530    -0.0303120
  H        3.3795310     1.6262990     0.0194810
  H        0.6542430     2.6831410    -1.0334720
  H       -0.0421520     2.4939510     0.5743960
  H        1.6388160     2.9983140     0.4002560
  H        2.9642350    -2.6446820    -0.0247670
  H        4.6251715    -0.6296991    -0.0082896
units angstrom
no_reorient  #important for SAPT in psi4, default
symmetry c1  #important for SAPT in psi4, default
}

set PROPERTIES_ORIGIN ["COM"]
properties('MP2/aug-cc-pvtz', properties = ['dipole'])
--------------------------------------------------------------------------

    Molecular point group: c1
  Charge       = 0
  Multiplicity = 1
  Basis Set: AUG-CC-PVTZ
    Blend: AUG-CC-PVTZ
  Basis Set: (AUG-CC-PVTZ AUX)
    Blend: AUG-CC-PVTZ-JKFIT

    Orbital Energies [Eh]
    ---------------------

    Doubly Occupied:

       1A   -104.858654     2A   -104.856238     3A   -104.856126
       4A    -11.443034     5A    -11.274968     6A    -11.272517
       7A    -11.268980     8A    -11.254744     9A    -11.247039
      10A    -11.246392    11A    -11.230826    12A    -10.583239
      13A    -10.580821    14A    -10.580791    15A     -8.049932
      16A     -8.047899    17A     -8.047886    18A     -8.047528
      19A     -8.047490    20A     -8.045462    21A     -8.045434
      22A     -8.045425    23A     -8.045385    24A     -1.247018
      25A     -1.165365    26A     -1.107534    27A     -1.105556
      28A     -1.058367    29A     -1.035613    30A     -0.952343
      31A     -0.877591    32A     -0.825861    33A     -0.784279
      34A     -0.699098    35A     -0.668343    36A     -0.636284
      37A     -0.628069    38A     -0.611949    39A     -0.600754
      40A     -0.587909    41A     -0.581979    42A     -0.554410
      43A     -0.509294    44A     -0.506110    45A     -0.502942
      46A     -0.496686    47A     -0.489268    48A     -0.463968
      49A     -0.456219    50A     -0.447565    51A     -0.442312
      52A     -0.352312    53A     -0.340339

  @DF-RHF Final Energy: -1685.62753660034878

   => Energetics <=

    Nuclear Repulsion Energy =            900.4452019300615575
    One-Electron Energy =               -4112.7211827730288860
    Two-Electron Energy =                1526.6484442426185524
    Total Energy =                      -1685.6275366003487761
  Basis Set: (AUG-CC-PVTZ AUX)
    Blend: AUG-CC-PVTZ-RI
    Molecular point group: c1

    Geometry (in Angstrom), charge = 0, multiplicity = 1:

       Center              X                  Y                   Z               Mass
    ------------   -----------------  -----------------  -----------------  -----------------
         CL          -1.475922134992     0.935513622131    -1.329007377417    34.968852682000
         CL          -1.717110134992    -1.677789377869    -0.195455377417    34.968852682000
         CL          -1.423807134992     0.570772622131     1.566039622583    34.968852682000
         C            0.628938865008    -0.216741377869    -0.031340377417    12.000000000000
         C            1.444746865008     0.942142622131    -0.000617377417    12.000000000000
         C            1.231367865008    -1.482734377869    -0.024827377417    12.000000000000
         C            2.834490865008     0.761248622131    -0.001168377417    12.000000000000
         C           -0.886822134992    -0.108021377869    -0.003098377417    12.000000000000
         C            0.949145865008     2.369765622131    -0.014194377417    12.000000000000
         C            2.616895865008    -1.627151377869    -0.025305377417    12.000000000000
         C            3.429207865008    -0.498029377869    -0.011570377417    12.000000000000
         H            0.619237865008    -2.375085377869    -0.031009377417     1.007825032230
         H            3.465944865008     1.647266622131     0.018783622583     1.007825032230
         H            0.740656865008     2.704108622131    -1.034169377417     1.007825032230
         H            0.044261865008     2.514918622131     0.573698622583     1.007825032230
         H            1.725229865008     3.019281622131     0.399558622583     1.007825032230
         H            3.050648865008    -2.623714377869    -0.025464377417     1.007825032230
         H            4.711585365008    -0.608731477869    -0.008986977417     1.007825032230

  Basis Set: AUG-CC-PVTZ
    Blend: AUG-CC-PVTZ
  Basis Set: (AUG-CC-PVTZ AUX)
    Blend: AUG-CC-PVTZ-JKFIT
	 Reference Energy          =   -1685.6275366003487761 [Eh]
	 Singles Energy            =      -0.0000000000000000 [Eh]
	 Same-Spin Energy          =      -0.5440350725579762 [Eh]
	 Opposite-Spin Energy      =      -1.6272034908209512 [Eh]
	 Correlation Energy        =      -2.1712385633789273 [Eh]
	 Total Energy              =   -1687.7987751637276688 [Eh]

	 ================> DF-SCS-MP2 Energies <==================
	-----------------------------------------------------------
	 SCS Same-Spin Scale       =       0.3333333333333333 [-]
	 SCS Opposite-Spin Scale   =       1.2000000000000000 [-]
	 SCS Same-Spin Energy      =      -0.1813450241859921 [Eh]
	 SCS Opposite-Spin Energy  =      -1.9526441889851414 [Eh]
	 SCS Correlation Energy    =      -2.1339892131711333 [Eh]
	 SCS Total Energy          =   -1687.7615258135199383 [Eh]
	-----------------------------------------------------------

  Dipole Moment: [D]
     X:     2.0200      Y:     0.2498      Z:    -0.0541     Total:     2.0361

*** Psi4 exiting successfully. Buy a developer a beer!
