                               Psi4 1.4a3.dev225

  ==> Input File <==

--------------------------------------------------------------------------
#psi4
#
memory 32 gb

molecule  {
0 1
 Cl       -1.5623360     0.9145460    -1.3283100
 Cl       -1.8035240    -1.6987570    -0.1947580
 Cl       -1.5102210     0.5498050     1.5667370
  C        0.5425250    -0.2377090    -0.0306430
  C        1.3583330     0.9211750     0.0000800
  C        1.1019858    -1.4134052    -0.0245945
  C        2.7480770     0.7402810    -0.0004710
  C       -0.9732360    -0.1289890    -0.0024010
  C        0.8627320     2.3487980    -0.0134970
  C        2.5304820    -1.6481190    -0.0246080
  C        3.3427940    -0.5189970    -0.0108730
  H        0.5328240    -2.3960530    -0.0303120
  H        3.3795310     1.6262990     0.0194810
  H        0.6542430     2.6831410    -1.0334720
  H       -0.0421520     2.4939510     0.5743960
  H        1.6388160     2.9983140     0.4002560
  H        2.9642350    -2.6446820    -0.0247670
  H        4.4259130    -0.6124980    -0.0086910
units angstrom
no_reorient  #important for SAPT in psi4, default
symmetry c1  #important for SAPT in psi4, default
}

set PROPERTIES_ORIGIN ["COM"]
properties('MP2/aug-cc-pvtz', properties = ['dipole'])
--------------------------------------------------------------------------

    Molecular point group: c1
  Charge       = 0
  Multiplicity = 1
  Basis Set: AUG-CC-PVTZ
    Blend: AUG-CC-PVTZ
  Basis Set: (AUG-CC-PVTZ AUX)
    Blend: AUG-CC-PVTZ-JKFIT

    Orbital Energies [Eh]
    ---------------------

    Doubly Occupied:

       1A   -104.857540     2A   -104.856320     3A   -104.856067
       4A    -11.442297     5A    -11.266843     6A    -11.264345
       7A    -11.251211     8A    -11.250249     9A    -11.248998
      10A    -11.242477    11A    -11.229287    12A    -10.582120
      13A    -10.580857    14A    -10.580750    15A     -8.048807
      16A     -8.047558    17A     -8.047459    18A     -8.046776
      19A     -8.046764    20A     -8.045506    21A     -8.045457
      22A     -8.045397    23A     -8.045360    24A     -1.248941
      25A     -1.169480    26A     -1.106973    27A     -1.105524
      28A     -1.053121    29A     -1.049657    30A     -0.946257
      31A     -0.880995    32A     -0.826883    33A     -0.791355
      34A     -0.702795    35A     -0.670808    36A     -0.646134
      37A     -0.629095    38A     -0.621893    39A     -0.599505
      40A     -0.587271    41A     -0.575105    42A     -0.555220
      43A     -0.517892    44A     -0.511015    45A     -0.501925
      46A     -0.496395    47A     -0.485320    48A     -0.465209
      49A     -0.455953    50A     -0.445162    51A     -0.441619
      52A     -0.364894    53A     -0.330945

  @DF-RHF Final Energy: -1685.63676853164179

   => Energetics <=

    Nuclear Repulsion Energy =            903.4742496815448476
    One-Electron Energy =               -4118.7984688602891765
    Two-Electron Energy =                1529.6874506471026507
    Total Energy =                      -1685.6367685316417919
  Basis Set: (AUG-CC-PVTZ AUX)
    Blend: AUG-CC-PVTZ-RI
    Molecular point group: c1

    Geometry (in Angstrom), charge = 0, multiplicity = 1:

       Center              X                  Y                   Z               Mass
    ------------   -----------------  -----------------  -----------------  -----------------
         CL          -1.472477090219     0.930219862556    -1.328978629088    34.968852682000
         CL          -1.713665090219    -1.683083137444    -0.195426629088    34.968852682000
         CL          -1.420362090219     0.565478862556     1.566068370912    34.968852682000
         C            0.632383909781    -0.222035137444    -0.031311629088    12.000000000000
         C            1.448191909781     0.936848862556    -0.000588629088    12.000000000000
         C            1.191844709781    -1.397731337444    -0.025263129088    12.000000000000
         C            2.837935909781     0.755954862556    -0.001139629088    12.000000000000
         C           -0.883377090219    -0.113315137444    -0.003069629088    12.000000000000
         C            0.952590909781     2.364471862556    -0.014165629088    12.000000000000
         C            2.620340909781    -1.632445137444    -0.025276629088    12.000000000000
         C            3.432652909781    -0.503323137444    -0.011541629088    12.000000000000
         H            0.622682909781    -2.380379137444    -0.030980629088     1.007825032230
         H            3.469389909781     1.641972862556     0.018812370912     1.007825032230
         H            0.744101909781     2.698814862556    -1.034140629088     1.007825032230
         H            0.047706909781     2.509624862556     0.573727370912     1.007825032230
         H            1.728674909781     3.013987862556     0.399587370912     1.007825032230
         H            3.054093909781    -2.629008137444    -0.025435629088     1.007825032230
         H            4.515771909781    -0.596824137444    -0.009359629088     1.007825032230

  Basis Set: AUG-CC-PVTZ
    Blend: AUG-CC-PVTZ
  Basis Set: (AUG-CC-PVTZ AUX)
    Blend: AUG-CC-PVTZ-JKFIT
	 Reference Energy          =   -1685.6367685316417919 [Eh]
	 Singles Energy            =      -0.0000000000000000 [Eh]
	 Same-Spin Energy          =      -0.5433069219405343 [Eh]
	 Opposite-Spin Energy      =      -1.6253781537932794 [Eh]
	 Correlation Energy        =      -2.1686850757338139 [Eh]
	 Total Energy              =   -1687.8054536073755116 [Eh]

	 ================> DF-SCS-MP2 Energies <==================
	-----------------------------------------------------------
	 SCS Same-Spin Scale       =       0.3333333333333333 [-]
	 SCS Opposite-Spin Scale   =       1.2000000000000000 [-]
	 SCS Same-Spin Energy      =      -0.1811023073135114 [Eh]
	 SCS Opposite-Spin Energy  =      -1.9504537845519352 [Eh]
	 SCS Correlation Energy    =      -2.1315560918654466 [Eh]
	 SCS Total Energy          =   -1687.7683246235071692 [Eh]
	-----------------------------------------------------------

  Dipole Moment: [D]
     X:     2.1273      Y:     0.1893      Z:    -0.0525     Total:     2.1363

*** Psi4 exiting successfully. Buy a developer a beer!
