                               Psi4 1.4a3.dev225

  ==> Input File <==

--------------------------------------------------------------------------
#psi4
#
memory 32 gb

molecule  {
0 1
 Cl       -1.5623360     0.9145460    -1.3283100
 Cl       -1.8035240    -1.6987570    -0.1947580
 Cl       -1.5102210     0.5498050     1.5667370
  C        0.5425250    -0.2377090    -0.0306430
  C        1.3583330     0.9211750     0.0000800
  C        1.1449540    -1.5037020    -0.0241300
  C        2.7480770     0.7402810    -0.0004710
  C       -0.9732360    -0.1289890    -0.0024010
  C        0.8627320     2.3487980    -0.0134970
  C        2.5304820    -1.6481190    -0.0246080
  C        3.3427940    -0.5189970    -0.0108730
  H        0.6459570    -2.2311299    -0.0291695
  H        3.3795310     1.6262990     0.0194810
  H        0.6542430     2.6831410    -1.0334720
  H       -0.0421520     2.4939510     0.5743960
  H        1.6388160     2.9983140     0.4002560
  H        2.9642350    -2.6446820    -0.0247670
  H        4.4259130    -0.6124980    -0.0086910
units angstrom
no_reorient  #important for SAPT in psi4, default
symmetry c1  #important for SAPT in psi4, default
}

set PROPERTIES_ORIGIN ["COM"]
properties('MP2/aug-cc-pvtz', properties = ['dipole'])
--------------------------------------------------------------------------

    Molecular point group: c1
  Charge       = 0
  Multiplicity = 1
  Basis Set: AUG-CC-PVTZ
    Blend: AUG-CC-PVTZ
  Basis Set: (AUG-CC-PVTZ AUX)
    Blend: AUG-CC-PVTZ-JKFIT

    Orbital Energies [Eh]
    ---------------------

    Doubly Occupied:

       1A   -104.858671     2A   -104.855759     3A   -104.855604
       4A    -11.442459     5A    -11.273282     6A    -11.266682
       7A    -11.250779     8A    -11.244502     9A    -11.244298
      10A    -11.231129    11A    -11.229611    12A    -10.583164
      13A    -10.580321    14A    -10.580303    15A     -8.049875
      16A     -8.047825    17A     -8.047816    18A     -8.047019
      19A     -8.047012    20A     -8.044963    21A     -8.044946
      22A     -8.044915    23A     -8.044910    24A     -1.246758
      25A     -1.166018    26A     -1.107489    27A     -1.105090
      28A     -1.061125    29A     -1.043172    30A     -0.953403
      31A     -0.888735    32A     -0.840199    33A     -0.788718
      34A     -0.713154    35A     -0.672083    36A     -0.663988
      37A     -0.627553    38A     -0.625154    39A     -0.599980
      40A     -0.586992    41A     -0.583064    42A     -0.555130
      43A     -0.524838    44A     -0.508720    45A     -0.507348
      46A     -0.495698    47A     -0.489960    48A     -0.464548
      49A     -0.455734    50A     -0.448492    51A     -0.441940
      52A     -0.351038    53A     -0.338789

  @DF-RHF Final Energy: -1685.61426671465006

   => Energetics <=

    Nuclear Repulsion Energy =            902.5684911025907695
    One-Electron Energy =               -4116.8240121396684117
    Two-Electron Energy =                1528.6412543224273577
    Total Energy =                      -1685.6142667146500571
  Basis Set: (AUG-CC-PVTZ AUX)
    Blend: AUG-CC-PVTZ-RI
    Molecular point group: c1

    Geometry (in Angstrom), charge = 0, multiplicity = 1:

       Center              X                  Y                   Z               Mass
    ------------   -----------------  -----------------  -----------------  -----------------
         CL          -1.475504752426     0.934631009364    -1.329010968946    34.968852682000
         CL          -1.716692752426    -1.678671990636    -0.195458968946    34.968852682000
         CL          -1.423389752426     0.569890009364     1.566036031054    34.968852682000
         C            0.629356247574    -0.217623990636    -0.031343968946    12.000000000000
         C            1.445164247574     0.941260009364    -0.000620968946    12.000000000000
         C            1.231785247574    -1.483616990636    -0.024830968946    12.000000000000
         C            2.834908247574     0.760366009364    -0.001171968946    12.000000000000
         C           -0.886404752426    -0.108903990636    -0.003101968946    12.000000000000
         C            0.949563247574     2.368883009364    -0.014197968946    12.000000000000
         C            2.617313247574    -1.628033990636    -0.025308968946    12.000000000000
         C            3.429625247574    -0.498911990636    -0.011573968946    12.000000000000
         H            0.732788247574    -2.211044890636    -0.029870468946     1.007825032230
         H            3.466362247574     1.646384009364     0.018780031054     1.007825032230
         H            0.741074247574     2.703226009364    -1.034172968946     1.007825032230
         H            0.044679247574     2.514036009364     0.573695031054     1.007825032230
         H            1.725647247574     3.018399009364     0.399555031054     1.007825032230
         H            3.051066247574    -2.624596990636    -0.025467968946     1.007825032230
         H            4.512744247574    -0.592412990636    -0.009391968946     1.007825032230

  Basis Set: AUG-CC-PVTZ
    Blend: AUG-CC-PVTZ
  Basis Set: (AUG-CC-PVTZ AUX)
    Blend: AUG-CC-PVTZ-JKFIT
	 Reference Energy          =   -1685.6142667146500571 [Eh]
	 Singles Energy            =      -0.0000000000000000 [Eh]
	 Same-Spin Energy          =      -0.5429122981465827 [Eh]
	 Opposite-Spin Energy      =      -1.6240580229078208 [Eh]
	 Correlation Energy        =      -2.1669703210544036 [Eh]
	 Total Energy              =   -1687.7812370357044074 [Eh]

	 ================> DF-SCS-MP2 Energies <==================
	-----------------------------------------------------------
	 SCS Same-Spin Scale       =       0.3333333333333333 [-]
	 SCS Opposite-Spin Scale   =       1.2000000000000000 [-]
	 SCS Same-Spin Energy      =      -0.1809707660488609 [Eh]
	 SCS Opposite-Spin Energy  =      -1.9488696274893849 [Eh]
	 SCS Correlation Energy    =      -2.1298403935382457 [Eh]
	 SCS Total Energy          =   -1687.7441071081882455 [Eh]
	-----------------------------------------------------------

  Dipole Moment: [D]
     X:     2.1468      Y:     0.2445      Z:    -0.0534     Total:     2.1614

*** Psi4 exiting successfully. Buy a developer a beer!
