                               Psi4 1.4a3.dev225

  ==> Input File <==

--------------------------------------------------------------------------
#psi4
#
memory 32 gb

molecule  {
0 1
 Cl       -1.5623360     0.9145460    -1.3283100
 Cl       -1.8035240    -1.6987570    -0.1947580
 Cl       -1.5102210     0.5498050     1.5667370
  C        0.5425250    -0.2377090    -0.0306430
  C        1.3583330     0.9211750     0.0000800
  C        1.1449540    -1.5037020    -0.0241300
  C        2.7480770     0.7402810    -0.0004710
  C       -0.9732360    -0.1289890    -0.0024010
  C        0.8627320     2.3487980    -0.0134970
  C        2.5304820    -1.6481190    -0.0246080
  C        3.3427940    -0.5189970    -0.0108730
  H        0.5328240    -2.3960530    -0.0303120
  H        3.3795310     1.6262990     0.0194810
  H        0.6542430     2.6831410    -1.0334720
  H       -0.0421520     2.4939510     0.5743960
  H        1.6388160     2.9983140     0.4002560
  H        2.9642350    -2.6446820    -0.0247670
  H        4.3262837    -0.6038974    -0.0088917
units angstrom
no_reorient  #important for SAPT in psi4, default
symmetry c1  #important for SAPT in psi4, default
}

set PROPERTIES_ORIGIN ["COM"]
properties('MP2/aug-cc-pvtz', properties = ['dipole'])
--------------------------------------------------------------------------

    Molecular point group: c1
  Charge       = 0
  Multiplicity = 1
  Basis Set: AUG-CC-PVTZ
    Blend: AUG-CC-PVTZ
  Basis Set: (AUG-CC-PVTZ AUX)
    Blend: AUG-CC-PVTZ-JKFIT

    Orbital Energies [Eh]
    ---------------------

    Doubly Occupied:

       1A   -104.857857     2A   -104.855520     3A   -104.855402
       4A    -11.442213     5A    -11.273771     6A    -11.266862
       7A    -11.252566     8A    -11.244218     9A    -11.243622
      10A    -11.239133    11A    -11.229608    12A    -10.582445
      13A    -10.580100    14A    -10.580077    15A     -8.049138
      16A     -8.047106    17A     -8.047094    18A     -8.046807
      19A     -8.046777    20A     -8.044742    21A     -8.044722
      22A     -8.044705    23A     -8.044673    24A     -1.246156
      25A     -1.164886    26A     -1.106746    27A     -1.104839
      28A     -1.058894    29A     -1.039814    30A     -0.951063
      31A     -0.887268    32A     -0.824744    33A     -0.793249
      34A     -0.707821    35A     -0.667416    36A     -0.662505
      37A     -0.627279    38A     -0.618711    39A     -0.599633
      40A     -0.586854    41A     -0.581818    42A     -0.555915
      43A     -0.526598    44A     -0.507508    45A     -0.503693
      46A     -0.495406    47A     -0.488707    48A     -0.463920
      49A     -0.455475    50A     -0.447166    51A     -0.441591
      52A     -0.350734    53A     -0.338556

  @DF-RHF Final Energy: -1685.64391112688395

   => Energetics <=

    Nuclear Repulsion Energy =            902.0452017781495897
    One-Electron Energy =               -4115.9299800254748334
    Two-Electron Energy =                1528.2408671204414077
    Total Energy =                      -1685.6439111268839497
  Basis Set: (AUG-CC-PVTZ AUX)
    Blend: AUG-CC-PVTZ-RI
    Molecular point group: c1

    Geometry (in Angstrom), charge = 0, multiplicity = 1:

       Center              X                  Y                   Z               Mass
    ------------   -----------------  -----------------  -----------------  -----------------
         CL          -1.474473660884     0.935388581582    -1.329004459512    34.968852682000
         CL          -1.715661660884    -1.677914418418    -0.195452459512    34.968852682000
         CL          -1.422358660884     0.570647581582     1.566042540488    34.968852682000
         C            0.630387339116    -0.216866418418    -0.031337459512    12.000000000000
         C            1.446195339116     0.942017581582    -0.000614459512    12.000000000000
         C            1.232816339116    -1.482859418418    -0.024824459512    12.000000000000
         C            2.835939339116     0.761123581582    -0.001165459512    12.000000000000
         C           -0.885373660884    -0.108146418418    -0.003095459512    12.000000000000
         C            0.950594339116     2.369640581582    -0.014191459512    12.000000000000
         C            2.618344339116    -1.627276418418    -0.025302459512    12.000000000000
         C            3.430656339116    -0.498154418418    -0.011567459512    12.000000000000
         H            0.620686339116    -2.375210418418    -0.031006459512     1.007825032230
         H            3.467393339116     1.647141581582     0.018786540488     1.007825032230
         H            0.742105339116     2.703983581582    -1.034166459512     1.007825032230
         H            0.045710339116     2.514793581582     0.573701540488     1.007825032230
         H            1.726678339116     3.019156581582     0.399561540488     1.007825032230
         H            3.052097339116    -2.623839418418    -0.025461459512     1.007825032230
         H            4.414146039116    -0.583054818418    -0.009586159512     1.007825032230

  Basis Set: AUG-CC-PVTZ
    Blend: AUG-CC-PVTZ
  Basis Set: (AUG-CC-PVTZ AUX)
    Blend: AUG-CC-PVTZ-JKFIT
	 Reference Energy          =   -1685.6439111268839497 [Eh]
	 Singles Energy            =      -0.0000000000000000 [Eh]
	 Same-Spin Energy          =      -0.5434096570372755 [Eh]
	 Opposite-Spin Energy      =      -1.6244465738749552 [Eh]
	 Correlation Energy        =      -2.1678562309122307 [Eh]
	 Total Energy              =   -1687.8117673577962705 [Eh]

	 ================> DF-SCS-MP2 Energies <==================
	-----------------------------------------------------------
	 SCS Same-Spin Scale       =       0.3333333333333333 [-]
	 SCS Opposite-Spin Scale   =       1.2000000000000000 [-]
	 SCS Same-Spin Energy      =      -0.1811365523457585 [Eh]
	 SCS Opposite-Spin Energy  =      -1.9493358886499461 [Eh]
	 SCS Correlation Energy    =      -2.1304724409957045 [Eh]
	 SCS Total Energy          =   -1687.7743835678795676 [Eh]
	-----------------------------------------------------------

  Dipole Moment: [D]
     X:     2.1607      Y:     0.2261      Z:    -0.0541     Total:     2.1732

*** Psi4 exiting successfully. Buy a developer a beer!
