                               Psi4 1.4a3.dev225

  ==> Input File <==

--------------------------------------------------------------------------
#psi4
#
memory 32 gb

molecule  {
0 1
 Cl       -1.5623360     0.9145460    -1.3283100
 Cl       -1.8035240    -1.6987570    -0.1947580
 Cl       -1.5102210     0.5498050     1.5667370
  C        0.5425250    -0.2377090    -0.0306430
  C        1.3583330     0.9211750     0.0000800
  C        1.1449540    -1.5037020    -0.0241300
  C        2.7480770     0.7402810    -0.0004710
  C       -0.9732360    -0.1289890    -0.0024010
  C        0.8627320     2.3487980    -0.0134970
  C        2.5304820    -1.6481190    -0.0246080
  C        3.3427940    -0.5189970    -0.0108730
  H        0.5328240    -2.3960530    -0.0303120
  H        3.3795310     1.6262990     0.0194810
  H        0.6542430     2.6831410    -1.0334720
  H        0.0409558     2.4806196     0.5204018
  H        1.6388160     2.9983140     0.4002560
  H        2.9642350    -2.6446820    -0.0247670
  H        4.4259130    -0.6124980    -0.0086910
units angstrom
no_reorient  #important for SAPT in psi4, default
symmetry c1  #important for SAPT in psi4, default
}

set PROPERTIES_ORIGIN ["COM"]
properties('MP2/aug-cc-pvtz', properties = ['dipole'])
--------------------------------------------------------------------------

    Molecular point group: c1
  Charge       = 0
  Multiplicity = 1
  Basis Set: AUG-CC-PVTZ
    Blend: AUG-CC-PVTZ
  Basis Set: (AUG-CC-PVTZ AUX)
    Blend: AUG-CC-PVTZ-JKFIT

    Orbital Energies [Eh]
    ---------------------

    Doubly Occupied:

       1A   -104.858091     2A   -104.855950     3A   -104.855851
       4A    -11.442483     5A    -11.273786     6A    -11.266785
       7A    -11.252961     8A    -11.250970     9A    -11.244514
      10A    -11.243673    11A    -11.218565    12A    -10.582679
      13A    -10.580544    14A    -10.580472    15A     -8.049372
      16A     -8.047340    17A     -8.047327    18A     -8.047252
      19A     -8.047175    20A     -8.045188    21A     -8.045150
      22A     -8.045114    23A     -8.045068    24A     -1.246465
      25A     -1.164554    26A     -1.107154    27A     -1.105131
      28A     -1.060310    29A     -1.037460    30A     -0.958666
      31A     -0.883757    32A     -0.825637    33A     -0.790088
      34A     -0.703997    35A     -0.668852    36A     -0.652545
      37A     -0.627681    38A     -0.617513    39A     -0.599834
      40A     -0.596490    41A     -0.582304    42A     -0.559397
      43A     -0.522169    44A     -0.508819    45A     -0.503813
      46A     -0.495625    47A     -0.490223    48A     -0.464304
      49A     -0.455807    50A     -0.448690    51A     -0.441818
      52A     -0.350828    53A     -0.338931

  @DF-RHF Final Energy: -1685.64380113227753

   => Energetics <=

    Nuclear Repulsion Energy =            901.8199335538801051
    One-Electron Energy =               -4115.4571252249625104
    Two-Electron Energy =                1527.9933905388047606
    Total Energy =                      -1685.6438011322775310
  Basis Set: (AUG-CC-PVTZ AUX)
    Blend: AUG-CC-PVTZ-RI
    Molecular point group: c1

    Geometry (in Angstrom), charge = 0, multiplicity = 1:

       Center              X                  Y                   Z               Mass
    ------------   -----------------  -----------------  -----------------  -----------------
         CL          -1.475359243895     0.935494868738    -1.328743764723    34.968852682000
         CL          -1.716547243895    -1.677808131262    -0.195191764723    34.968852682000
         CL          -1.423244243895     0.570753868738     1.566303235277    34.968852682000
         C            0.629501756105    -0.216760131262    -0.031076764723    12.000000000000
         C            1.445309756105     0.942123868738    -0.000353764723    12.000000000000
         C            1.231930756105    -1.482753131262    -0.024563764723    12.000000000000
         C            2.835053756105     0.761229868738    -0.000904764723    12.000000000000
         C           -0.886259243895    -0.108040131262    -0.002834764723    12.000000000000
         C            0.949708756105     2.369746868738    -0.013930764723    12.000000000000
         C            2.617458756105    -1.627170131262    -0.025041764723    12.000000000000
         C            3.429770756105    -0.498048131262    -0.011306764723    12.000000000000
         H            0.619800756105    -2.375104131262    -0.030745764723     1.007825032230
         H            3.466507756105     1.647247868738     0.019047235277     1.007825032230
         H            0.741219756105     2.704089868738    -1.033905764723     1.007825032230
         H            0.127932556105     2.501568468738     0.519968035277     1.007825032230
         H            1.725792756105     3.019262868738     0.399822235277     1.007825032230
         H            3.051211756105    -2.623733131262    -0.025200764723     1.007825032230
         H            4.512889756105    -0.591549131262    -0.009124764723     1.007825032230

  Basis Set: AUG-CC-PVTZ
    Blend: AUG-CC-PVTZ
  Basis Set: (AUG-CC-PVTZ AUX)
    Blend: AUG-CC-PVTZ-JKFIT
	 Reference Energy          =   -1685.6438011322775310 [Eh]
	 Singles Energy            =      -0.0000000000000000 [Eh]
	 Same-Spin Energy          =      -0.5433042856312978 [Eh]
	 Opposite-Spin Energy      =      -1.6242351693090995 [Eh]
	 Correlation Energy        =      -2.1675394549403975 [Eh]
	 Total Energy              =   -1687.8113405872179555 [Eh]

	 ================> DF-SCS-MP2 Energies <==================
	-----------------------------------------------------------
	 SCS Same-Spin Scale       =       0.3333333333333333 [-]
	 SCS Opposite-Spin Scale   =       1.2000000000000000 [-]
	 SCS Same-Spin Energy      =      -0.1811014285437659 [Eh]
	 SCS Opposite-Spin Energy  =      -1.9490822031709194 [Eh]
	 SCS Correlation Energy    =      -2.1301836317146852 [Eh]
	 SCS Total Energy          =   -1687.7739847639923028 [Eh]
	-----------------------------------------------------------

  Dipole Moment: [D]
     X:     2.1140      Y:     0.2522      Z:    -0.0493     Total:     2.1295

*** Psi4 exiting successfully. Buy a developer a beer!
