                               Psi4 1.4a3.dev225

  ==> Input File <==

--------------------------------------------------------------------------
#psi4
#
memory 32 gb

molecule  {
0 1
 Cl       -1.5623360     0.9145460    -1.3283100
 Cl       -1.8035240    -1.6987570    -0.1947580
 Cl       -1.5102210     0.5498050     1.5667370
  C        0.5425250    -0.2377090    -0.0306430
  C        1.3583330     0.9211750     0.0000800
  C        1.1449540    -1.5037020    -0.0241300
  C        2.7480770     0.7402810    -0.0004710
  C       -0.9732360    -0.1289890    -0.0024010
  C        0.8627320     2.3487980    -0.0134970
  C        2.5304820    -1.6481190    -0.0246080
  C        3.3427940    -0.5189970    -0.0108730
  H        0.5328240    -2.3960530    -0.0303120
  H        3.3795310     1.6262990     0.0194810
  H        0.6542430     2.6831410    -1.0334720
  H       -0.0421520     2.4939510     0.5743960
  H        1.6388160     2.9983140     0.4002560
  H        2.9642350    -2.6446820    -0.0247670
  H        4.5255423    -0.6210986    -0.0084903
units angstrom
no_reorient  #important for SAPT in psi4, default
symmetry c1  #important for SAPT in psi4, default
}

set PROPERTIES_ORIGIN ["COM"]
properties('MP2/aug-cc-pvtz', properties = ['dipole'])
--------------------------------------------------------------------------

    Molecular point group: c1
  Charge       = 0
  Multiplicity = 1
  Basis Set: AUG-CC-PVTZ
    Blend: AUG-CC-PVTZ
  Basis Set: (AUG-CC-PVTZ AUX)
    Blend: AUG-CC-PVTZ-JKFIT

    Orbital Energies [Eh]
    ---------------------

    Doubly Occupied:

       1A   -104.858300     2A   -104.855907     3A   -104.855795
       4A    -11.442659     5A    -11.274389     6A    -11.268120
       7A    -11.262346     8A    -11.253859     9A    -11.245791
      10A    -11.245171    11A    -11.230320    12A    -10.582887
      13A    -10.580491    14A    -10.580462    15A     -8.049579
      16A     -8.047547    17A     -8.047535    18A     -8.047198
      19A     -8.047161    20A     -8.045132    21A     -8.045106
      22A     -8.045095    23A     -8.045056    24A     -1.246627
      25A     -1.164832    26A     -1.107178    27A     -1.105228
      28A     -1.058010    29A     -1.036277    30A     -0.951742
      31A     -0.879396    32A     -0.825287    33A     -0.785983
      34A     -0.700507    35A     -0.667670    36A     -0.642693
      37A     -0.627714    38A     -0.615481    39A     -0.600284
      40A     -0.587459    41A     -0.581860    42A     -0.554736
      43A     -0.513716    44A     -0.508074    45A     -0.504852
      46A     -0.496137    47A     -0.489081    48A     -0.463995
      49A     -0.455881    50A     -0.447407    51A     -0.441988
      52A     -0.351570    53A     -0.339591

  @DF-RHF Final Energy: -1685.64238183059570

   => Energetics <=

    Nuclear Repulsion Energy =            900.9237499814853436
    One-Electron Energy =               -4113.7179407621006249
    Two-Electron Energy =                1527.1518089500195856
    Total Energy =                      -1685.6423818305956956
  Basis Set: (AUG-CC-PVTZ AUX)
    Blend: AUG-CC-PVTZ-RI
    Molecular point group: c1

    Geometry (in Angstrom), charge = 0, multiplicity = 1:

       Center              X                  Y                   Z               Mass
    ------------   -----------------  -----------------  -----------------  -----------------
         CL          -1.475439310612     0.935471942271    -1.329006404782    34.968852682000
         CL          -1.716627310612    -1.677831057729    -0.195454404782    34.968852682000
         CL          -1.423324310612     0.570730942271     1.566040595218    34.968852682000
         C            0.629421689388    -0.216783057729    -0.031339404782    12.000000000000
         C            1.445229689388     0.942100942271    -0.000616404782    12.000000000000
         C            1.231850689388    -1.482776057729    -0.024826404782    12.000000000000
         C            2.834973689388     0.761206942271    -0.001167404782    12.000000000000
         C           -0.886339310612    -0.108063057729    -0.003097404782    12.000000000000
         C            0.949628689388     2.369723942271    -0.014193404782    12.000000000000
         C            2.617378689388    -1.627193057729    -0.025304404782    12.000000000000
         C            3.429690689388    -0.498071057729    -0.011569404782    12.000000000000
         H            0.619720689388    -2.375127057729    -0.031008404782     1.007825032230
         H            3.466427689388     1.647224942271     0.018784595218     1.007825032230
         H            0.741139689388     2.704066942271    -1.034168404782     1.007825032230
         H            0.044744689388     2.514876942271     0.573699595218     1.007825032230
         H            1.725712689388     3.019239942271     0.399559595218     1.007825032230
         H            3.051131689388    -2.623756057729    -0.025463404782     1.007825032230
         H            4.612438989388    -0.600172657729    -0.009186704782     1.007825032230

  Basis Set: AUG-CC-PVTZ
    Blend: AUG-CC-PVTZ
  Basis Set: (AUG-CC-PVTZ AUX)
    Blend: AUG-CC-PVTZ-JKFIT
	 Reference Energy          =   -1685.6423818305956956 [Eh]
	 Singles Energy            =      -0.0000000000000000 [Eh]
	 Same-Spin Energy          =      -0.5437662714077147 [Eh]
	 Opposite-Spin Energy      =      -1.6259309697847111 [Eh]
	 Correlation Energy        =      -2.1696972411924258 [Eh]
	 Total Energy              =   -1687.8120790717880482 [Eh]

	 ================> DF-SCS-MP2 Energies <==================
	-----------------------------------------------------------
	 SCS Same-Spin Scale       =       0.3333333333333333 [-]
	 SCS Opposite-Spin Scale   =       1.2000000000000000 [-]
	 SCS Same-Spin Energy      =      -0.1812554238025716 [Eh]
	 SCS Opposite-Spin Energy  =      -1.9511171637416531 [Eh]
	 SCS Correlation Energy    =      -2.1323725875442245 [Eh]
	 SCS Total Energy          =   -1687.7747544181399917 [Eh]
	-----------------------------------------------------------

  Dipole Moment: [D]
     X:     2.0853      Y:     0.2393      Z:    -0.0541     Total:     2.0996

*** Psi4 exiting successfully. Buy a developer a beer!
