                               Psi4 1.4a3.dev225

  ==> Input File <==

--------------------------------------------------------------------------
#psi4
#
memory 32 gb

molecule  {
0 1
 Cl       -1.5623360     0.9145460    -1.3283100
 Cl       -1.8035240    -1.6987570    -0.1947580
 Cl       -1.5102210     0.5498050     1.5667370
  C        0.5425250    -0.2377090    -0.0306430
  C        1.3583330     0.9211750     0.0000800
  C        1.1449540    -1.5037020    -0.0241300
  C        2.7480770     0.7402810    -0.0004710
  C       -0.9732360    -0.1289890    -0.0024010
  C        0.8627320     2.3487980    -0.0134970
  C        2.5304820    -1.6481190    -0.0246080
  C        3.3427940    -0.5189970    -0.0108730
  H        0.5328240    -2.3960530    -0.0303120
  H        3.3795310     1.6262990     0.0194810
  H        0.6542430     2.6831410    -1.0334720
  H       -0.1252598     2.5072824     0.6283902
  H        1.6388160     2.9983140     0.4002560
  H        2.9642350    -2.6446820    -0.0247670
  H        4.4259130    -0.6124980    -0.0086910
units angstrom
no_reorient  #important for SAPT in psi4, default
symmetry c1  #important for SAPT in psi4, default
}

set PROPERTIES_ORIGIN ["COM"]
properties('MP2/aug-cc-pvtz', properties = ['dipole'])
--------------------------------------------------------------------------

    Molecular point group: c1
  Charge       = 0
  Multiplicity = 1
  Basis Set: AUG-CC-PVTZ
    Blend: AUG-CC-PVTZ
  Basis Set: (AUG-CC-PVTZ AUX)
    Blend: AUG-CC-PVTZ-JKFIT

    Orbital Energies [Eh]
    ---------------------

    Doubly Occupied:

       1A   -104.857988     2A   -104.855369     3A   -104.855246
       4A    -11.442299     5A    -11.274306     6A    -11.268190
       7A    -11.253377     8A    -11.251657     9A    -11.245153
      10A    -11.244820    11A    -11.240456    12A    -10.582576
      13A    -10.579964    14A    -10.579943    15A     -8.049269
      16A     -8.047237    17A     -8.047225    18A     -8.046656
      19A     -8.046651    20A     -8.044608    21A     -8.044584
      22A     -8.044554    23A     -8.044549    24A     -1.246230
      25A     -1.164890    26A     -1.106727    27A     -1.104832
      28A     -1.056893    29A     -1.037935    30A     -0.946177
      31A     -0.881385    32A     -0.824508    33A     -0.787934
      34A     -0.702793    35A     -0.666207    36A     -0.652338
      37A     -0.627275    38A     -0.617931    39A     -0.600155
      40A     -0.584368    41A     -0.578734    42A     -0.549210
      43A     -0.519865    44A     -0.506114    45A     -0.504721
      46A     -0.495805    47A     -0.486558    48A     -0.463547
      49A     -0.455445    50A     -0.444912    51A     -0.441639
      52A     -0.351334    53A     -0.339108

  @DF-RHF Final Energy: -1685.64265681407733

   => Energetics <=

    Nuclear Repulsion Energy =            901.1344623632671755
    One-Electron Energy =               -4114.1697421961061991
    Two-Electron Energy =                1527.3926230187616966
    Total Energy =                      -1685.6426568140773270
  Basis Set: (AUG-CC-PVTZ AUX)
    Blend: AUG-CC-PVTZ-RI
    Molecular point group: c1

    Geometry (in Angstrom), charge = 0, multiplicity = 1:

       Center              X                  Y                   Z               Mass
    ------------   -----------------  -----------------  -----------------  -----------------
         CL          -1.474553727601     0.935365655115    -1.329267099571    34.968852682000
         CL          -1.715741727601    -1.677937344885    -0.195715099571    34.968852682000
         CL          -1.422438727601     0.570624655115     1.565779900429    34.968852682000
         C            0.630307272399    -0.216889344885    -0.031600099571    12.000000000000
         C            1.446115272399     0.941994655115    -0.000877099571    12.000000000000
         C            1.232736272399    -1.482882344885    -0.025087099571    12.000000000000
         C            2.835859272399     0.761100655115    -0.001428099571    12.000000000000
         C           -0.885453727601    -0.108169344885    -0.003358099571    12.000000000000
         C            0.950514272399     2.369617655115    -0.014454099571    12.000000000000
         C            2.618264272399    -1.627299344885    -0.025565099571    12.000000000000
         C            3.430576272399    -0.498177344885    -0.011830099571    12.000000000000
         H            0.620606272399    -2.375233344885    -0.031269099571     1.007825032230
         H            3.467313272399     1.647118655115     0.018523900429     1.007825032230
         H            0.742025272399     2.703960655115    -1.034429099571     1.007825032230
         H           -0.037477527601     2.528102055115     0.627433100429     1.007825032230
         H            1.726598272399     3.019133655115     0.399298900429     1.007825032230
         H            3.052017272399    -2.623862344885    -0.025724099571     1.007825032230
         H            4.513695272399    -0.591678344885    -0.009648099571     1.007825032230

  Basis Set: AUG-CC-PVTZ
    Blend: AUG-CC-PVTZ
  Basis Set: (AUG-CC-PVTZ AUX)
    Blend: AUG-CC-PVTZ-JKFIT
	 Reference Energy          =   -1685.6426568140773270 [Eh]
	 Singles Energy            =      -0.0000000000000000 [Eh]
	 Same-Spin Energy          =      -0.5438653168023845 [Eh]
	 Opposite-Spin Energy      =      -1.6260003140006902 [Eh]
	 Correlation Energy        =      -2.1698656308030748 [Eh]
	 Total Energy              =   -1687.8125224448804147 [Eh]

	 ================> DF-SCS-MP2 Energies <==================
	-----------------------------------------------------------
	 SCS Same-Spin Scale       =       0.3333333333333333 [-]
	 SCS Opposite-Spin Scale   =       1.2000000000000000 [-]
	 SCS Same-Spin Energy      =      -0.1812884389341282 [Eh]
	 SCS Opposite-Spin Energy  =      -1.9512003768008281 [Eh]
	 SCS Correlation Energy    =      -2.1324888157349564 [Eh]
	 SCS Total Energy          =   -1687.7751456298121866 [Eh]
	-----------------------------------------------------------

  Dipole Moment: [D]
     X:     2.1562      Y:     0.2013      Z:    -0.0621     Total:     2.1664

*** Psi4 exiting successfully. Buy a developer a beer!
