                               Psi4 1.4a3.dev225

  ==> Input File <==

--------------------------------------------------------------------------
#psi4
#
memory 32 gb

molecule  {
0 1
 Cl       -1.5623360     0.9145460    -1.3283100
 Cl       -1.8035240    -1.6987570    -0.1947580
 Cl       -1.5102210     0.5498050     1.5667370
  C        0.5425250    -0.2377090    -0.0306430
  C        1.3583330     0.9211750     0.0000800
  C        1.1449540    -1.5037020    -0.0241300
  C        2.7480770     0.7402810    -0.0004710
  C       -0.9732360    -0.1289890    -0.0024010
  C        0.8627320     2.3487980    -0.0134970
  C        2.5304820    -1.6481190    -0.0246080
  C        3.3427940    -0.5189970    -0.0108730
  H        0.5328240    -2.3960530    -0.0303120
  H        3.3795310     1.6262990     0.0194810
  H        0.6542430     2.6831410    -1.0334720
  H        0.1240635     2.4672883     0.4664076
  H        1.6388160     2.9983140     0.4002560
  H        2.9642350    -2.6446820    -0.0247670
  H        4.4259130    -0.6124980    -0.0086910
units angstrom
no_reorient  #important for SAPT in psi4, default
symmetry c1  #important for SAPT in psi4, default
}

set PROPERTIES_ORIGIN ["COM"]
properties('MP2/aug-cc-pvtz', properties = ['dipole'])
--------------------------------------------------------------------------

    Molecular point group: c1
  Charge       = 0
  Multiplicity = 1
  Basis Set: AUG-CC-PVTZ
    Blend: AUG-CC-PVTZ
  Basis Set: (AUG-CC-PVTZ AUX)
    Blend: AUG-CC-PVTZ-JKFIT

    Orbital Energies [Eh]
    ---------------------

    Doubly Occupied:

       1A   -104.858145     2A   -104.856192     3A   -104.856117
       4A    -11.442575     5A    -11.273684     6A    -11.266328
       7A    -11.252851     8A    -11.250756     9A    -11.244355
      10A    -11.243326    11A    -11.207128    12A    -10.582733
      13A    -10.580806    14A    -10.580680    15A     -8.049426
      16A     -8.047514    17A     -8.047394    18A     -8.047386
      19A     -8.047381    20A     -8.045451    21A     -8.045413
      22A     -8.045322    23A     -8.045278    24A     -1.246593
      25A     -1.164666    26A     -1.107460    27A     -1.105240
      28A     -1.064124    29A     -1.037375    30A     -0.968496
      31A     -0.885218    32A     -0.826705    33A     -0.791551
      34A     -0.705381    35A     -0.671252    36A     -0.652887
      37A     -0.628028    38A     -0.617855    39A     -0.608189
      40A     -0.599479    41A     -0.582342    42A     -0.561717
      43A     -0.522977    44A     -0.509437    45A     -0.503569
      46A     -0.495568    47A     -0.491037    48A     -0.464607
      49A     -0.455951    50A     -0.449573    51A     -0.441866
      52A     -0.350686    53A     -0.338929

  @DF-RHF Final Energy: -1685.61512689152278

   => Energetics <=

    Nuclear Repulsion Energy =            902.2523949411711328
    One-Electron Energy =               -4116.2050428726297469
    Two-Electron Energy =                1528.3375210399358366
    Total Energy =                      -1685.6151268915227774
  Basis Set: (AUG-CC-PVTZ AUX)
    Blend: AUG-CC-PVTZ-RI
    Molecular point group: c1

    Geometry (in Angstrom), charge = 0, multiplicity = 1:

       Center              X                  Y                   Z               Mass
    ------------   -----------------  -----------------  -----------------  -----------------
         CL          -1.475762001557     0.935559475065    -1.328482097299    34.968852682000
         CL          -1.716950001557    -1.677743524935    -0.194930097299    34.968852682000
         CL          -1.423647001557     0.570818475065     1.566564902701    34.968852682000
         C            0.629098998443    -0.216695524935    -0.030815097299    12.000000000000
         C            1.444906998443     0.942188475065    -0.000092097299    12.000000000000
         C            1.231527998443    -1.482688524935    -0.024302097299    12.000000000000
         C            2.834650998443     0.761294475065    -0.000643097299    12.000000000000
         C           -0.886662001557    -0.107975524935    -0.002573097299    12.000000000000
         C            0.949305998443     2.369811475065    -0.013669097299    12.000000000000
         C            2.617055998443    -1.627105524935    -0.024780097299    12.000000000000
         C            3.429367998443    -0.497983524935    -0.011045097299    12.000000000000
         H            0.619397998443    -2.375039524935    -0.030484097299     1.007825032230
         H            3.466104998443     1.647312475065     0.019308902701     1.007825032230
         H            0.740816998443     2.704154475065    -1.033644097299     1.007825032230
         H            0.210637498443     2.488301775065     0.466235502701     1.007825032230
         H            1.725389998443     3.019327475065     0.400083902701     1.007825032230
         H            3.050808998443    -2.623668524935    -0.024939097299     1.007825032230
         H            4.512486998443    -0.591484524935    -0.008863097299     1.007825032230

  Basis Set: AUG-CC-PVTZ
    Blend: AUG-CC-PVTZ
  Basis Set: (AUG-CC-PVTZ AUX)
    Blend: AUG-CC-PVTZ-JKFIT
	 Reference Energy          =   -1685.6151268915227774 [Eh]
	 Singles Energy            =      -0.0000000000000000 [Eh]
	 Same-Spin Energy          =      -0.5431647438674780 [Eh]
	 Opposite-Spin Energy      =      -1.6238907244558614 [Eh]
	 Correlation Energy        =      -2.1670554683233396 [Eh]
	 Total Energy              =   -1687.7821823598460469 [Eh]

	 ================> DF-SCS-MP2 Energies <==================
	-----------------------------------------------------------
	 SCS Same-Spin Scale       =       0.3333333333333333 [-]
	 SCS Opposite-Spin Scale   =       1.2000000000000000 [-]
	 SCS Same-Spin Energy      =      -0.1810549146224927 [Eh]
	 SCS Opposite-Spin Energy  =      -1.9486688693470335 [Eh]
	 SCS Correlation Energy    =      -2.1297237839695260 [Eh]
	 SCS Total Energy          =   -1687.7448506754922164 [Eh]
	-----------------------------------------------------------

  Dipole Moment: [D]
     X:     2.1026      Y:     0.2649      Z:    -0.0482     Total:     2.1198

*** Psi4 exiting successfully. Buy a developer a beer!
