                               Psi4 1.4a3.dev225

  ==> Input File <==

--------------------------------------------------------------------------
#psi4
#
memory 32 gb

molecule  {
0 1
 Cl       -1.5623360     0.9145460    -1.3283100
 Cl       -1.8035240    -1.6987570    -0.1947580
 Cl       -1.5102210     0.5498050     1.5667370
  C        0.5425250    -0.2377090    -0.0306430
  C        1.3583330     0.9211750     0.0000800
  C        1.1363604    -1.4856426    -0.0242229
  C        2.7480770     0.7402810    -0.0004710
  C       -0.9732360    -0.1289890    -0.0024010
  C        0.8627320     2.3487980    -0.0134970
  C        2.5304820    -1.6481190    -0.0246080
  C        3.3427940    -0.5189970    -0.0108730
  H        0.5328240    -2.3960530    -0.0303120
  H        3.3795310     1.6262990     0.0194810
  H        0.6542430     2.6831410    -1.0334720
  H       -0.0421520     2.4939510     0.5743960
  H        1.6388160     2.9983140     0.4002560
  H        2.9642350    -2.6446820    -0.0247670
  H        4.4259130    -0.6124980    -0.0086910
units angstrom
no_reorient  #important for SAPT in psi4, default
symmetry c1  #important for SAPT in psi4, default
}

set PROPERTIES_ORIGIN ["COM"]
properties('MP2/aug-cc-pvtz', properties = ['dipole'])
--------------------------------------------------------------------------

    Molecular point group: c1
  Charge       = 0
  Multiplicity = 1
  Basis Set: AUG-CC-PVTZ
    Blend: AUG-CC-PVTZ
  Basis Set: (AUG-CC-PVTZ AUX)
    Blend: AUG-CC-PVTZ-JKFIT

    Orbital Energies [Eh]
    ---------------------

    Doubly Occupied:

       1A   -104.857940     2A   -104.855796     3A   -104.855659
       4A    -11.442379     5A    -11.272342     6A    -11.267254
       7A    -11.252888     8A    -11.251008     9A    -11.245694
      10A    -11.243807    11A    -11.229790    12A    -10.582527
      13A    -10.580355    14A    -10.580346    15A     -8.049219
      16A     -8.047187    17A     -8.047175    18A     -8.047060
      19A     -8.047048    20A     -8.044996    21A     -8.044993
      22A     -8.044959    23A     -8.044944    24A     -1.246782
      25A     -1.165400    26A     -1.106917    27A     -1.105098
      28A     -1.056962    29A     -1.039912    30A     -0.950378
      31A     -0.882111    32A     -0.825089    33A     -0.789560
      34A     -0.703074    35A     -0.667907    36A     -0.650964
      37A     -0.627741    38A     -0.618407    39A     -0.599858
      40A     -0.587125    41A     -0.580659    42A     -0.555247
      43A     -0.519864    44A     -0.508427    45A     -0.504432
      46A     -0.495833    47A     -0.488520    48A     -0.464323
      49A     -0.455697    50A     -0.446963    51A     -0.441752
      52A     -0.353529    53A     -0.337347

  @DF-RHF Final Energy: -1685.64940752155462

   => Energetics <=

    Nuclear Repulsion Energy =            901.8434750695439561
    One-Electron Energy =               -4115.5632833402351025
    Two-Electron Energy =                1528.0704007491362972
    Total Energy =                      -1685.6494075215546218
  Basis Set: (AUG-CC-PVTZ AUX)
    Blend: AUG-CC-PVTZ-RI
    Molecular point group: c1

    Geometry (in Angstrom), charge = 0, multiplicity = 1:

       Center              X                  Y                   Z               Mass
    ------------   -----------------  -----------------  -----------------  -----------------
         CL          -1.474460608950     0.934388179744    -1.329000071535    34.968852682000
         CL          -1.715648608950    -1.678914820256    -0.195448071535    34.968852682000
         CL          -1.422345608950     0.569647179744     1.566046928465    34.968852682000
         C            0.630400391050    -0.217866820256    -0.031333071535    12.000000000000
         C            1.446208391050     0.941017179744    -0.000610071535    12.000000000000
         C            1.224235791050    -1.465800420256    -0.024912971535    12.000000000000
         C            2.835952391050     0.760123179744    -0.001161071535    12.000000000000
         C           -0.885360608950    -0.109146820256    -0.003091071535    12.000000000000
         C            0.950607391050     2.368640179744    -0.014187071535    12.000000000000
         C            2.618357391050    -1.628276820256    -0.025298071535    12.000000000000
         C            3.430669391050    -0.499154820256    -0.011563071535    12.000000000000
         H            0.620699391050    -2.376210820256    -0.031002071535     1.007825032230
         H            3.467406391050     1.646141179744     0.018790928465     1.007825032230
         H            0.742118391050     2.702983179744    -1.034162071535     1.007825032230
         H            0.045723391050     2.513793179744     0.573705928465     1.007825032230
         H            1.726691391050     3.018156179744     0.399565928465     1.007825032230
         H            3.052110391050    -2.624839820256    -0.025457071535     1.007825032230
         H            4.513788391050    -0.592655820256    -0.009381071535     1.007825032230

  Basis Set: AUG-CC-PVTZ
    Blend: AUG-CC-PVTZ
  Basis Set: (AUG-CC-PVTZ AUX)
    Blend: AUG-CC-PVTZ-JKFIT
	 Reference Energy          =   -1685.6494075215546218 [Eh]
	 Singles Energy            =      -0.0000000000000000 [Eh]
	 Same-Spin Energy          =      -0.5435215422743249 [Eh]
	 Opposite-Spin Energy      =      -1.6249648241866046 [Eh]
	 Correlation Energy        =      -2.1684863664609297 [Eh]
	 Total Energy              =   -1687.8178938880155329 [Eh]

	 ================> DF-SCS-MP2 Energies <==================
	-----------------------------------------------------------
	 SCS Same-Spin Scale       =       0.3333333333333333 [-]
	 SCS Opposite-Spin Scale   =       1.2000000000000000 [-]
	 SCS Same-Spin Energy      =      -0.1811738474247750 [Eh]
	 SCS Opposite-Spin Energy  =      -1.9499577890239255 [Eh]
	 SCS Correlation Energy    =      -2.1311316364487003 [Eh]
	 SCS Total Energy          =   -1687.7805391580034211 [Eh]
	-----------------------------------------------------------

  Dipole Moment: [D]
     X:     2.1310      Y:     0.2233      Z:    -0.0538     Total:     2.1434

*** Psi4 exiting successfully. Buy a developer a beer!
