                               Psi4 1.4a3.dev225

  ==> Input File <==

--------------------------------------------------------------------------
#psi4
#
memory 32 gb

molecule  {
0 1
 Cl       -1.5623360     0.9145460    -1.3283100
 Cl       -1.8035240    -1.6987570    -0.1947580
 Cl       -1.5102210     0.5498050     1.5667370
  C        0.5425250    -0.2377090    -0.0306430
  C        1.3583330     0.9211750     0.0000800
  C        1.1449540    -1.5037020    -0.0241300
  C        2.7480770     0.7402810    -0.0004710
  C       -0.9732360    -0.1289890    -0.0024010
  C        0.8627320     2.3487980    -0.0134970
  C        2.5304820    -1.6481190    -0.0246080
  C        3.3427940    -0.5189970    -0.0108730
  H        0.4196910    -2.5609761    -0.0314545
  H        3.3795310     1.6262990     0.0194810
  H        0.6542430     2.6831410    -1.0334720
  H       -0.0421520     2.4939510     0.5743960
  H        1.6388160     2.9983140     0.4002560
  H        2.9642350    -2.6446820    -0.0247670
  H        4.4259130    -0.6124980    -0.0086910
units angstrom
no_reorient  #important for SAPT in psi4, default
symmetry c1  #important for SAPT in psi4, default
}

set PROPERTIES_ORIGIN ["COM"]
properties('MP2/aug-cc-pvtz', properties = ['dipole'])
--------------------------------------------------------------------------

    Molecular point group: c1
  Charge       = 0
  Multiplicity = 1
  Basis Set: AUG-CC-PVTZ
    Blend: AUG-CC-PVTZ
  Basis Set: (AUG-CC-PVTZ AUX)
    Blend: AUG-CC-PVTZ-JKFIT

    Orbital Energies [Eh]
    ---------------------

    Doubly Occupied:

       1A   -104.857356     2A   -104.855696     3A   -104.855640
       4A    -11.442496     5A    -11.275604     6A    -11.271976
       7A    -11.268497     8A    -11.252102     9A    -11.245888
      10A    -11.244462    11A    -11.230459    12A    -10.582028
      13A    -10.580330    14A    -10.580247    15A     -8.048696
      16A     -8.047038    17A     -8.046946    18A     -8.046692
      19A     -8.046665    20A     -8.044972    21A     -8.044934
      22A     -8.044890    23A     -8.044840    24A     -1.246185
      25A     -1.164670    26A     -1.106593    27A     -1.104991
      28A     -1.057771    29A     -1.034907    30A     -0.950724
      31A     -0.880510    32A     -0.815998    33A     -0.789278
      34A     -0.699171    35A     -0.667239    36A     -0.643742
      37A     -0.627477    38A     -0.604993    39A     -0.599813
      40A     -0.587411    41A     -0.578199    42A     -0.555659
      43A     -0.518911    44A     -0.508194    45A     -0.498891
      46A     -0.495806    47A     -0.484153    48A     -0.462040
      49A     -0.455609    50A     -0.443997    51A     -0.441036
      52A     -0.351616    53A     -0.339543

  @DF-RHF Final Energy: -1685.62619394998160

   => Energetics <=

    Nuclear Repulsion Energy =            900.5601527965205833
    One-Electron Energy =               -4113.0255359751463402
    Two-Electron Energy =                1526.8391892286442726
    Total Energy =                      -1685.6261939499815981
  Basis Set: (AUG-CC-PVTZ AUX)
    Blend: AUG-CC-PVTZ-RI
    Molecular point group: c1

    Geometry (in Angstrom), charge = 0, multiplicity = 1:

       Center              X                  Y                   Z               Mass
    ------------   -----------------  -----------------  -----------------  -----------------
         CL          -1.474408219070     0.936229514489    -1.328999895348    34.968852682000
         CL          -1.715596219070    -1.677073485511    -0.195447895348    34.968852682000
         CL          -1.422293219070     0.571488514489     1.566047104652    34.968852682000
         C            0.630452780930    -0.216025485511    -0.031332895348    12.000000000000
         C            1.446260780930     0.942858514489    -0.000609895348    12.000000000000
         C            1.232881780930    -1.482018485511    -0.024819895348    12.000000000000
         C            2.836004780930     0.761964514489    -0.001160895348    12.000000000000
         C           -0.885308219070    -0.107305485511    -0.003090895348    12.000000000000
         C            0.950659780930     2.370481514489    -0.014186895348    12.000000000000
         C            2.618409780930    -1.626435485511    -0.025297895348    12.000000000000
         C            3.430721780930    -0.497313485511    -0.011562895348    12.000000000000
         H            0.507618780930    -2.539292585511    -0.032144395348     1.007825032230
         H            3.467458780930     1.647982514489     0.018791104652     1.007825032230
         H            0.742170780930     2.704824514489    -1.034161895348     1.007825032230
         H            0.045775780930     2.515634514489     0.573706104652     1.007825032230
         H            1.726743780930     3.019997514489     0.399566104652     1.007825032230
         H            3.052162780930    -2.622998485511    -0.025456895348     1.007825032230
         H            4.513840780930    -0.590814485511    -0.009380895348     1.007825032230

  Basis Set: AUG-CC-PVTZ
    Blend: AUG-CC-PVTZ
  Basis Set: (AUG-CC-PVTZ AUX)
    Blend: AUG-CC-PVTZ-JKFIT
	 Reference Energy          =   -1685.6261939499815981 [Eh]
	 Singles Energy            =      -0.0000000000000000 [Eh]
	 Same-Spin Energy          =      -0.5446431696847673 [Eh]
	 Opposite-Spin Energy      =      -1.6276926933268738 [Eh]
	 Correlation Energy        =      -2.1723358630116412 [Eh]
	 Total Energy              =   -1687.7985298129931380 [Eh]

	 ================> DF-SCS-MP2 Energies <==================
	-----------------------------------------------------------
	 SCS Same-Spin Scale       =       0.3333333333333333 [-]
	 SCS Opposite-Spin Scale   =       1.2000000000000000 [-]
	 SCS Same-Spin Energy      =      -0.1815477232282558 [Eh]
	 SCS Opposite-Spin Energy  =      -1.9532312319922485 [Eh]
	 SCS Correlation Energy    =      -2.1347789552205043 [Eh]
	 SCS Total Energy          =   -1687.7609729052021521 [Eh]
	-----------------------------------------------------------

  Dipole Moment: [D]
     X:     2.1208      Y:     0.2545      Z:    -0.0555     Total:     2.1368

*** Psi4 exiting successfully. Buy a developer a beer!
