                               Psi4 1.4a3.dev225

  ==> Input File <==

--------------------------------------------------------------------------
#psi4
#
memory 32 gb

molecule  {
0 1
 Cl       -1.5623360     0.9145460    -1.3283100
 Cl       -1.8035240    -1.6987570    -0.1947580
 Cl       -1.5102210     0.5498050     1.5667370
  C        0.5425250    -0.2377090    -0.0306430
  C        1.3583330     0.9211750     0.0000800
  C        1.1449540    -1.5037020    -0.0241300
  C        2.7480770     0.7402810    -0.0004710
  C       -0.9732360    -0.1289890    -0.0024010
  C        0.8627320     2.3487980    -0.0134970
  C        2.5304820    -1.6481190    -0.0246080
  C        3.3427940    -0.5189970    -0.0108730
  H        0.5328240    -2.3960530    -0.0303120
  H        3.3795310     1.6262990     0.0194810
  H        0.6542430     2.6831410    -1.0334720
  H       -0.0421520     2.4939510     0.5743960
  H        1.6388160     2.9983140     0.4002560
  H        2.9642350    -2.6446820    -0.0247670
  H        4.3760984    -0.6081977    -0.0087914
units angstrom
no_reorient  #important for SAPT in psi4, default
symmetry c1  #important for SAPT in psi4, default
}

set PROPERTIES_ORIGIN ["COM"]
properties('MP2/aug-cc-pvtz', properties = ['dipole'])
--------------------------------------------------------------------------

    Molecular point group: c1
  Charge       = 0
  Multiplicity = 1
  Basis Set: AUG-CC-PVTZ
    Blend: AUG-CC-PVTZ
  Basis Set: (AUG-CC-PVTZ AUX)
    Blend: AUG-CC-PVTZ-JKFIT

    Orbital Energies [Eh]
    ---------------------

    Doubly Occupied:

       1A   -104.857935     2A   -104.855583     3A   -104.855467
       4A    -11.442288     5A    -11.273859     6A    -11.267120
       7A    -11.252831     8A    -11.245775     9A    -11.244254
      10A    -11.243557    11A    -11.229749    12A    -10.582523
      13A    -10.580165    14A    -10.580140    15A     -8.049216
      16A     -8.047184    17A     -8.047172    18A     -8.046872
      19A     -8.046839    20A     -8.044807    21A     -8.044784
      22A     -8.044770    23A     -8.044735    24A     -1.246235
      25A     -1.164702    26A     -1.106819    27A     -1.104904
      28A     -1.058374    29A     -1.038630    30A     -0.951161
      31A     -0.884599    32A     -0.824796    33A     -0.790852
      34A     -0.705218    35A     -0.667160    36A     -0.657660
      37A     -0.627354    38A     -0.618271    39A     -0.599753
      40A     -0.586969    41A     -0.581805    42A     -0.555573
      43A     -0.524089    44A     -0.507638    45A     -0.503926
      46A     -0.495540    47A     -0.488777    48A     -0.463930
      49A     -0.455543    50A     -0.447207    51A     -0.441659
      52A     -0.350861    53A     -0.338759

  @DF-RHF Final Energy: -1685.64899004671429

   => Energetics <=

    Nuclear Repulsion Energy =            901.7402894049420183
    One-Electron Energy =               -4115.3457830876468506
    Two-Electron Energy =                1527.9565036359906571
    Total Energy =                      -1685.6489900467142888
  Basis Set: (AUG-CC-PVTZ AUX)
    Blend: AUG-CC-PVTZ-RI
    Molecular point group: c1

    Geometry (in Angstrom), charge = 0, multiplicity = 1:

       Center              X                  Y                   Z               Mass
    ------------   -----------------  -----------------  -----------------  -----------------
         CL          -1.474715073558     0.935409421755    -1.329004945587    34.968852682000
         CL          -1.715903073558    -1.677893578245    -0.195452945587    34.968852682000
         CL          -1.422600073558     0.570668421755     1.566042054413    34.968852682000
         C            0.630145926442    -0.216845578245    -0.031337945587    12.000000000000
         C            1.445953926442     0.942038421755    -0.000614945587    12.000000000000
         C            1.232574926442    -1.482838578245    -0.024824945587    12.000000000000
         C            2.835697926442     0.761144421755    -0.001165945587    12.000000000000
         C           -0.885615073558    -0.108125578245    -0.003095945587    12.000000000000
         C            0.950352926442     2.369661421755    -0.014191945587    12.000000000000
         C            2.618102926442    -1.627255578245    -0.025302945587    12.000000000000
         C            3.430414926442    -0.498133578245    -0.011567945587    12.000000000000
         H            0.620444926442    -2.375189578245    -0.031006945587     1.007825032230
         H            3.467151926442     1.647162421755     0.018786054413     1.007825032230
         H            0.741863926442     2.704004421755    -1.034166945587     1.007825032230
         H            0.045468926442     2.514814421755     0.573701054413     1.007825032230
         H            1.726436926442     3.019177421755     0.399561054413     1.007825032230
         H            3.051855926442    -2.623818578245    -0.025461945587     1.007825032230
         H            4.463719326442    -0.587334278245    -0.009486345587     1.007825032230

  Basis Set: AUG-CC-PVTZ
    Blend: AUG-CC-PVTZ
  Basis Set: (AUG-CC-PVTZ AUX)
    Blend: AUG-CC-PVTZ-JKFIT
	 Reference Energy          =   -1685.6489900467142888 [Eh]
	 Singles Energy            =      -0.0000000000000000 [Eh]
	 Same-Spin Energy          =      -0.5434662439421917 [Eh]
	 Opposite-Spin Energy      =      -1.6246460050296458 [Eh]
	 Correlation Energy        =      -2.1681122489718376 [Eh]
	 Total Energy              =   -1687.8171022956860270 [Eh]

	 ================> DF-SCS-MP2 Energies <==================
	-----------------------------------------------------------
	 SCS Same-Spin Scale       =       0.3333333333333333 [-]
	 SCS Opposite-Spin Scale   =       1.2000000000000000 [-]
	 SCS Same-Spin Energy      =      -0.1811554146473972 [Eh]
	 SCS Opposite-Spin Energy  =      -1.9495752060355749 [Eh]
	 SCS Correlation Energy    =      -2.1307306206829719 [Eh]
	 SCS Total Energy          =   -1687.7797206673972141 [Eh]
	-----------------------------------------------------------

  Dipole Moment: [D]
     X:     2.1489      Y:     0.2284      Z:    -0.0541     Total:     2.1617

*** Psi4 exiting successfully. Buy a developer a beer!
