                               Psi4 1.4a3.dev225

  ==> Input File <==

--------------------------------------------------------------------------
#psi4
#
memory 32 gb

molecule  {
0 1
 Cl       -1.5623360     0.9145460    -1.3283100
 Cl       -1.8035240    -1.6987570    -0.1947580
 Cl       -1.5102210     0.5498050     1.5667370
  C        0.5425250    -0.2377090    -0.0306430
  C        1.3583330     0.9211750     0.0000800
  C        1.1879222    -1.5939988    -0.0236655
  C        2.7480770     0.7402810    -0.0004710
  C       -0.9732360    -0.1289890    -0.0024010
  C        0.8627320     2.3487980    -0.0134970
  C        2.5304820    -1.6481190    -0.0246080
  C        3.3427940    -0.5189970    -0.0108730
  H        0.5328240    -2.3960530    -0.0303120
  H        3.3795310     1.6262990     0.0194810
  H        0.6542430     2.6831410    -1.0334720
  H       -0.0421520     2.4939510     0.5743960
  H        1.6388160     2.9983140     0.4002560
  H        2.9642350    -2.6446820    -0.0247670
  H        4.4259130    -0.6124980    -0.0086910
units angstrom
no_reorient  #important for SAPT in psi4, default
symmetry c1  #important for SAPT in psi4, default
}

set PROPERTIES_ORIGIN ["COM"]
properties('MP2/aug-cc-pvtz', properties = ['dipole'])
--------------------------------------------------------------------------

    Molecular point group: c1
  Charge       = 0
  Multiplicity = 1
  Basis Set: AUG-CC-PVTZ
    Blend: AUG-CC-PVTZ
  Basis Set: (AUG-CC-PVTZ AUX)
    Blend: AUG-CC-PVTZ-JKFIT

    Orbital Energies [Eh]
    ---------------------

    Doubly Occupied:

       1A   -104.858443     2A   -104.855042     3A   -104.854999
       4A    -11.442294     5A    -11.280462     6A    -11.268027
       7A    -11.253738     8A    -11.252545     9A    -11.246229
      10A    -11.240424    11A    -11.230449    12A    -10.583031
      13A    -10.579711    14A    -10.579617    15A     -8.049728
      16A     -8.047698    17A     -8.047686    18A     -8.046416
      19A     -8.046314    20A     -8.044349    21A     -8.044312
      22A     -8.044256    23A     -8.044207    24A     -1.244498
      25A     -1.162043    26A     -1.106945    27A     -1.104430
      28A     -1.063929    29A     -1.028419    30A     -0.955174
      31A     -0.884330    32A     -0.825100    33A     -0.785303
      34A     -0.703978    35A     -0.665907    36A     -0.659500
      37A     -0.626178    38A     -0.615944    39A     -0.599150
      40A     -0.587387    41A     -0.584247    42A     -0.555405
      43A     -0.528068    44A     -0.505871    45A     -0.499312
      46A     -0.494800    47A     -0.488642    48A     -0.460695
      49A     -0.455298    50A     -0.448184    51A     -0.441638
      52A     -0.349489    53A     -0.338727

  @DF-RHF Final Energy: -1685.63802666611764

   => Energetics <=

    Nuclear Repulsion Energy =            899.5842990492257059
    One-Electron Energy =               -4111.0275139387886156
    Two-Electron Energy =                1525.8051882234453842
    Total Energy =                      -1685.6380266661176393
  Basis Set: (AUG-CC-PVTZ AUX)
    Blend: AUG-CC-PVTZ-RI
    Molecular point group: c1

    Geometry (in Angstrom), charge = 0, multiplicity = 1:

       Center              X                  Y                   Z               Mass
    ------------   -----------------  -----------------  -----------------  -----------------
         CL          -1.477435881278     0.940640661297    -1.329032235207    34.968852682000
         CL          -1.718623881278    -1.672662338703    -0.195480235207    34.968852682000
         CL          -1.425320881278     0.575899661297     1.566014764793    34.968852682000
         C            0.627425118722    -0.211614338703    -0.031365235207    12.000000000000
         C            1.443233118722     0.947269661297    -0.000642235207    12.000000000000
         C            1.272822318722    -1.567904138703    -0.024387735207    12.000000000000
         C            2.832977118722     0.766375661297    -0.001193235207    12.000000000000
         C           -0.888335881278    -0.102894338703    -0.003123235207    12.000000000000
         C            0.947632118722     2.374892661297    -0.014219235207    12.000000000000
         C            2.615382118722    -1.622024338703    -0.025330235207    12.000000000000
         C            3.427694118722    -0.492902338703    -0.011595235207    12.000000000000
         H            0.617724118722    -2.369958338703    -0.031034235207     1.007825032230
         H            3.464431118722     1.652393661297     0.018758764793     1.007825032230
         H            0.739143118722     2.709235661297    -1.034194235207     1.007825032230
         H            0.042748118722     2.520045661297     0.573673764793     1.007825032230
         H            1.723716118722     3.024408661297     0.399533764793     1.007825032230
         H            3.049135118722    -2.618587338703    -0.025489235207     1.007825032230
         H            4.510813118722    -0.586403338703    -0.009413235207     1.007825032230

  Basis Set: AUG-CC-PVTZ
    Blend: AUG-CC-PVTZ
  Basis Set: (AUG-CC-PVTZ AUX)
    Blend: AUG-CC-PVTZ-JKFIT
	 Reference Energy          =   -1685.6380266661176393 [Eh]
	 Singles Energy            =      -0.0000000000000000 [Eh]
	 Same-Spin Energy          =      -0.5435213661856215 [Eh]
	 Opposite-Spin Energy      =      -1.6256536934628727 [Eh]
	 Correlation Energy        =      -2.1691750596484942 [Eh]
	 Total Energy              =   -1687.8072017257661628 [Eh]

	 ================> DF-SCS-MP2 Energies <==================
	-----------------------------------------------------------
	 SCS Same-Spin Scale       =       0.3333333333333333 [-]
	 SCS Opposite-Spin Scale   =       1.2000000000000000 [-]
	 SCS Same-Spin Energy      =      -0.1811737887285405 [Eh]
	 SCS Opposite-Spin Energy  =      -1.9507844321554471 [Eh]
	 SCS Correlation Energy    =      -2.1319582208839876 [Eh]
	 SCS Total Energy          =   -1687.7699848870015558 [Eh]
	-----------------------------------------------------------

  Dipole Moment: [D]
     X:     2.1453      Y:     0.2641      Z:    -0.0553     Total:     2.1622

*** Psi4 exiting successfully. Buy a developer a beer!
