                               Psi4 1.4a3.dev225

  ==> Input File <==

--------------------------------------------------------------------------
#psi4
#
memory 32 gb

molecule  {
0 1
 Cl       -1.5623360     0.9145460    -1.3283100
 Cl       -1.8035240    -1.6987570    -0.1947580
 Cl       -1.5102210     0.5498050     1.5667370
  C        0.5425250    -0.2377090    -0.0306430
  C        1.3583330     0.9211750     0.0000800
  C        1.1449540    -1.5037020    -0.0241300
  C        2.7480770     0.7402810    -0.0004710
  C       -0.9732360    -0.1289890    -0.0024010
  C        0.8627320     2.3487980    -0.0134970
  C        2.5304820    -1.6481190    -0.0246080
  C        3.3427940    -0.5189970    -0.0108730
  H        0.5215107    -2.4125453    -0.0304263
  H        3.3795310     1.6262990     0.0194810
  H        0.6542430     2.6831410    -1.0334720
  H       -0.0421520     2.4939510     0.5743960
  H        1.6388160     2.9983140     0.4002560
  H        2.9642350    -2.6446820    -0.0247670
  H        4.4259130    -0.6124980    -0.0086910
units angstrom
no_reorient  #important for SAPT in psi4, default
symmetry c1  #important for SAPT in psi4, default
}

set PROPERTIES_ORIGIN ["COM"]
properties('MP2/aug-cc-pvtz', properties = ['dipole'])
--------------------------------------------------------------------------

    Molecular point group: c1
  Charge       = 0
  Multiplicity = 1
  Basis Set: AUG-CC-PVTZ
    Blend: AUG-CC-PVTZ
  Basis Set: (AUG-CC-PVTZ AUX)
    Blend: AUG-CC-PVTZ-JKFIT

    Orbital Energies [Eh]
    ---------------------

    Doubly Occupied:

       1A   -104.857967     2A   -104.855666     3A   -104.855556
       4A    -11.442389     5A    -11.274113     6A    -11.267508
       7A    -11.255214     8A    -11.251340     9A    -11.244866
      10A    -11.244184    11A    -11.229958    12A    -10.582564
      13A    -10.580253    14A    -10.580222    15A     -8.049255
      16A     -8.047225    17A     -8.047212    18A     -8.046960
      19A     -8.046921    20A     -8.044895    21A     -8.044866
      22A     -8.044858    23A     -8.044816    24A     -1.246314
      25A     -1.164596    26A     -1.106876    27A     -1.104985
      28A     -1.057988    29A     -1.037252    30A     -0.951199
      31A     -0.882129    32A     -0.823725    33A     -0.788893
      34A     -0.702589    35A     -0.667165    36A     -0.651065
      37A     -0.627448    38A     -0.616448    39A     -0.599900
      40A     -0.587129    41A     -0.581593    42A     -0.555286
      43A     -0.520809    44A     -0.507816    45A     -0.503644
      46A     -0.495715    47A     -0.488618    48A     -0.463837
      49A     -0.455627    50A     -0.447062    51A     -0.441721
      52A     -0.351077    53A     -0.339037

  @DF-RHF Final Energy: -1685.64906000299470

   => Energetics <=

    Nuclear Repulsion Energy =            901.3556629914382938
    One-Electron Energy =               -4114.5967528733599465
    Two-Electron Energy =                1527.5920298789269509
    Total Energy =                      -1685.6490600029947018
  Basis Set: (AUG-CC-PVTZ AUX)
    Blend: AUG-CC-PVTZ-RI
    Molecular point group: c1

    Geometry (in Angstrom), charge = 0, multiplicity = 1:

       Center              X                  Y                   Z               Mass
    ------------   -----------------  -----------------  -----------------  -----------------
         CL          -1.474901659080     0.935510187135    -1.329004878225    34.968852682000
         CL          -1.716089659080    -1.677792812865    -0.195452878225    34.968852682000
         CL          -1.422786659080     0.570769187135     1.566042121775    34.968852682000
         C            0.629959340920    -0.216744812865    -0.031337878225    12.000000000000
         C            1.445767340920     0.942139187135    -0.000614878225    12.000000000000
         C            1.232388340920    -1.482737812865    -0.024824878225    12.000000000000
         C            2.835511340920     0.761245187135    -0.001165878225    12.000000000000
         C           -0.885801659080    -0.108024812865    -0.003095878225    12.000000000000
         C            0.950166340920     2.369762187135    -0.014191878225    12.000000000000
         C            2.617916340920    -1.627154812865    -0.025302878225    12.000000000000
         C            3.430228340920    -0.498032812865    -0.011567878225    12.000000000000
         H            0.608945040920    -2.391581112865    -0.031121178225     1.007825032230
         H            3.466965340920     1.647263187135     0.018786121775     1.007825032230
         H            0.741677340920     2.704105187135    -1.034166878225     1.007825032230
         H            0.045282340920     2.514915187135     0.573701121775     1.007825032230
         H            1.726250340920     3.019278187135     0.399561121775     1.007825032230
         H            3.051669340920    -2.623717812865    -0.025461878225     1.007825032230
         H            4.513347340920    -0.591533812865    -0.009385878225     1.007825032230

  Basis Set: AUG-CC-PVTZ
    Blend: AUG-CC-PVTZ
  Basis Set: (AUG-CC-PVTZ AUX)
    Blend: AUG-CC-PVTZ-JKFIT
	 Reference Energy          =   -1685.6490600029947018 [Eh]
	 Singles Energy            =      -0.0000000000000000 [Eh]
	 Same-Spin Energy          =      -0.5436408632837028 [Eh]
	 Opposite-Spin Energy      =      -1.6251711886691489 [Eh]
	 Correlation Energy        =      -2.1688120519528518 [Eh]
	 Total Energy              =   -1687.8178720549476566 [Eh]

	 ================> DF-SCS-MP2 Energies <==================
	-----------------------------------------------------------
	 SCS Same-Spin Scale       =       0.3333333333333333 [-]
	 SCS Opposite-Spin Scale   =       1.2000000000000000 [-]
	 SCS Same-Spin Energy      =      -0.1812136210945676 [Eh]
	 SCS Opposite-Spin Energy  =      -1.9502054264029787 [Eh]
	 SCS Correlation Energy    =      -2.1314190474975461 [Eh]
	 SCS Total Energy          =   -1687.7804790504922039 [Eh]
	-----------------------------------------------------------

  Dipole Moment: [D]
     X:     2.1312      Y:     0.2320      Z:    -0.0542     Total:     2.1444

*** Psi4 exiting successfully. Buy a developer a beer!
