                               Psi4 1.4a3.dev225

  ==> Input File <==

--------------------------------------------------------------------------
#psi4
#
memory 32 gb

molecule  {
0 1
 Cl       -1.5623360     0.9145460    -1.3283100
 Cl       -1.8035240    -1.6987570    -0.1947580
 Cl       -1.5102210     0.5498050     1.5667370
  C        0.5425250    -0.2377090    -0.0306430
  C        1.3295581     0.8802992    -0.0010037
  C        1.1449540    -1.5037020    -0.0241300
  C        2.7480770     0.7402810    -0.0004710
  C       -0.9732360    -0.1289890    -0.0024010
  C        0.8627320     2.3487980    -0.0134970
  C        2.5304820    -1.6481190    -0.0246080
  C        3.3427940    -0.5189970    -0.0108730
  H        0.5328240    -2.3960530    -0.0303120
  H        3.3795310     1.6262990     0.0194810
  H        0.6542430     2.6831410    -1.0334720
  H       -0.0421520     2.4939510     0.5743960
  H        1.6388160     2.9983140     0.4002560
  H        2.9642350    -2.6446820    -0.0247670
  H        4.4259130    -0.6124980    -0.0086910
units angstrom
no_reorient  #important for SAPT in psi4, default
symmetry c1  #important for SAPT in psi4, default
}

set PROPERTIES_ORIGIN ["COM"]
properties('MP2/aug-cc-pvtz', properties = ['dipole'])
--------------------------------------------------------------------------

    Molecular point group: c1
  Charge       = 0
  Multiplicity = 1
  Basis Set: AUG-CC-PVTZ
    Blend: AUG-CC-PVTZ
  Basis Set: (AUG-CC-PVTZ AUX)
    Blend: AUG-CC-PVTZ-JKFIT

    Orbital Energies [Eh]
    ---------------------

    Doubly Occupied:

       1A   -104.858228     2A   -104.855841     3A   -104.855662
       4A    -11.442393     5A    -11.269498     6A    -11.265475
       7A    -11.252682     8A    -11.250619     9A    -11.246827
      10A    -11.244661    11A    -11.231260    12A    -10.582821
      13A    -10.580391    14A    -10.580349    15A     -8.049513
      16A     -8.047482    17A     -8.047471    18A     -8.047090
      19A     -8.047057    20A     -8.045034    21A     -8.044992
      22A     -8.044985    23A     -8.044954    24A     -1.247490
      25A     -1.166476    26A     -1.107080    27A     -1.105151
      28A     -1.056483    29A     -1.037455    30A     -0.948917
      31A     -0.881176    32A     -0.832386    33A     -0.786706
      34A     -0.703799    35A     -0.666970    36A     -0.651442
      37A     -0.628123    38A     -0.620287    39A     -0.599906
      40A     -0.585282    41A     -0.577438    42A     -0.555566
      43A     -0.520264    44A     -0.508635    45A     -0.504013
      46A     -0.496083    47A     -0.488945    48A     -0.462235
      49A     -0.455701    50A     -0.447370    51A     -0.441834
      52A     -0.353916    53A     -0.338891

  @DF-RHF Final Energy: -1685.64734617445379

   => Energetics <=

    Nuclear Repulsion Energy =            902.1775387560335275
    One-Electron Energy =               -4116.2271598606512271
    Two-Electron Energy =                1528.4022749301636850
    Total Energy =                      -1685.6473461744537872
  Basis Set: (AUG-CC-PVTZ AUX)
    Blend: AUG-CC-PVTZ-RI
    Molecular point group: c1

    Geometry (in Angstrom), charge = 0, multiplicity = 1:

       Center              X                  Y                   Z               Mass
    ------------   -----------------  -----------------  -----------------  -----------------
         CL          -1.473296086699     0.937788919627    -1.328942899369    34.968852682000
         CL          -1.714484086699    -1.675514080373    -0.195390899369    34.968852682000
         CL          -1.421181086699     0.573047919627     1.566104100631    34.968852682000
         C            0.631564913301    -0.214466080373    -0.031275899369    12.000000000000
         C            1.418598013301     0.903542119627    -0.001636599369    12.000000000000
         C            1.233993913301    -1.480459080373    -0.024762899369    12.000000000000
         C            2.837116913301     0.763523919627    -0.001103899369    12.000000000000
         C           -0.884196086699    -0.105746080373    -0.003033899369    12.000000000000
         C            0.951771913301     2.372040919627    -0.014129899369    12.000000000000
         C            2.619521913301    -1.624876080373    -0.025240899369    12.000000000000
         C            3.431833913301    -0.495754080373    -0.011505899369    12.000000000000
         H            0.621863913301    -2.372810080373    -0.030944899369     1.007825032230
         H            3.468570913301     1.649541919627     0.018848100631     1.007825032230
         H            0.743282913301     2.706383919627    -1.034104899369     1.007825032230
         H            0.046887913301     2.517193919627     0.573763100631     1.007825032230
         H            1.727855913301     3.021556919627     0.399623100631     1.007825032230
         H            3.053274913301    -2.621439080373    -0.025399899369     1.007825032230
         H            4.514952913301    -0.589255080373    -0.009323899369     1.007825032230

  Basis Set: AUG-CC-PVTZ
    Blend: AUG-CC-PVTZ
  Basis Set: (AUG-CC-PVTZ AUX)
    Blend: AUG-CC-PVTZ-JKFIT
	 Reference Energy          =   -1685.6473461744537872 [Eh]
	 Singles Energy            =      -0.0000000000000000 [Eh]
	 Same-Spin Energy          =      -0.5432806652166579 [Eh]
	 Opposite-Spin Energy      =      -1.6247956300429593 [Eh]
	 Correlation Energy        =      -2.1680762952596173 [Eh]
	 Total Energy              =   -1687.8154224697134396 [Eh]

	 ================> DF-SCS-MP2 Energies <==================
	-----------------------------------------------------------
	 SCS Same-Spin Scale       =       0.3333333333333333 [-]
	 SCS Opposite-Spin Scale   =       1.2000000000000000 [-]
	 SCS Same-Spin Energy      =      -0.1810935550722193 [Eh]
	 SCS Opposite-Spin Energy  =      -1.9497547560515511 [Eh]
	 SCS Correlation Energy    =      -2.1308483111237706 [Eh]
	 SCS Total Energy          =   -1687.7781944855776146 [Eh]
	-----------------------------------------------------------

  Dipole Moment: [D]
     X:     2.1442      Y:     0.2183      Z:    -0.0520     Total:     2.1559

*** Psi4 exiting successfully. Buy a developer a beer!
