                               Psi4 1.4a3.dev225

  ==> Input File <==

--------------------------------------------------------------------------
#psi4
#
memory 32 gb

molecule  {
0 1
 Cl       -1.5623360     0.9145460    -1.3283100
 Cl       -1.8035240    -1.6987570    -0.1947580
 Cl       -1.5102210     0.5498050     1.5667370
  C        0.5425250    -0.2377090    -0.0306430
  C        1.3583330     0.9211750     0.0000800
  C        1.1449540    -1.5037020    -0.0241300
  C        2.7480770     0.7402810    -0.0004710
  C       -0.9732360    -0.1289890    -0.0024010
  C        0.8627320     2.3487980    -0.0134970
  C        2.5304820    -1.6481190    -0.0246080
  C        3.3427940    -0.5189970    -0.0108730
  H        0.5328240    -2.3960530    -0.0303120
  H        3.4375589     1.7077202     0.0213145
  H        0.6542430     2.6831410    -1.0334720
  H       -0.0421520     2.4939510     0.5743960
  H        1.6388160     2.9983140     0.4002560
  H        2.9642350    -2.6446820    -0.0247670
  H        4.4259130    -0.6124980    -0.0086910
units angstrom
no_reorient  #important for SAPT in psi4, default
symmetry c1  #important for SAPT in psi4, default
}

set PROPERTIES_ORIGIN ["COM"]
properties('MP2/aug-cc-pvtz', properties = ['dipole'])
--------------------------------------------------------------------------

    Molecular point group: c1
  Charge       = 0
  Multiplicity = 1
  Basis Set: AUG-CC-PVTZ
    Blend: AUG-CC-PVTZ
  Basis Set: (AUG-CC-PVTZ AUX)
    Blend: AUG-CC-PVTZ-JKFIT

    Orbital Energies [Eh]
    ---------------------

    Doubly Occupied:

       1A   -104.858340     2A   -104.855887     3A   -104.855764
       4A    -11.442760     5A    -11.274805     6A    -11.268494
       7A    -11.255616     8A    -11.253605     9A    -11.252168
      10A    -11.245561    11A    -11.229718    12A    -10.582924
      13A    -10.580461    14A    -10.580443    15A     -8.049616
      16A     -8.047584    17A     -8.047571    18A     -8.047167
      19A     -8.047143    20A     -8.045100    21A     -8.045086
      22A     -8.045064    23A     -8.045037    24A     -1.246655
      25A     -1.164739    26A     -1.107173    27A     -1.105206
      28A     -1.058310    29A     -1.036139    30A     -0.950651
      31A     -0.882384    32A     -0.820720    33A     -0.787673
      34A     -0.700811    35A     -0.667659    36A     -0.650734
      37A     -0.627729    38A     -0.610316    39A     -0.600019
      40A     -0.586939    41A     -0.580873    42A     -0.551296
      43A     -0.521118    44A     -0.507994    45A     -0.499587
      46A     -0.495885    47A     -0.489098    48A     -0.464273
      49A     -0.455856    50A     -0.447494    51A     -0.441968
      52A     -0.351653    53A     -0.339652

  @DF-RHF Final Energy: -1685.64235965472358

   => Energetics <=

    Nuclear Repulsion Energy =            900.9195797772725882
    One-Electron Energy =               -4113.7108390207768025
    Two-Electron Energy =                1527.1488995887805231
    Total Energy =                      -1685.6423596547235775
  Basis Set: (AUG-CC-PVTZ AUX)
    Blend: AUG-CC-PVTZ-RI
    Molecular point group: c1

    Geometry (in Angstrom), charge = 0, multiplicity = 1:

       Center              X                  Y                   Z               Mass
    ------------   -----------------  -----------------  -----------------  -----------------
         CL          -1.475237701344     0.935035677404    -1.329014317680    34.968852682000
         CL          -1.716425701344    -1.678267322596    -0.195462317680    34.968852682000
         CL          -1.423122701344     0.570294677404     1.566032682320    34.968852682000
         C            0.629623298656    -0.217219322596    -0.031347317680    12.000000000000
         C            1.445431298656     0.941664677404    -0.000624317680    12.000000000000
         C            1.232052298656    -1.483212322596    -0.024834317680    12.000000000000
         C            2.835175298656     0.760770677404    -0.001175317680    12.000000000000
         C           -0.886137701344    -0.108499322596    -0.003105317680    12.000000000000
         C            0.949830298656     2.369287677404    -0.014201317680    12.000000000000
         C            2.617580298656    -1.627629322596    -0.025312317680    12.000000000000
         C            3.429892298656    -0.498507322596    -0.011577317680    12.000000000000
         H            0.619922298656    -2.375563322596    -0.031016317680     1.007825032230
         H            3.524657198656     1.728209877404     0.020610182320     1.007825032230
         H            0.741341298656     2.703630677404    -1.034176317680     1.007825032230
         H            0.044946298656     2.514440677404     0.573691682320     1.007825032230
         H            1.725914298656     3.018803677404     0.399551682320     1.007825032230
         H            3.051333298656    -2.624192322596    -0.025471317680     1.007825032230
         H            4.513011298656    -0.592008322596    -0.009395317680     1.007825032230

  Basis Set: AUG-CC-PVTZ
    Blend: AUG-CC-PVTZ
  Basis Set: (AUG-CC-PVTZ AUX)
    Blend: AUG-CC-PVTZ-JKFIT
	 Reference Energy          =   -1685.6423596547235775 [Eh]
	 Singles Energy            =      -0.0000000000000000 [Eh]
	 Same-Spin Energy          =      -0.5438251069230726 [Eh]
	 Opposite-Spin Energy      =      -1.6259159937324097 [Eh]
	 Correlation Energy        =      -2.1697411006554823 [Eh]
	 Total Energy              =   -1687.8121007553791060 [Eh]

	 ================> DF-SCS-MP2 Energies <==================
	-----------------------------------------------------------
	 SCS Same-Spin Scale       =       0.3333333333333333 [-]
	 SCS Opposite-Spin Scale   =       1.2000000000000000 [-]
	 SCS Same-Spin Energy      =      -0.1812750356410242 [Eh]
	 SCS Opposite-Spin Energy  =      -1.9510991924788916 [Eh]
	 SCS Correlation Energy    =      -2.1323742281199158 [Eh]
	 SCS Total Energy          =   -1687.7747338828435204 [Eh]
	-----------------------------------------------------------

  Dipole Moment: [D]
     X:     2.1017      Y:     0.1959      Z:    -0.0549     Total:     2.1115

*** Psi4 exiting successfully. Buy a developer a beer!
