                               Psi4 1.4a3.dev225

  ==> Input File <==

--------------------------------------------------------------------------
#psi4
#
memory 32 gb

molecule  {
0 1
 Cl       -1.5623360     0.9145460    -1.3283100
 Cl       -1.8035240    -1.6987570    -0.1947580
 Cl       -1.5102210     0.5498050     1.5667370
  C        0.5425250    -0.2377090    -0.0306430
  C        1.4749777     0.8294984     0.0025108
  C        1.1449540    -1.5037020    -0.0241300
  C        2.7480770     0.7402810    -0.0004710
  C       -0.9732360    -0.1289890    -0.0024010
  C        0.8627320     2.3487980    -0.0134970
  C        2.5304820    -1.6481190    -0.0246080
  C        3.3427940    -0.5189970    -0.0108730
  H        0.5328240    -2.3960530    -0.0303120
  H        3.3795310     1.6262990     0.0194810
  H        0.6542430     2.6831410    -1.0334720
  H       -0.0421520     2.4939510     0.5743960
  H        1.6388160     2.9983140     0.4002560
  H        2.9642350    -2.6446820    -0.0247670
  H        4.4259130    -0.6124980    -0.0086910
units angstrom
no_reorient  #important for SAPT in psi4, default
symmetry c1  #important for SAPT in psi4, default
}

set PROPERTIES_ORIGIN ["COM"]
properties('MP2/aug-cc-pvtz', properties = ['dipole'])
--------------------------------------------------------------------------

    Molecular point group: c1
  Charge       = 0
  Multiplicity = 1
  Basis Set: AUG-CC-PVTZ
    Blend: AUG-CC-PVTZ
  Basis Set: (AUG-CC-PVTZ AUX)
    Blend: AUG-CC-PVTZ-JKFIT

    Orbital Energies [Eh]
    ---------------------

    Doubly Occupied:

       1A   -104.860196     2A   -104.856020     3A   -104.855530
       4A    -11.445953     5A    -11.273523     6A    -11.256628
       7A    -11.254175     8A    -11.252676     9A    -11.243799
      10A    -11.229816    11A    -11.229452    12A    -10.584696
      13A    -10.580547    14A    -10.580198    15A     -8.051390
      16A     -8.049344    17A     -8.049327    18A     -8.047247
      19A     -8.046908    20A     -8.045178    21A     -8.045132
      22A     -8.044827    23A     -8.044793    24A     -1.246798
      25A     -1.178410    26A     -1.107327    27A     -1.105095
      28A     -1.054238    29A     -1.041086    30A     -0.939879
      31A     -0.890402    32A     -0.822369    33A     -0.798559
      34A     -0.705272    35A     -0.668401    36A     -0.650310
      37A     -0.628641    38A     -0.626968    39A     -0.600313
      40A     -0.578633    41A     -0.575979    42A     -0.546683
      43A     -0.532205    44A     -0.512647    45A     -0.499476
      46A     -0.489884    47A     -0.476595    48A     -0.458968
      49A     -0.456095    50A     -0.447669    51A     -0.442103
      52A     -0.361639    53A     -0.343733

  @DF-RHF Final Energy: -1685.62539273133848

   => Energetics <=

    Nuclear Repulsion Energy =            901.5120741792478611
    One-Electron Energy =               -4114.8474736147254589
    Two-Electron Energy =                1527.7100067041390048
    Total Energy =                      -1685.6253927313384793
  Basis Set: (AUG-CC-PVTZ AUX)
    Blend: AUG-CC-PVTZ-RI
    Molecular point group: c1

    Geometry (in Angstrom), charge = 0, multiplicity = 1:

       Center              X                  Y                   Z               Mass
    ------------   -----------------  -----------------  -----------------  -----------------
         CL          -1.481687238903     0.940720279944    -1.329145696684    34.968852682000
         CL          -1.722875238903    -1.672582720056    -0.195593696684    34.968852682000
         CL          -1.429572238903     0.575979279944     1.565901303316    34.968852682000
         C            0.623173761097    -0.211534720056    -0.031478696684    12.000000000000
         C            1.555626461097     0.855672679944     0.001675103316    12.000000000000
         C            1.225602761097    -1.477527720056    -0.024965696684    12.000000000000
         C            2.828725761097     0.766455279944    -0.001306696684    12.000000000000
         C           -0.892587238903    -0.102814720056    -0.003236696684    12.000000000000
         C            0.943380761097     2.374972279944    -0.014332696684    12.000000000000
         C            2.611130761097    -1.621944720056    -0.025443696684    12.000000000000
         C            3.423442761097    -0.492822720056    -0.011708696684    12.000000000000
         H            0.613472761097    -2.369878720056    -0.031147696684     1.007825032230
         H            3.460179761097     1.652473279944     0.018645303316     1.007825032230
         H            0.734891761097     2.709315279944    -1.034307696684     1.007825032230
         H            0.038496761097     2.520125279944     0.573560303316     1.007825032230
         H            1.719464761097     3.024488279944     0.399420303316     1.007825032230
         H            3.044883761097    -2.618507720056    -0.025602696684     1.007825032230
         H            4.506561761097    -0.586323720056    -0.009526696684     1.007825032230

  Basis Set: AUG-CC-PVTZ
    Blend: AUG-CC-PVTZ
  Basis Set: (AUG-CC-PVTZ AUX)
    Blend: AUG-CC-PVTZ-JKFIT
	 Reference Energy          =   -1685.6253927313384793 [Eh]
	 Singles Energy            =      -0.0000000000000000 [Eh]
	 Same-Spin Energy          =      -0.5425997535936702 [Eh]
	 Opposite-Spin Energy      =      -1.6245854486837357 [Eh]
	 Correlation Energy        =      -2.1671852022774059 [Eh]
	 Total Energy              =   -1687.7925779336158030 [Eh]

	 ================> DF-SCS-MP2 Energies <==================
	-----------------------------------------------------------
	 SCS Same-Spin Scale       =       0.3333333333333333 [-]
	 SCS Opposite-Spin Scale   =       1.2000000000000000 [-]
	 SCS Same-Spin Energy      =      -0.1808665845312234 [Eh]
	 SCS Opposite-Spin Energy  =      -1.9495025384204827 [Eh]
	 SCS Correlation Energy    =      -2.1303691229517061 [Eh]
	 SCS Total Energy          =   -1687.7557618542900855 [Eh]
	-----------------------------------------------------------

  Dipole Moment: [D]
     X:     2.1160      Y:     0.0228      Z:    -0.0448     Total:     2.1166

*** Psi4 exiting successfully. Buy a developer a beer!
