                               Psi4 1.4a3.dev225

  ==> Input File <==

--------------------------------------------------------------------------
#psi4
#
memory 32 gb

molecule  {
0 1
 Cl       -1.5623360     0.9145460    -1.3283100
 Cl       -1.8035240    -1.6987570    -0.1947580
 Cl       -1.5102210     0.5498050     1.5667370
  C        0.5425250    -0.2377090    -0.0306430
  C        1.3583330     0.9211750     0.0000800
  C        1.1449540    -1.5037020    -0.0241300
  C        2.7480770     0.7402810    -0.0004710
  C       -0.9732360    -0.1289890    -0.0024010
  C        0.8627320     2.3487980    -0.0134970
  C        2.5304820    -1.6481190    -0.0246080
  C        3.3427940    -0.5189970    -0.0108730
  H        0.5328240    -2.3960530    -0.0303120
  H        3.3505171     1.5855884     0.0185642
  H        0.6542430     2.6831410    -1.0334720
  H       -0.0421520     2.4939510     0.5743960
  H        1.6388160     2.9983140     0.4002560
  H        2.9642350    -2.6446820    -0.0247670
  H        4.4259130    -0.6124980    -0.0086910
units angstrom
no_reorient  #important for SAPT in psi4, default
symmetry c1  #important for SAPT in psi4, default
}

set PROPERTIES_ORIGIN ["COM"]
properties('MP2/aug-cc-pvtz', properties = ['dipole'])
--------------------------------------------------------------------------

    Molecular point group: c1
  Charge       = 0
  Multiplicity = 1
  Basis Set: AUG-CC-PVTZ
    Blend: AUG-CC-PVTZ
  Basis Set: (AUG-CC-PVTZ AUX)
    Blend: AUG-CC-PVTZ-JKFIT

    Orbital Energies [Eh]
    ---------------------

    Doubly Occupied:

       1A   -104.857913     2A   -104.855583     3A   -104.855472
       4A    -11.442233     5A    -11.273642     6A    -11.266984
       7A    -11.252967     8A    -11.250822     9A    -11.244438
      10A    -11.238263    11A    -11.230020    12A    -10.582502
      13A    -10.580170    14A    -10.580140    15A     -8.049195
      16A     -8.047163    17A     -8.047151    18A     -8.046877
      19A     -8.046839    20A     -8.044812    21A     -8.044784
      22A     -8.044775    23A     -8.044735    24A     -1.246216
      25A     -1.164772    26A     -1.106817    27A     -1.104905
      28A     -1.058106    29A     -1.038759    30A     -0.951837
      31A     -0.882669    32A     -0.827825    33A     -0.789542
      34A     -0.704831    35A     -0.667104    36A     -0.653696
      37A     -0.627348    38A     -0.621532    39A     -0.599831
      40A     -0.587221    41A     -0.582149    42A     -0.556961
      43A     -0.521190    44A     -0.507900    45A     -0.505613
      46A     -0.495560    47A     -0.488768    48A     -0.463815
      49A     -0.455547    50A     -0.447171    51A     -0.441662
      52A     -0.350820    53A     -0.338740

  @DF-RHF Final Energy: -1685.64904304011930

   => Energetics <=

    Nuclear Repulsion Energy =            901.7411815782222675
    One-Electron Energy =               -4115.3476765484119824
    Two-Electron Energy =                1527.9574519300701922
    Total Energy =                      -1685.6490430401192953
  Basis Set: (AUG-CC-PVTZ AUX)
    Blend: AUG-CC-PVTZ-RI
    Molecular point group: c1

    Geometry (in Angstrom), charge = 0, multiplicity = 1:

       Center              X                  Y                   Z               Mass
    ------------   -----------------  -----------------  -----------------  -----------------
         CL          -1.474815878193     0.935627554188    -1.329000989139    34.968852682000
         CL          -1.716003878193    -1.677675445812    -0.195448989139    34.968852682000
         CL          -1.422700878193     0.570886554188     1.566046010861    34.968852682000
         C            0.630045121807    -0.216627445812    -0.031333989139    12.000000000000
         C            1.445853121807     0.942256554188    -0.000610989139    12.000000000000
         C            1.232474121807    -1.482620445812    -0.024820989139    12.000000000000
         C            2.835597121807     0.761362554188    -0.001161989139    12.000000000000
         C           -0.885715878193    -0.107907445812    -0.003091989139    12.000000000000
         C            0.950252121807     2.369879554188    -0.014187989139    12.000000000000
         C            2.618002121807    -1.627037445812    -0.025298989139    12.000000000000
         C            3.430314121807    -0.497915445812    -0.011563989139    12.000000000000
         H            0.620344121807    -2.374971445812    -0.031002989139     1.007825032230
         H            3.438037221807     1.606669954188     0.017873210861     1.007825032230
         H            0.741763121807     2.704222554188    -1.034162989139     1.007825032230
         H            0.045368121807     2.515032554188     0.573705010861     1.007825032230
         H            1.726336121807     3.019395554188     0.399565010861     1.007825032230
         H            3.051755121807    -2.623600445812    -0.025457989139     1.007825032230
         H            4.513433121807    -0.591416445812    -0.009381989139     1.007825032230

  Basis Set: AUG-CC-PVTZ
    Blend: AUG-CC-PVTZ
  Basis Set: (AUG-CC-PVTZ AUX)
    Blend: AUG-CC-PVTZ-JKFIT
	 Reference Energy          =   -1685.6490430401192953 [Eh]
	 Singles Energy            =      -0.0000000000000000 [Eh]
	 Same-Spin Energy          =      -0.5434353343080335 [Eh]
	 Opposite-Spin Energy      =      -1.6246470615129043 [Eh]
	 Correlation Energy        =      -2.1680823958209379 [Eh]
	 Total Energy              =   -1687.8171254359401701 [Eh]

	 ================> DF-SCS-MP2 Energies <==================
	-----------------------------------------------------------
	 SCS Same-Spin Scale       =       0.3333333333333333 [-]
	 SCS Opposite-Spin Scale   =       1.2000000000000000 [-]
	 SCS Same-Spin Energy      =      -0.1811451114360111 [Eh]
	 SCS Opposite-Spin Energy  =      -1.9495764738154850 [Eh]
	 SCS Correlation Energy    =      -2.1307215852514960 [Eh]
	 SCS Total Energy          =   -1687.7797646253707171 [Eh]
	-----------------------------------------------------------

  Dipole Moment: [D]
     X:     2.1435      Y:     0.2448      Z:    -0.0538     Total:     2.1581

*** Psi4 exiting successfully. Buy a developer a beer!
