                               Psi4 1.4a3.dev225

  ==> Input File <==

--------------------------------------------------------------------------
#psi4
#
memory 32 gb

molecule  {
0 1
 Cl       -1.5623360     0.9145460    -1.3283100
 Cl       -1.8035240    -1.6987570    -0.1947580
 Cl       -1.5102210     0.5498050     1.5667370
  C        0.5425250    -0.2377090    -0.0306430
  C        1.3583330     0.9211750     0.0000800
  C        1.1449540    -1.5037020    -0.0241300
  C        2.7480770     0.7402810    -0.0004710
  C       -0.9732360    -0.1289890    -0.0024010
  C        0.8627320     2.3487980    -0.0134970
  C        2.5304820    -1.6481190    -0.0246080
  C        3.3427940    -0.5189970    -0.0108730
  H        0.5328240    -2.3960530    -0.0303120
  H        3.3795310     1.6262990     0.0194810
  H        0.6542430     2.6831410    -1.0334720
  H       -0.0587736     2.4966173     0.5851948
  H        1.6388160     2.9983140     0.4002560
  H        2.9642350    -2.6446820    -0.0247670
  H        4.4259130    -0.6124980    -0.0086910
units angstrom
no_reorient  #important for SAPT in psi4, default
symmetry c1  #important for SAPT in psi4, default
}

set PROPERTIES_ORIGIN ["COM"]
properties('MP2/aug-cc-pvtz', properties = ['dipole'])
--------------------------------------------------------------------------

    Molecular point group: c1
  Charge       = 0
  Multiplicity = 1
  Basis Set: AUG-CC-PVTZ
    Blend: AUG-CC-PVTZ
  Basis Set: (AUG-CC-PVTZ AUX)
    Blend: AUG-CC-PVTZ-JKFIT

    Orbital Energies [Eh]
    ---------------------

    Doubly Occupied:

       1A   -104.858024     2A   -104.855609     3A   -104.855493
       4A    -11.442368     5A    -11.274045     6A    -11.267559
       7A    -11.253178     8A    -11.251342     9A    -11.244844
      10A    -11.244291    11A    -11.232099    12A    -10.582612
      13A    -10.580191    14A    -10.580173    15A     -8.049305
      16A     -8.047273    17A     -8.047261    18A     -8.046897
      19A     -8.046871    20A     -8.044832    21A     -8.044817
      22A     -8.044795    23A     -8.044767    24A     -1.246316
      25A     -1.164679    26A     -1.106874    27A     -1.104959
      28A     -1.057783    29A     -1.037696    30A     -0.950119
      31A     -0.882213    32A     -0.824801    33A     -0.788653
      34A     -0.703079    35A     -0.666982    36A     -0.652347
      37A     -0.627413    38A     -0.617683    39A     -0.599946
      40A     -0.585964    41A     -0.581427    42A     -0.554158
      43A     -0.520877    44A     -0.507515    45A     -0.504297
      46A     -0.495725    47A     -0.488495    48A     -0.463873
      49A     -0.455596    50A     -0.446882    51A     -0.441731
      52A     -0.351095    53A     -0.339017

  @DF-RHF Final Energy: -1685.64917245637116

   => Energetics <=

    Nuclear Repulsion Energy =            901.3858620851444812
    One-Electron Energy =               -4114.6563851731989416
    Two-Electron Energy =                1527.6213506316835264
    Total Energy =                      -1685.6491724563711614
  Basis Set: (AUG-CC-PVTZ AUX)
    Blend: AUG-CC-PVTZ-RI
    Molecular point group: c1

    Geometry (in Angstrom), charge = 0, multiplicity = 1:

       Center              X                  Y                   Z               Mass
    ------------   -----------------  -----------------  -----------------  -----------------
         CL          -1.474875933925     0.935417340468    -1.329057765438    34.968852682000
         CL          -1.716063933925    -1.677885659532    -0.195505765438    34.968852682000
         CL          -1.422760933925     0.570676340468     1.565989234562    34.968852682000
         C            0.629985066075    -0.216837659532    -0.031390765438    12.000000000000
         C            1.445793066075     0.942046340468    -0.000667765438    12.000000000000
         C            1.232414066075    -1.482830659532    -0.024877765438    12.000000000000
         C            2.835537066075     0.761152340468    -0.001218765438    12.000000000000
         C           -0.885775933925    -0.108117659532    -0.003148765438    12.000000000000
         C            0.950192066075     2.369669340468    -0.014244765438    12.000000000000
         C            2.617942066075    -1.627247659532    -0.025355765438    12.000000000000
         C            3.430254066075    -0.498125659532    -0.011620765438    12.000000000000
         H            0.620284066075    -2.375181659532    -0.031059765438     1.007825032230
         H            3.466991066075     1.647170340468     0.018733234562     1.007825032230
         H            0.741703066075     2.704012340468    -1.034219765438     1.007825032230
         H            0.028686466075     2.517488640468     0.584447034562     1.007825032230
         H            1.726276066075     3.019185340468     0.399508234562     1.007825032230
         H            3.051695066075    -2.623810659532    -0.025514765438     1.007825032230
         H            4.513373066075    -0.591626659532    -0.009438765438     1.007825032230

  Basis Set: AUG-CC-PVTZ
    Blend: AUG-CC-PVTZ
  Basis Set: (AUG-CC-PVTZ AUX)
    Blend: AUG-CC-PVTZ-JKFIT
	 Reference Energy          =   -1685.6491724563711614 [Eh]
	 Singles Energy            =      -0.0000000000000000 [Eh]
	 Same-Spin Energy          =      -0.5436062521625310 [Eh]
	 Opposite-Spin Energy      =      -1.6251547674076772 [Eh]
	 Correlation Energy        =      -2.1687610195702081 [Eh]
	 Total Energy              =   -1687.8179334759413450 [Eh]

	 ================> DF-SCS-MP2 Energies <==================
	-----------------------------------------------------------
	 SCS Same-Spin Scale       =       0.3333333333333333 [-]
	 SCS Opposite-Spin Scale   =       1.2000000000000000 [-]
	 SCS Same-Spin Energy      =      -0.1812020840541770 [Eh]
	 SCS Opposite-Spin Energy  =      -1.9501857208892126 [Eh]
	 SCS Correlation Energy    =      -2.1313878049433894 [Eh]
	 SCS Total Energy          =   -1687.7805602613145766 [Eh]
	-----------------------------------------------------------

  Dipole Moment: [D]
     X:     2.1368      Y:     0.2261      Z:    -0.0555     Total:     2.1494

*** Psi4 exiting successfully. Buy a developer a beer!
