                               Psi4 1.4a3.dev225

  ==> Input File <==

--------------------------------------------------------------------------
#psi4
#
memory 32 gb

molecule  {
0 1
 Cl       -1.5623360     0.9145460    -1.3283100
 Cl       -1.8035240    -1.6987570    -0.1947580
 Cl       -1.5102210     0.5498050     1.5667370
  C        0.5425250    -0.2377090    -0.0306430
  C        1.3583330     0.9211750     0.0000800
  C        1.1449540    -1.5037020    -0.0241300
  C        2.7480770     0.7402810    -0.0004710
  C       -1.1726891    -0.1146830     0.0013153
  C        0.8627320     2.3487980    -0.0134970
  C        2.5304820    -1.6481190    -0.0246080
  C        3.3427940    -0.5189970    -0.0108730
  H        0.5328240    -2.3960530    -0.0303120
  H        3.3795310     1.6262990     0.0194810
  H        0.6542430     2.6831410    -1.0334720
  H       -0.0421520     2.4939510     0.5743960
  H        1.6388160     2.9983140     0.4002560
  H        2.9642350    -2.6446820    -0.0247670
  H        4.4259130    -0.6124980    -0.0086910
units angstrom
no_reorient  #important for SAPT in psi4, default
symmetry c1  #important for SAPT in psi4, default
}

set PROPERTIES_ORIGIN ["COM"]
properties('MP2/aug-cc-pvtz', properties = ['dipole'])
--------------------------------------------------------------------------

    Molecular point group: c1
  Charge       = 0
  Multiplicity = 1
  Basis Set: AUG-CC-PVTZ
    Blend: AUG-CC-PVTZ
  Basis Set: (AUG-CC-PVTZ AUX)
    Blend: AUG-CC-PVTZ-JKFIT

    Orbital Energies [Eh]
    ---------------------

    Doubly Occupied:

       1A   -104.862517     2A   -104.860249     3A   -104.860033
       4A    -11.438015     5A    -11.279157     6A    -11.260803
       7A    -11.246308     8A    -11.244298     9A    -11.240957
      10A    -11.240143    11A    -11.227229    12A    -10.588257
      13A    -10.585623    14A    -10.585594    15A     -8.055108
      16A     -8.052898    17A     -8.052882    18A     -8.052476
      19A     -8.052432    20A     -8.050256    21A     -8.050236
      22A     -8.050189    23A     -8.050159    24A     -1.259217
      25A     -1.160208    26A     -1.123249    27A     -1.120967
      28A     -1.053194    29A     -1.022015    30A     -0.942203
      31A     -0.856247    32A     -0.817178    33A     -0.792476
      34A     -0.698125    35A     -0.661490    36A     -0.640711
      37A     -0.640572    38A     -0.620196    39A     -0.614769
      40A     -0.586699    41A     -0.577560    42A     -0.551005
      43A     -0.520362    44A     -0.507163    45A     -0.499430
      46A     -0.498259    47A     -0.492332    48A     -0.468544
      49A     -0.461067    50A     -0.448236    51A     -0.424211
      52A     -0.344987    53A     -0.334260

  @DF-RHF Final Energy: -1685.62616338337330

   => Energetics <=

    Nuclear Repulsion Energy =            901.2575216482639462
    One-Electron Energy =               -4114.3218627717706113
    Two-Electron Energy =                1527.4381777401335967
    Total Energy =                      -1685.6261633833732958
  Basis Set: (AUG-CC-PVTZ AUX)
    Blend: AUG-CC-PVTZ-RI
    Molecular point group: c1

    Geometry (in Angstrom), charge = 0, multiplicity = 1:

       Center              X                  Y                   Z               Mass
    ------------   -----------------  -----------------  -----------------  -----------------
         CL          -1.463447436627     0.934604762314    -1.329219873934    34.968852682000
         CL          -1.704635436627    -1.678698237686    -0.195667873934    34.968852682000
         CL          -1.411332436627     0.569863762314     1.565827126066    34.968852682000
         C            0.641413563373    -0.217650237686    -0.031552873934    12.000000000000
         C            1.457221563373     0.941233762314    -0.000829873934    12.000000000000
         C            1.243842563373    -1.483643237686    -0.025039873934    12.000000000000
         C            2.846965563373     0.760339762314    -0.001380873934    12.000000000000
         C           -1.073800536627    -0.094624237686     0.000405426066    12.000000000000
         C            0.961620563373     2.368856762314    -0.014406873934    12.000000000000
         C            2.629370563373    -1.628060237686    -0.025517873934    12.000000000000
         C            3.441682563373    -0.498938237686    -0.011782873934    12.000000000000
         H            0.631712563373    -2.375994237686    -0.031221873934     1.007825032230
         H            3.478419563373     1.646357762314     0.018571126066     1.007825032230
         H            0.753131563373     2.703199762314    -1.034381873934     1.007825032230
         H            0.056736563373     2.514009762314     0.573486126066     1.007825032230
         H            1.737704563373     3.018372762314     0.399346126066     1.007825032230
         H            3.063123563373    -2.624623237686    -0.025676873934     1.007825032230
         H            4.524801563373    -0.592439237686    -0.009600873934     1.007825032230

  Basis Set: AUG-CC-PVTZ
    Blend: AUG-CC-PVTZ
  Basis Set: (AUG-CC-PVTZ AUX)
    Blend: AUG-CC-PVTZ-JKFIT
	 Reference Energy          =   -1685.6261633833732958 [Eh]
	 Singles Energy            =      -0.0000000000000000 [Eh]
	 Same-Spin Energy          =      -0.5445270408491942 [Eh]
	 Opposite-Spin Energy      =      -1.6258805074088101 [Eh]
	 Correlation Energy        =      -2.1704075482580043 [Eh]
	 Total Energy              =   -1687.7965709316313223 [Eh]

	 ================> DF-SCS-MP2 Energies <==================
	-----------------------------------------------------------
	 SCS Same-Spin Scale       =       0.3333333333333333 [-]
	 SCS Opposite-Spin Scale   =       1.2000000000000000 [-]
	 SCS Same-Spin Energy      =      -0.1815090136163981 [Eh]
	 SCS Opposite-Spin Energy  =      -1.9510566088905721 [Eh]
	 SCS Correlation Energy    =      -2.1325656225069700 [Eh]
	 SCS Total Energy          =   -1687.7587290058802409 [Eh]
	-----------------------------------------------------------

  Dipole Moment: [D]
     X:     1.4517      Y:     0.2241      Z:    -0.0492     Total:     1.4697

*** Psi4 exiting successfully. Buy a developer a beer!
