                               Psi4 1.4a3.dev225

  ==> Input File <==

--------------------------------------------------------------------------
#psi4
#
memory 32 gb

molecule  {
0 1
 Cl       -1.5623360     0.9145460    -1.3283100
 Cl       -1.8035240    -1.6987570    -0.1947580
 Cl       -1.5102210     0.5498050     1.5667370
  C        0.5425250    -0.2377090    -0.0306430
  C        1.3982729     0.8919801     0.0009291
  C        1.1449540    -1.5037020    -0.0241300
  C        2.7480770     0.7402810    -0.0004710
  C       -0.9732360    -0.1289890    -0.0024010
  C        0.8627320     2.3487980    -0.0134970
  C        2.5304820    -1.6481190    -0.0246080
  C        3.3427940    -0.5189970    -0.0108730
  H        0.5328240    -2.3960530    -0.0303120
  H        3.3795310     1.6262990     0.0194810
  H        0.6542430     2.6831410    -1.0334720
  H       -0.0421520     2.4939510     0.5743960
  H        1.6388160     2.9983140     0.4002560
  H        2.9642350    -2.6446820    -0.0247670
  H        4.4259130    -0.6124980    -0.0086910
units angstrom
no_reorient  #important for SAPT in psi4, default
symmetry c1  #important for SAPT in psi4, default
}

set PROPERTIES_ORIGIN ["COM"]
properties('MP2/aug-cc-pvtz', properties = ['dipole'])
--------------------------------------------------------------------------

    Molecular point group: c1
  Charge       = 0
  Multiplicity = 1
  Basis Set: AUG-CC-PVTZ
    Blend: AUG-CC-PVTZ
  Basis Set: (AUG-CC-PVTZ AUX)
    Blend: AUG-CC-PVTZ-JKFIT

    Orbital Energies [Eh]
    ---------------------

    Doubly Occupied:

       1A   -104.858785     2A   -104.855807     3A   -104.855560
       4A    -11.443584     5A    -11.273614     6A    -11.263655
       7A    -11.253416     8A    -11.251680     9A    -11.244462
      10A    -11.239434    11A    -11.230103    12A    -10.583341
      13A    -10.580353    14A    -10.580246    15A     -8.050035
      16A     -8.047998    17A     -8.047984    18A     -8.047052
      19A     -8.046955    20A     -8.044992    21A     -8.044944
      22A     -8.044884    23A     -8.044848    24A     -1.246438
      25A     -1.168537    26A     -1.107004    27A     -1.105041
      28A     -1.054628    29A     -1.039722    30A     -0.947778
      31A     -0.885340    32A     -0.823984    33A     -0.792174
      34A     -0.703742    35A     -0.667301    36A     -0.651411
      37A     -0.627646    38A     -0.619965    39A     -0.600064
      40A     -0.583962    41A     -0.580100    42A     -0.551866
      43A     -0.525351    44A     -0.508517    45A     -0.497963
      46A     -0.494583    47A     -0.489275    48A     -0.464848
      49A     -0.455797    50A     -0.447518    51A     -0.441889
      52A     -0.352461    53A     -0.342460

  @DF-RHF Final Energy: -1685.64807275817907

   => Energetics <=

    Nuclear Repulsion Energy =            901.4170774518095186
    One-Electron Energy =               -4114.7081082832219181
    Two-Electron Energy =                1527.6429580732331033
    Total Energy =                      -1685.6480727581790688
  Basis Set: (AUG-CC-PVTZ AUX)
    Blend: AUG-CC-PVTZ-RI
    Molecular point group: c1

    Geometry (in Angstrom), charge = 0, multiplicity = 1:

       Center              X                  Y                   Z               Mass
    ------------   -----------------  -----------------  -----------------  -----------------
         CL          -1.477261139178     0.937114896250    -1.329054427794    34.968852682000
         CL          -1.718449139178    -1.676188103750    -0.195502427794    34.968852682000
         CL          -1.425146139178     0.572373896250     1.565992572206    34.968852682000
         C            0.627599860822    -0.215140103750    -0.031387427794    12.000000000000
         C            1.483347760822     0.914548996250     0.000184672206    12.000000000000
         C            1.230028860822    -1.481133103750    -0.024874427794    12.000000000000
         C            2.833151860822     0.762849896250    -0.001215427794    12.000000000000
         C           -0.888161139178    -0.106420103750    -0.003145427794    12.000000000000
         C            0.947806860822     2.371366896250    -0.014241427794    12.000000000000
         C            2.615556860822    -1.625550103750    -0.025352427794    12.000000000000
         C            3.427868860822    -0.496428103750    -0.011617427794    12.000000000000
         H            0.617898860822    -2.373484103750    -0.031056427794     1.007825032230
         H            3.464605860822     1.648867896250     0.018736572206     1.007825032230
         H            0.739317860822     2.705709896250    -1.034216427794     1.007825032230
         H            0.042922860822     2.516519896250     0.573651572206     1.007825032230
         H            1.723890860822     3.020882896250     0.399511572206     1.007825032230
         H            3.049309860822    -2.622113103750    -0.025511427794     1.007825032230
         H            4.510987860822    -0.589929103750    -0.009435427794     1.007825032230

  Basis Set: AUG-CC-PVTZ
    Blend: AUG-CC-PVTZ
  Basis Set: (AUG-CC-PVTZ AUX)
    Blend: AUG-CC-PVTZ-JKFIT
	 Reference Energy          =   -1685.6480727581790688 [Eh]
	 Singles Energy            =      -0.0000000000000000 [Eh]
	 Same-Spin Energy          =      -0.5430664074740199 [Eh]
	 Opposite-Spin Energy      =      -1.6244618801054900 [Eh]
	 Correlation Energy        =      -2.1675282875795099 [Eh]
	 Total Energy              =   -1687.8156010457585126 [Eh]

	 ================> DF-SCS-MP2 Energies <==================
	-----------------------------------------------------------
	 SCS Same-Spin Scale       =       0.3333333333333333 [-]
	 SCS Opposite-Spin Scale   =       1.2000000000000000 [-]
	 SCS Same-Spin Energy      =      -0.1810221358246733 [Eh]
	 SCS Opposite-Spin Energy  =      -1.9493542561265880 [Eh]
	 SCS Correlation Energy    =      -2.1303763919512613 [Eh]
	 SCS Total Energy          =   -1687.7784491501304274 [Eh]
	-----------------------------------------------------------

  Dipole Moment: [D]
     X:     2.1261      Y:     0.1638      Z:    -0.0506     Total:     2.1330

*** Psi4 exiting successfully. Buy a developer a beer!
