                               Psi4 1.4a3.dev225

  ==> Input File <==

--------------------------------------------------------------------------
#psi4
#
memory 32 gb

molecule  {
0 1
 Cl       -1.5623360     0.9145460    -1.3283100
 Cl       -1.8035240    -1.6987570    -0.1947580
 Cl       -1.5102210     0.5498050     1.5667370
  C        0.5425250    -0.2377090    -0.0306430
  C        1.3583330     0.9211750     0.0000800
  C        1.1449540    -1.5037020    -0.0241300
  C        2.7480770     0.7402810    -0.0004710
  C       -0.9732360    -0.1289890    -0.0024010
  C        0.8627320     2.3487980    -0.0134970
  C        2.5304820    -1.6481190    -0.0246080
  C        3.3427940    -0.5189970    -0.0108730
  H        0.5328240    -2.3960530    -0.0303120
  H        3.3679254     1.6100148     0.0191143
  H        0.6542430     2.6831410    -1.0334720
  H       -0.0421520     2.4939510     0.5743960
  H        1.6388160     2.9983140     0.4002560
  H        2.9642350    -2.6446820    -0.0247670
  H        4.4259130    -0.6124980    -0.0086910
units angstrom
no_reorient  #important for SAPT in psi4, default
symmetry c1  #important for SAPT in psi4, default
}

set PROPERTIES_ORIGIN ["COM"]
properties('MP2/aug-cc-pvtz', properties = ['dipole'])
--------------------------------------------------------------------------

    Molecular point group: c1
  Charge       = 0
  Multiplicity = 1
  Basis Set: AUG-CC-PVTZ
    Blend: AUG-CC-PVTZ
  Basis Set: (AUG-CC-PVTZ AUX)
    Blend: AUG-CC-PVTZ-JKFIT

    Orbital Energies [Eh]
    ---------------------

    Doubly Occupied:

       1A   -104.857984     2A   -104.855632     3A   -104.855520
       4A    -11.442323     5A    -11.273847     6A    -11.267234
       7A    -11.253062     8A    -11.251080     9A    -11.244634
      10A    -11.241835    11A    -11.229956    12A    -10.582572
      13A    -10.580217    14A    -10.580189    15A     -8.049265
      16A     -8.047233    17A     -8.047221    18A     -8.046924
      19A     -8.046888    20A     -8.044859    21A     -8.044833
      22A     -8.044822    23A     -8.044784    24A     -1.246288
      25A     -1.164678    26A     -1.106874    27A     -1.104954
      28A     -1.058085    29A     -1.038060    30A     -0.951502
      31A     -0.882518    32A     -0.826002    33A     -0.789130
      34A     -0.703805    35A     -0.667171    36A     -0.652851
      37A     -0.627407    38A     -0.619206    39A     -0.599874
      40A     -0.587151    41A     -0.581954    42A     -0.555965
      43A     -0.521141    44A     -0.507808    45A     -0.504844
      46A     -0.495647    47A     -0.488824    48A     -0.463894
      49A     -0.455597    50A     -0.447224    51A     -0.441711
      52A     -0.350947    53A     -0.338889

  @DF-RHF Final Energy: -1685.64992029212658

   => Energetics <=

    Nuclear Repulsion Energy =            901.5663897760128975
    One-Electron Energy =               -4115.0067923521874036
    Two-Electron Energy =                1527.7904822840480392
    Total Energy =                      -1685.6499202921265805
  Basis Set: (AUG-CC-PVTZ AUX)
    Blend: AUG-CC-PVTZ-RI
    Molecular point group: c1

    Geometry (in Angstrom), charge = 0, multiplicity = 1:

       Center              X                  Y                   Z               Mass
    ------------   -----------------  -----------------  -----------------  -----------------
         CL          -1.474900242532     0.935509178637    -1.329003655041    34.968852682000
         CL          -1.716088242532    -1.677793821363    -0.195451655041    34.968852682000
         CL          -1.422785242532     0.570768178637     1.566043344959    34.968852682000
         C            0.629960757468    -0.216745821363    -0.031336655041    12.000000000000
         C            1.445768757468     0.942138178637    -0.000613655041    12.000000000000
         C            1.232389757468    -1.482738821363    -0.024823655041    12.000000000000
         C            2.835512757468     0.761244178637    -0.001164655041    12.000000000000
         C           -0.885800242532    -0.108025821363    -0.003094655041    12.000000000000
         C            0.950167757468     2.369761178637    -0.014190655041    12.000000000000
         C            2.617917757468    -1.627155821363    -0.025301655041    12.000000000000
         C            3.430229757468    -0.498033821363    -0.011566655041    12.000000000000
         H            0.620259757468    -2.375089821363    -0.031005655041     1.007825032230
         H            3.455361157468     1.630977978637     0.018420644959     1.007825032230
         H            0.741678757468     2.704104178637    -1.034165655041     1.007825032230
         H            0.045283757468     2.514914178637     0.573702344959     1.007825032230
         H            1.726251757468     3.019277178637     0.399562344959     1.007825032230
         H            3.051670757468    -2.623718821363    -0.025460655041     1.007825032230
         H            4.513348757468    -0.591534821363    -0.009384655041     1.007825032230

  Basis Set: AUG-CC-PVTZ
    Blend: AUG-CC-PVTZ
  Basis Set: (AUG-CC-PVTZ AUX)
    Blend: AUG-CC-PVTZ-JKFIT
	 Reference Energy          =   -1685.6499202921265805 [Eh]
	 Singles Energy            =      -0.0000000000000000 [Eh]
	 Same-Spin Energy          =      -0.5435002240556608 [Eh]
	 Opposite-Spin Energy      =      -1.6248273942381133 [Eh]
	 Correlation Energy        =      -2.1683276182937741 [Eh]
	 Total Energy              =   -1687.8182479104202685 [Eh]

	 ================> DF-SCS-MP2 Energies <==================
	-----------------------------------------------------------
	 SCS Same-Spin Scale       =       0.3333333333333333 [-]
	 SCS Opposite-Spin Scale   =       1.2000000000000000 [-]
	 SCS Same-Spin Energy      =      -0.1811667413518869 [Eh]
	 SCS Opposite-Spin Energy  =      -1.9497928730857359 [Eh]
	 SCS Correlation Energy    =      -2.1309596144376228 [Eh]
	 SCS Total Energy          =   -1687.7808799065642233 [Eh]
	-----------------------------------------------------------

  Dipole Moment: [D]
     X:     2.1371      Y:     0.2371      Z:    -0.0540     Total:     2.1509

*** Psi4 exiting successfully. Buy a developer a beer!
