                               Psi4 1.4a3.dev225

  ==> Input File <==

--------------------------------------------------------------------------
#psi4
#
memory 32 gb

molecule  {
0 1
 Cl       -1.5623360     0.9145460    -1.3283100
 Cl       -1.8035240    -1.6987570    -0.1947580
 Cl       -1.5102210     0.5498050     1.5667370
  C        0.5425250    -0.2377090    -0.0306430
  C        1.3583330     0.9211750     0.0000800
  C        1.1449540    -1.5037020    -0.0241300
  C        2.7480770     0.7402810    -0.0004710
  C       -0.9732360    -0.1289890    -0.0024010
  C        0.8627320     2.3487980    -0.0134970
  C        2.5304820    -1.6481190    -0.0246080
  C        3.3427940    -0.5189970    -0.0108730
  H        0.5328240    -2.3960530    -0.0303120
  H        3.3795310     1.6262990     0.0194810
  H        0.6542430     2.6831410    -1.0334720
  H       -0.0421520     2.4939510     0.5743960
  H        1.6388160     2.9983140     0.4002560
  H        2.9642350    -2.6446820    -0.0247670
  H        4.4757276    -0.6167983    -0.0085906
units angstrom
no_reorient  #important for SAPT in psi4, default
symmetry c1  #important for SAPT in psi4, default
}

set PROPERTIES_ORIGIN ["COM"]
properties('MP2/aug-cc-pvtz', properties = ['dipole'])
--------------------------------------------------------------------------

    Molecular point group: c1
  Charge       = 0
  Multiplicity = 1
  Basis Set: AUG-CC-PVTZ
    Blend: AUG-CC-PVTZ
  Basis Set: (AUG-CC-PVTZ AUX)
    Blend: AUG-CC-PVTZ-JKFIT

    Orbital Energies [Eh]
    ---------------------

    Doubly Occupied:

       1A   -104.858156     2A   -104.855776     3A   -104.855663
       4A    -11.442510     5A    -11.274167     6A    -11.267748
       7A    -11.256906     8A    -11.253476     9A    -11.245258
      10A    -11.244648    11A    -11.230104    12A    -10.582744
      13A    -10.580360    14A    -10.580332    15A     -8.049436
      16A     -8.047404    17A     -8.047392    18A     -8.047067
      19A     -8.047031    20A     -8.045001    21A     -8.044976
      22A     -8.044964    23A     -8.044927    24A     -1.246470
      25A     -1.164689    26A     -1.107036    27A     -1.105098
      28A     -1.057983    29A     -1.036866    30A     -0.951504
      31A     -0.880737    32A     -0.825071    33A     -0.787254
      34A     -0.701648    35A     -0.667414    36A     -0.647236
      37A     -0.627572    38A     -0.616729    39A     -0.600081
      40A     -0.587271    41A     -0.581826    42A     -0.554976
      43A     -0.517644    44A     -0.507958    45A     -0.504517
      46A     -0.495906    47A     -0.488968    48A     -0.463974
      49A     -0.455746    50A     -0.447330    51A     -0.441857
      52A     -0.351280    53A     -0.339275

  @DF-RHF Final Energy: -1685.64730325736969

   => Energetics <=

    Nuclear Repulsion Energy =            901.1813661263684025
    One-Electron Energy =               -4114.2414158465380751
    Two-Electron Energy =                1527.4127464627997597
    Total Energy =                      -1685.6473032573696855
  Basis Set: (AUG-CC-PVTZ AUX)
    Blend: AUG-CC-PVTZ-RI
    Molecular point group: c1

    Geometry (in Angstrom), charge = 0, multiplicity = 1:

       Center              X                  Y                   Z               Mass
    ------------   -----------------  -----------------  -----------------  -----------------
         CL          -1.475197897938     0.935451102099    -1.329005918707    34.968852682000
         CL          -1.716385897938    -1.677851897901    -0.195453918707    34.968852682000
         CL          -1.423082897938     0.570710102099     1.566041081293    34.968852682000
         C            0.629663102062    -0.216803897901    -0.031338918707    12.000000000000
         C            1.445471102062     0.942080102099    -0.000615918707    12.000000000000
         C            1.232092102062    -1.482796897901    -0.024825918707    12.000000000000
         C            2.835215102062     0.761186102099    -0.001166918707    12.000000000000
         C           -0.886097897938    -0.108083897901    -0.003096918707    12.000000000000
         C            0.949870102062     2.369703102099    -0.014192918707    12.000000000000
         C            2.617620102062    -1.627213897901    -0.025303918707    12.000000000000
         C            3.429932102062    -0.498091897901    -0.011568918707    12.000000000000
         H            0.619962102062    -2.375147897901    -0.031007918707     1.007825032230
         H            3.466669102062     1.647204102099     0.018785081293     1.007825032230
         H            0.741381102062     2.704046102099    -1.034167918707     1.007825032230
         H            0.044986102062     2.514856102099     0.573700081293     1.007825032230
         H            1.725954102062     3.019219102099     0.399560081293     1.007825032230
         H            3.051373102062    -2.623776897901    -0.025462918707     1.007825032230
         H            4.562865702062    -0.595893197901    -0.009286518707     1.007825032230

  Basis Set: AUG-CC-PVTZ
    Blend: AUG-CC-PVTZ
  Basis Set: (AUG-CC-PVTZ AUX)
    Blend: AUG-CC-PVTZ-JKFIT
	 Reference Energy          =   -1685.6473032573696855 [Eh]
	 Singles Energy            =      -0.0000000000000000 [Eh]
	 Same-Spin Energy          =      -0.5436492277835842 [Eh]
	 Opposite-Spin Energy      =      -1.6254034933615895 [Eh]
	 Correlation Energy        =      -2.1690527211451736 [Eh]
	 Total Energy              =   -1687.8163559785148209 [Eh]

	 ================> DF-SCS-MP2 Energies <==================
	-----------------------------------------------------------
	 SCS Same-Spin Scale       =       0.3333333333333333 [-]
	 SCS Opposite-Spin Scale   =       1.2000000000000000 [-]
	 SCS Same-Spin Energy      =      -0.1812164092611947 [Eh]
	 SCS Opposite-Spin Energy  =      -1.9504841920339073 [Eh]
	 SCS Correlation Energy    =      -2.1317006012951021 [Eh]
	 SCS Total Energy          =   -1687.7790038586647370 [Eh]
	-----------------------------------------------------------

  Dipole Moment: [D]
     X:     2.1112      Y:     0.2350      Z:    -0.0541     Total:     2.1249

*** Psi4 exiting successfully. Buy a developer a beer!
