                               Psi4 1.4a3.dev225

  ==> Input File <==

--------------------------------------------------------------------------
#psi4
#
memory 32 gb

molecule  {
0 1
 Cl       -1.5623360     0.9145460    -1.3283100
 Cl       -1.8035240    -1.6987570    -0.1947580
 Cl       -1.5102210     0.5498050     1.5667370
  C        0.5425250    -0.2377090    -0.0306430
  C        1.3583330     0.9211750     0.0000800
  C        1.1449540    -1.5037020    -0.0241300
  C        2.7480770     0.7402810    -0.0004710
  C       -0.9732360    -0.1289890    -0.0024010
  C        0.8627320     2.3487980    -0.0134970
  C        2.6299432    -1.6584861    -0.0246423
  C        3.3427940    -0.5189970    -0.0108730
  H        0.5328240    -2.3960530    -0.0303120
  H        3.3795310     1.6262990     0.0194810
  H        0.6542430     2.6831410    -1.0334720
  H       -0.0421520     2.4939510     0.5743960
  H        1.6388160     2.9983140     0.4002560
  H        2.9642350    -2.6446820    -0.0247670
  H        4.4259130    -0.6124980    -0.0086910
units angstrom
no_reorient  #important for SAPT in psi4, default
symmetry c1  #important for SAPT in psi4, default
}

set PROPERTIES_ORIGIN ["COM"]
properties('MP2/aug-cc-pvtz', properties = ['dipole'])
--------------------------------------------------------------------------

    Molecular point group: c1
  Charge       = 0
  Multiplicity = 1
  Basis Set: AUG-CC-PVTZ
    Blend: AUG-CC-PVTZ
  Basis Set: (AUG-CC-PVTZ AUX)
    Blend: AUG-CC-PVTZ-JKFIT

    Orbital Energies [Eh]
    ---------------------

    Doubly Occupied:

       1A   -104.858168     2A   -104.856003     3A   -104.855906
       4A    -11.442767     5A    -11.274952     6A    -11.267532
       7A    -11.263777     8A    -11.246976     9A    -11.245367
      10A    -11.243447    11A    -11.229674    12A    -10.582745
      13A    -10.580598    14A    -10.580551    15A     -8.049439
      16A     -8.047407    17A     -8.047393    18A     -8.047306
      19A     -8.047251    20A     -8.045240    21A     -8.045203
      22A     -8.045195    23A     -8.045146    24A     -1.246388
      25A     -1.161470    26A     -1.106905    27A     -1.105299
      28A     -1.059626    29A     -1.034870    30A     -0.948392
      31A     -0.882341    32A     -0.828598    33A     -0.788622
      34A     -0.704781    35A     -0.665567    36A     -0.652061
      37A     -0.627563    38A     -0.625595    39A     -0.603453
      40A     -0.587027    41A     -0.576620    42A     -0.554091
      43A     -0.515141    44A     -0.510159    45A     -0.505012
      46A     -0.494562    47A     -0.487749    48A     -0.463644
      49A     -0.455992    50A     -0.446684    51A     -0.441908
      52A     -0.356691    53A     -0.332270

  @DF-RHF Final Energy: -1685.63855673612807

   => Energetics <=

    Nuclear Repulsion Energy =            899.8912086511645612
    One-Electron Energy =               -4111.6252885272033382
    Two-Electron Energy =                1526.0955231399107106
    Total Energy =                      -1685.6385567361280664
  Basis Set: (AUG-CC-PVTZ AUX)
    Blend: AUG-CC-PVTZ-RI
    Molecular point group: c1

    Geometry (in Angstrom), charge = 0, multiplicity = 1:

       Center              X                  Y                   Z               Mass
    ------------   -----------------  -----------------  -----------------  -----------------
         CL          -1.480695698809     0.936028475056    -1.329003452933    34.968852682000
         CL          -1.721883698809    -1.677274524944    -0.195451452933    34.968852682000
         CL          -1.428580698809     0.571287475056     1.566043547067    34.968852682000
         C            0.624165301191    -0.216226524944    -0.031336452933    12.000000000000
         C            1.439973301191     0.942657475056    -0.000613452933    12.000000000000
         C            1.226594301191    -1.482219524944    -0.024823452933    12.000000000000
         C            2.829717301191     0.761763475056    -0.001164452933    12.000000000000
         C           -0.891595698809    -0.107506524944    -0.003094452933    12.000000000000
         C            0.944372301191     2.370280475056    -0.014190452933    12.000000000000
         C            2.711583501191    -1.637003624944    -0.025335752933    12.000000000000
         C            3.424434301191    -0.497514524944    -0.011566452933    12.000000000000
         H            0.614464301191    -2.374570524944    -0.031005452933     1.007825032230
         H            3.461171301191     1.647781475056     0.018787547067     1.007825032230
         H            0.735883301191     2.704623475056    -1.034165452933     1.007825032230
         H            0.039488301191     2.515433475056     0.573702547067     1.007825032230
         H            1.720456301191     3.019796475056     0.399562547067     1.007825032230
         H            3.045875301191    -2.623199524944    -0.025460452933     1.007825032230
         H            4.507553301191    -0.591015524944    -0.009384452933     1.007825032230

  Basis Set: AUG-CC-PVTZ
    Blend: AUG-CC-PVTZ
  Basis Set: (AUG-CC-PVTZ AUX)
    Blend: AUG-CC-PVTZ-JKFIT
	 Reference Energy          =   -1685.6385567361280664 [Eh]
	 Singles Energy            =      -0.0000000000000000 [Eh]
	 Same-Spin Energy          =      -0.5431368747803272 [Eh]
	 Opposite-Spin Energy      =      -1.6255447556903246 [Eh]
	 Correlation Energy        =      -2.1686816304706520 [Eh]
	 Total Energy              =   -1687.8072383665987672 [Eh]

	 ================> DF-SCS-MP2 Energies <==================
	-----------------------------------------------------------
	 SCS Same-Spin Scale       =       0.3333333333333333 [-]
	 SCS Opposite-Spin Scale   =       1.2000000000000000 [-]
	 SCS Same-Spin Energy      =      -0.1810456249267757 [Eh]
	 SCS Opposite-Spin Energy  =      -1.9506537068283896 [Eh]
	 SCS Correlation Energy    =      -2.1316993317551653 [Eh]
	 SCS Total Energy          =   -1687.7702560678833379 [Eh]
	-----------------------------------------------------------

  Dipole Moment: [D]
     X:     2.1074      Y:     0.1925      Z:    -0.0523     Total:     2.1168

*** Psi4 exiting successfully. Buy a developer a beer!
