                               Psi4 1.4a3.dev225

  ==> Input File <==

--------------------------------------------------------------------------
#psi4
#
memory 32 gb

molecule  {
0 1
 Cl       -1.5623360     0.9145460    -1.3283100
 Cl       -1.8035240    -1.6987570    -0.1947580
 Cl       -1.5102210     0.5498050     1.5667370
  C        0.5425250    -0.2377090    -0.0306430
  C        1.3698430     0.9375253     0.0005135
  C        1.1449540    -1.5037020    -0.0241300
  C        2.7480770     0.7402810    -0.0004710
  C       -0.9732360    -0.1289890    -0.0024010
  C        0.8627320     2.3487980    -0.0134970
  C        2.5304820    -1.6481190    -0.0246080
  C        3.3427940    -0.5189970    -0.0108730
  H        0.5328240    -2.3960530    -0.0303120
  H        3.3795310     1.6262990     0.0194810
  H        0.6542430     2.6831410    -1.0334720
  H       -0.0421520     2.4939510     0.5743960
  H        1.6388160     2.9983140     0.4002560
  H        2.9642350    -2.6446820    -0.0247670
  H        4.4259130    -0.6124980    -0.0086910
units angstrom
no_reorient  #important for SAPT in psi4, default
symmetry c1  #important for SAPT in psi4, default
}

set PROPERTIES_ORIGIN ["COM"]
properties('MP2/aug-cc-pvtz', properties = ['dipole'])
--------------------------------------------------------------------------

    Molecular point group: c1
  Charge       = 0
  Multiplicity = 1
  Basis Set: AUG-CC-PVTZ
    Blend: AUG-CC-PVTZ
  Basis Set: (AUG-CC-PVTZ AUX)
    Blend: AUG-CC-PVTZ-JKFIT

    Orbital Energies [Eh]
    ---------------------

    Doubly Occupied:

       1A   -104.857939     2A   -104.855604     3A   -104.855511
       4A    -11.442367     5A    -11.275583     6A    -11.268041
       7A    -11.253290     8A    -11.251533     9A    -11.244842
      10A    -11.243124    11A    -11.229422    12A    -10.582525
      13A    -10.580211    14A    -10.580163    15A     -8.049218
      16A     -8.047186    17A     -8.047173    18A     -8.046918
      19A     -8.046862    20A     -8.044853    21A     -8.044817
      22A     -8.044807    23A     -8.044758    24A     -1.245926
      25A     -1.164083    26A     -1.106855    27A     -1.104925
      28A     -1.059483    29A     -1.037161    30A     -0.952312
      31A     -0.883001    32A     -0.822003    33A     -0.789572
      34A     -0.703014    35A     -0.667280    36A     -0.652738
      37A     -0.627205    38A     -0.616642    39A     -0.599905
      40A     -0.587901    41A     -0.583764    42A     -0.555103
      43A     -0.522881    44A     -0.507258    45A     -0.502835
      46A     -0.495483    47A     -0.488718    48A     -0.464315
      49A     -0.455607    50A     -0.447183    51A     -0.441708
      52A     -0.351077    53A     -0.338110

  @DF-RHF Final Energy: -1685.64908113938463

   => Energetics <=

    Nuclear Repulsion Energy =            901.1734865885978252
    One-Electron Energy =               -4114.2235451867572920
    Two-Electron Energy =                1527.4009774587748325
    Total Energy =                      -1685.6490811393846343
  Basis Set: (AUG-CC-PVTZ AUX)
    Blend: AUG-CC-PVTZ-RI
    Molecular point group: c1

    Geometry (in Angstrom), charge = 0, multiplicity = 1:

       Center              X                  Y                   Z               Mass
    ------------   -----------------  -----------------  -----------------  -----------------
         CL          -1.475620647676     0.934486800001    -1.329030446413    34.968852682000
         CL          -1.716808647676    -1.678816199999    -0.195478446413    34.968852682000
         CL          -1.423505647676     0.569745800001     1.566016553587    34.968852682000
         C            0.629240352324    -0.217768199999    -0.031363446413    12.000000000000
         C            1.456558352324     0.957466100001    -0.000206946413    12.000000000000
         C            1.231669352324    -1.483761199999    -0.024850446413    12.000000000000
         C            2.834792352324     0.760221800001    -0.001191446413    12.000000000000
         C           -0.886520647676    -0.109048199999    -0.003121446413    12.000000000000
         C            0.949447352324     2.368738800001    -0.014217446413    12.000000000000
         C            2.617197352324    -1.628178199999    -0.025328446413    12.000000000000
         C            3.429509352324    -0.499056199999    -0.011593446413    12.000000000000
         H            0.619539352324    -2.376112199999    -0.031032446413     1.007825032230
         H            3.466246352324     1.646239800001     0.018760553587     1.007825032230
         H            0.740958352324     2.703081800001    -1.034192446413     1.007825032230
         H            0.044563352324     2.513891800001     0.573675553587     1.007825032230
         H            1.725531352324     3.018254800001     0.399535553587     1.007825032230
         H            3.050950352324    -2.624741199999    -0.025487446413     1.007825032230
         H            4.512628352324    -0.592557199999    -0.009411446413     1.007825032230

  Basis Set: AUG-CC-PVTZ
    Blend: AUG-CC-PVTZ
  Basis Set: (AUG-CC-PVTZ AUX)
    Blend: AUG-CC-PVTZ-JKFIT
	 Reference Energy          =   -1685.6490811393846343 [Eh]
	 Singles Energy            =      -0.0000000000000000 [Eh]
	 Same-Spin Energy          =      -0.5436387272999785 [Eh]
	 Opposite-Spin Energy      =      -1.6251106939682798 [Eh]
	 Correlation Energy        =      -2.1687494212682585 [Eh]
	 Total Energy              =   -1687.8178305606529648 [Eh]

	 ================> DF-SCS-MP2 Energies <==================
	-----------------------------------------------------------
	 SCS Same-Spin Scale       =       0.3333333333333333 [-]
	 SCS Opposite-Spin Scale   =       1.2000000000000000 [-]
	 SCS Same-Spin Energy      =      -0.1812129090999928 [Eh]
	 SCS Opposite-Spin Energy  =      -1.9501328327619356 [Eh]
	 SCS Correlation Energy    =      -2.1313457418619284 [Eh]
	 SCS Total Energy          =   -1687.7804268812465125 [Eh]
	-----------------------------------------------------------

  Dipole Moment: [D]
     X:     2.1279      Y:     0.2384      Z:    -0.0549     Total:     2.1419

*** Psi4 exiting successfully. Buy a developer a beer!
