                               Psi4 1.4a3.dev225

  ==> Input File <==

--------------------------------------------------------------------------
#psi4
#
memory 32 gb

molecule  {
0 1
 Cl       -1.5623360     0.9145460    -1.3283100
 Cl       -1.8035240    -1.6987570    -0.1947580
 Cl       -1.5102210     0.5498050     1.5667370
  C        0.5425250    -0.2377090    -0.0306430
  C        1.3583330     0.9211750     0.0000800
  C        1.1449540    -1.5037020    -0.0241300
  C        2.7480770     0.7402810    -0.0004710
  C       -0.9732360    -0.1289890    -0.0024010
  C        0.8627320     2.3487980    -0.0134970
  C        2.5503742    -1.6501924    -0.0246149
  C        3.3427940    -0.5189970    -0.0108730
  H        0.5328240    -2.3960530    -0.0303120
  H        3.3795310     1.6262990     0.0194810
  H        0.6542430     2.6831410    -1.0334720
  H       -0.0421520     2.4939510     0.5743960
  H        1.6388160     2.9983140     0.4002560
  H        2.9642350    -2.6446820    -0.0247670
  H        4.4259130    -0.6124980    -0.0086910
units angstrom
no_reorient  #important for SAPT in psi4, default
symmetry c1  #important for SAPT in psi4, default
}

set PROPERTIES_ORIGIN ["COM"]
properties('MP2/aug-cc-pvtz', properties = ['dipole'])
--------------------------------------------------------------------------

    Molecular point group: c1
  Charge       = 0
  Multiplicity = 1
  Basis Set: AUG-CC-PVTZ
    Blend: AUG-CC-PVTZ
  Basis Set: (AUG-CC-PVTZ AUX)
    Blend: AUG-CC-PVTZ-JKFIT

    Orbital Energies [Eh]
    ---------------------

    Doubly Occupied:

       1A   -104.858071     2A   -104.855748     3A   -104.855637
       4A    -11.442478     5A    -11.274212     6A    -11.267394
       7A    -11.255542     8A    -11.250178     9A    -11.245124
      10A    -11.244038    11A    -11.229848    12A    -10.582657
      13A    -10.580333    14A    -10.580302    15A     -8.049350
      16A     -8.047318    17A     -8.047305    18A     -8.047040
      19A     -8.047002    20A     -8.044974    21A     -8.044946
      22A     -8.044938    23A     -8.044897    24A     -1.246353
      25A     -1.163871    26A     -1.106913    27A     -1.105062
      28A     -1.057859    29A     -1.037389    30A     -0.950540
      31A     -0.882538    32A     -0.825730    33A     -0.788704
      34A     -0.703457    35A     -0.666728    36A     -0.652287
      37A     -0.627475    38A     -0.618826    39A     -0.600630
      40A     -0.587100    41A     -0.580949    42A     -0.555120
      43A     -0.519235    44A     -0.508193    45A     -0.505763
      46A     -0.495484    47A     -0.488753    48A     -0.464024
      49A     -0.455710    50A     -0.447216    51A     -0.441792
      52A     -0.351506    53A     -0.338018

  @DF-RHF Final Energy: -1685.64930059262360

   => Energetics <=

    Nuclear Repulsion Energy =            901.1300058864087532
    One-Electron Energy =               -4114.1334981121526653
    Two-Electron Energy =                1527.3541916331200810
    Total Energy =                      -1685.6493005926236037
  Basis Set: (AUG-CC-PVTZ AUX)
    Blend: AUG-CC-PVTZ-RI
    Molecular point group: c1

    Geometry (in Angstrom), charge = 0, multiplicity = 1:

       Center              X                  Y                   Z               Mass
    ------------   -----------------  -----------------  -----------------  -----------------
         CL          -1.476104326052     0.935549903399    -1.329005033996    34.968852682000
         CL          -1.717292326052    -1.677753096601    -0.195453033996    34.968852682000
         CL          -1.423989326052     0.570808903399     1.566041966004    34.968852682000
         C            0.628756673948    -0.216705096601    -0.031338033996    12.000000000000
         C            1.444564673948     0.942178903399    -0.000615033996    12.000000000000
         C            1.231185673948    -1.482698096601    -0.024825033996    12.000000000000
         C            2.834308673948     0.761284903399    -0.001166033996    12.000000000000
         C           -0.887004326052    -0.107985096601    -0.003096033996    12.000000000000
         C            0.948963673948     2.369801903399    -0.014192033996    12.000000000000
         C            2.636605873948    -1.629188496601    -0.025309933996    12.000000000000
         C            3.429025673948    -0.497993096601    -0.011568033996    12.000000000000
         H            0.619055673948    -2.375049096601    -0.031007033996     1.007825032230
         H            3.465762673948     1.647302903399     0.018785966004     1.007825032230
         H            0.740474673948     2.704144903399    -1.034167033996     1.007825032230
         H            0.044079673948     2.514954903399     0.573700966004     1.007825032230
         H            1.725047673948     3.019317903399     0.399560966004     1.007825032230
         H            3.050466673948    -2.623678096601    -0.025462033996     1.007825032230
         H            4.512144673948    -0.591494096601    -0.009386033996     1.007825032230

  Basis Set: AUG-CC-PVTZ
    Blend: AUG-CC-PVTZ
  Basis Set: (AUG-CC-PVTZ AUX)
    Blend: AUG-CC-PVTZ-JKFIT
	 Reference Energy          =   -1685.6493005926236037 [Eh]
	 Singles Energy            =      -0.0000000000000000 [Eh]
	 Same-Spin Energy          =      -0.5434844418011242 [Eh]
	 Opposite-Spin Energy      =      -1.6250004859363361 [Eh]
	 Correlation Energy        =      -2.1684849277374605 [Eh]
	 Total Energy              =   -1687.8177855203609852 [Eh]

	 ================> DF-SCS-MP2 Energies <==================
	-----------------------------------------------------------
	 SCS Same-Spin Scale       =       0.3333333333333333 [-]
	 SCS Opposite-Spin Scale   =       1.2000000000000000 [-]
	 SCS Same-Spin Energy      =      -0.1811614806003747 [Eh]
	 SCS Opposite-Spin Energy  =      -1.9500005831236031 [Eh]
	 SCS Correlation Energy    =      -2.1311620637239779 [Eh]
	 SCS Total Energy          =   -1687.7804626563474812 [Eh]
	-----------------------------------------------------------

  Dipole Moment: [D]
     X:     2.1277      Y:     0.2228      Z:    -0.0537     Total:     2.1400

*** Psi4 exiting successfully. Buy a developer a beer!
