                               Psi4 1.4a3.dev225

  ==> Input File <==

--------------------------------------------------------------------------
#psi4
#
memory 32 gb

molecule  {
0 1
 Cl       -1.5623360     0.9145460    -1.3283100
 Cl       -1.8035240    -1.6987570    -0.1947580
 Cl       -1.5102210     0.5498050     1.5667370
  C        0.5425250    -0.2377090    -0.0306430
  C        1.3583330     0.9211750     0.0000800
  C        1.1449540    -1.5037020    -0.0241300
  C        2.7480770     0.7402810    -0.0004710
  C       -0.9732360    -0.1289890    -0.0024010
  C        0.8627320     2.3487980    -0.0134970
  C        2.5304820    -1.6481190    -0.0246080
  C        3.3427940    -0.5189970    -0.0108730
  H        0.5328240    -2.3960530    -0.0303120
  H        3.3795310     1.6262990     0.0194810
  H        0.6542430     2.6831410    -1.0334720
  H       -0.0421520     2.4939510     0.5743960
  H        1.6388160     2.9983140     0.4002560
  H        2.9642350    -2.6446820    -0.0247670
  H        4.4458389    -0.6142181    -0.0086509
units angstrom
no_reorient  #important for SAPT in psi4, default
symmetry c1  #important for SAPT in psi4, default
}

set PROPERTIES_ORIGIN ["COM"]
properties('MP2/aug-cc-pvtz', properties = ['dipole'])
--------------------------------------------------------------------------

    Molecular point group: c1
  Charge       = 0
  Multiplicity = 1
  Basis Set: AUG-CC-PVTZ
    Blend: AUG-CC-PVTZ
  Basis Set: (AUG-CC-PVTZ AUX)
    Blend: AUG-CC-PVTZ-JKFIT

    Orbital Energies [Eh]
    ---------------------

    Doubly Occupied:

       1A   -104.858081     2A   -104.855709     3A   -104.855595
       4A    -11.442433     5A    -11.274056     6A    -11.267543
       7A    -11.253549     8A    -11.253260     9A    -11.244965
      10A    -11.244359    11A    -11.229987    12A    -10.582668
      13A    -10.580292    14A    -10.580265    15A     -8.049361
      16A     -8.047329    17A     -8.047317    18A     -8.046999
      19A     -8.046964    20A     -8.044934    21A     -8.044909
      22A     -8.044897    23A     -8.044860    24A     -1.246389
      25A     -1.164648    26A     -1.106961    27A     -1.105030
      28A     -1.058029    29A     -1.037310    30A     -0.951381
      31A     -0.881715    32A     -0.824966    33A     -0.788176
      34A     -0.702517    35A     -0.667293    36A     -0.650267
      37A     -0.627497    38A     -0.617310    39A     -0.599971
      40A     -0.587170    41A     -0.581813    42A     -0.555140
      43A     -0.519789    44A     -0.507859    45A     -0.504324
      46A     -0.495782    47A     -0.488904    48A     -0.463960
      49A     -0.455676    50A     -0.447288    51A     -0.441789
      52A     -0.351131    53A     -0.339104

  @DF-RHF Final Energy: -1685.64912636201097

   => Energetics <=

    Nuclear Repulsion Energy =            901.3425639113447687
    One-Electron Energy =               -4114.5643347423638261
    Two-Electron Energy =                1527.5726444690080825
    Total Energy =                      -1685.6491263620109748
  Basis Set: (AUG-CC-PVTZ AUX)
    Blend: AUG-CC-PVTZ-RI
    Molecular point group: c1

    Geometry (in Angstrom), charge = 0, multiplicity = 1:

       Center              X                  Y                   Z               Mass
    ------------   -----------------  -----------------  -----------------  -----------------
         CL          -1.475053050915     0.935438597899    -1.329005626480    34.968852682000
         CL          -1.716241050915    -1.677864402101    -0.195453626480    34.968852682000
         CL          -1.422938050915     0.570697597899     1.566041373520    34.968852682000
         C            0.629807949085    -0.216816402101    -0.031338626480    12.000000000000
         C            1.445615949085     0.942067597899    -0.000615626480    12.000000000000
         C            1.232236949085    -1.482809402101    -0.024825626480    12.000000000000
         C            2.835359949085     0.761173597899    -0.001166626480    12.000000000000
         C           -0.885953050915    -0.108096402101    -0.003096626480    12.000000000000
         C            0.950014949085     2.369690597899    -0.014192626480    12.000000000000
         C            2.617764949085    -1.627226402101    -0.025303626480    12.000000000000
         C            3.430076949085    -0.498104402101    -0.011568626480    12.000000000000
         H            0.620106949085    -2.375160402101    -0.031007626480     1.007825032230
         H            3.466813949085     1.647191597899     0.018785373520     1.007825032230
         H            0.741525949085     2.704033597899    -1.034167626480     1.007825032230
         H            0.045130949085     2.514843597899     0.573700373520     1.007825032230
         H            1.726098949085     3.019206597899     0.399560373520     1.007825032230
         H            3.051517949085    -2.623789402101    -0.025462626480     1.007825032230
         H            4.533121849085    -0.593325502101    -0.009346526480     1.007825032230

  Basis Set: AUG-CC-PVTZ
    Blend: AUG-CC-PVTZ
  Basis Set: (AUG-CC-PVTZ AUX)
    Blend: AUG-CC-PVTZ-JKFIT
	 Reference Energy          =   -1685.6491263620109748 [Eh]
	 Singles Energy            =      -0.0000000000000000 [Eh]
	 Same-Spin Energy          =      -0.5435861908878398 [Eh]
	 Opposite-Spin Energy      =      -1.6251305663312734 [Eh]
	 Correlation Energy        =      -2.1687167572191131 [Eh]
	 Total Energy              =   -1687.8178431192300195 [Eh]

	 ================> DF-SCS-MP2 Energies <==================
	-----------------------------------------------------------
	 SCS Same-Spin Scale       =       0.3333333333333333 [-]
	 SCS Opposite-Spin Scale   =       1.2000000000000000 [-]
	 SCS Same-Spin Energy      =      -0.1811953969626132 [Eh]
	 SCS Opposite-Spin Energy  =      -1.9501566795975280 [Eh]
	 SCS Correlation Energy    =      -2.1313520765601415 [Eh]
	 SCS Total Energy          =   -1687.7804784385712082 [Eh]
	-----------------------------------------------------------

  Dipole Moment: [D]
     X:     2.1244      Y:     0.2327      Z:    -0.0541     Total:     2.1378

*** Psi4 exiting successfully. Buy a developer a beer!
