                               Psi4 1.4a3.dev225

  ==> Input File <==

--------------------------------------------------------------------------
#psi4
#
memory 32 gb

molecule  {
0 1
 Cl       -1.5623360     0.9145460    -1.3283100
 Cl       -1.8035240    -1.6987570    -0.1947580
 Cl       -1.5102210     0.5498050     1.5667370
  C        0.5425250    -0.2377090    -0.0306430
  C        1.4734327     1.0846781     0.0044146
  C        1.1449540    -1.5037020    -0.0241300
  C        2.7480770     0.7402810    -0.0004710
  C       -0.9732360    -0.1289890    -0.0024010
  C        0.8627320     2.3487980    -0.0134970
  C        2.5304820    -1.6481190    -0.0246080
  C        3.3427940    -0.5189970    -0.0108730
  H        0.5328240    -2.3960530    -0.0303120
  H        3.3795310     1.6262990     0.0194810
  H        0.6542430     2.6831410    -1.0334720
  H       -0.0421520     2.4939510     0.5743960
  H        1.6388160     2.9983140     0.4002560
  H        2.9642350    -2.6446820    -0.0247670
  H        4.4259130    -0.6124980    -0.0086910
units angstrom
no_reorient  #important for SAPT in psi4, default
symmetry c1  #important for SAPT in psi4, default
}

set PROPERTIES_ORIGIN ["COM"]
properties('MP2/aug-cc-pvtz', properties = ['dipole'])
--------------------------------------------------------------------------

    Molecular point group: c1
  Charge       = 0
  Multiplicity = 1
  Basis Set: AUG-CC-PVTZ
    Blend: AUG-CC-PVTZ
  Basis Set: (AUG-CC-PVTZ AUX)
    Blend: AUG-CC-PVTZ-JKFIT

    Orbital Energies [Eh]
    ---------------------

    Doubly Occupied:

       1A   -104.856365     2A   -104.855018     3A   -104.855009
       4A    -11.441481     5A    -11.283852     6A    -11.272462
       7A    -11.253472     8A    -11.253375     9A    -11.246257
      10A    -11.235511    11A    -11.227015    12A    -10.580964
      13A    -10.579725    14A    -10.579586    15A     -8.047659
      16A     -8.046431    17A     -8.046283    18A     -8.045626
      19A     -8.045612    20A     -8.044374    21A     -8.044338
      22A     -8.044233    23A     -8.044184    24A     -1.242745
      25A     -1.162794    26A     -1.106413    27A     -1.104195
      28A     -1.077633    29A     -1.031157    30A     -0.962723
      31A     -0.888615    32A     -0.806344    33A     -0.786228
      34A     -0.702970    35A     -0.666929    36A     -0.657712
      37A     -0.625188    38A     -0.611061    39A     -0.606071
      40A     -0.601446    41A     -0.594043    42A     -0.552958
      43A     -0.541290    44A     -0.503670    45A     -0.495326
      46A     -0.489682    47A     -0.473574    48A     -0.458250
      49A     -0.455257    50A     -0.443743    51A     -0.440936
      52A     -0.361786    53A     -0.324839

  @DF-RHF Final Energy: -1685.60822101007579

   => Energetics <=

    Nuclear Repulsion Energy =            898.8501693290638741
    One-Electron Energy =               -4109.5079666866440675
    Two-Electron Energy =                1525.0495763475046260
    Total Energy =                      -1685.6082210100757948
  Basis Set: (AUG-CC-PVTZ AUX)
    Blend: AUG-CC-PVTZ-RI
    Molecular point group: c1

    Geometry (in Angstrom), charge = 0, multiplicity = 1:

       Center              X                  Y                   Z               Mass
    ------------   -----------------  -----------------  -----------------  -----------------
         CL          -1.481598087715     0.925995636897    -1.329255551721    34.968852682000
         CL          -1.722786087715    -1.687307363103    -0.195703551721    34.968852682000
         CL          -1.429483087715     0.561254636897     1.565791448279    34.968852682000
         C            0.623262912285    -0.226259363103    -0.031588551721    12.000000000000
         C            1.554170612285     1.096127736897     0.003469048279    12.000000000000
         C            1.225691912285    -1.492252363103    -0.025075551721    12.000000000000
         C            2.828814912285     0.751730636897    -0.001416551721    12.000000000000
         C           -0.892498087715    -0.117539363103    -0.003346551721    12.000000000000
         C            0.943469912285     2.360247636897    -0.014442551721    12.000000000000
         C            2.611219912285    -1.636669363103    -0.025553551721    12.000000000000
         C            3.423531912285    -0.507547363103    -0.011818551721    12.000000000000
         H            0.613561912285    -2.384603363103    -0.031257551721     1.007825032230
         H            3.460268912285     1.637748636897     0.018535448279     1.007825032230
         H            0.734980912285     2.694590636897    -1.034417551721     1.007825032230
         H            0.038585912285     2.505400636897     0.573450448279     1.007825032230
         H            1.719553912285     3.009763636897     0.399310448279     1.007825032230
         H            3.044972912285    -2.633232363103    -0.025712551721     1.007825032230
         H            4.506650912285    -0.601048363103    -0.009636551721     1.007825032230

  Basis Set: AUG-CC-PVTZ
    Blend: AUG-CC-PVTZ
  Basis Set: (AUG-CC-PVTZ AUX)
    Blend: AUG-CC-PVTZ-JKFIT
	 Reference Energy          =   -1685.6082210100757948 [Eh]
	 Singles Energy            =      -0.0000000000000000 [Eh]
	 Same-Spin Energy          =      -0.5445145342748270 [Eh]
	 Opposite-Spin Energy      =      -1.6283238432539517 [Eh]
	 Correlation Energy        =      -2.1728383775287785 [Eh]
	 Total Energy              =   -1687.7810593876045004 [Eh]

	 ================> DF-SCS-MP2 Energies <==================
	-----------------------------------------------------------
	 SCS Same-Spin Scale       =       0.3333333333333333 [-]
	 SCS Opposite-Spin Scale   =       1.2000000000000000 [-]
	 SCS Same-Spin Energy      =      -0.1815048447582757 [Eh]
	 SCS Opposite-Spin Energy  =      -1.9539886119047420 [Eh]
	 SCS Correlation Energy    =      -2.1354934566630175 [Eh]
	 SCS Total Energy          =   -1687.7437144667387656 [Eh]
	-----------------------------------------------------------

  Dipole Moment: [D]
     X:     2.1171      Y:     0.3626      Z:    -0.0593     Total:     2.1488

*** Psi4 exiting successfully. Buy a developer a beer!
