                               Psi4 1.4a3.dev225

  ==> Input File <==

--------------------------------------------------------------------------
#psi4
#
memory 32 gb

molecule  {
0 1
 Cl       -1.5623360     0.9145460    -1.3283100
 Cl       -1.8035240    -1.6987570    -0.1947580
 Cl       -1.5102210     0.5498050     1.5667370
  C        0.5425250    -0.2377090    -0.0306430
  C        1.3583330     0.9211750     0.0000800
  C        1.1664381    -1.5488504    -0.0238977
  C        2.7480770     0.7402810    -0.0004710
  C       -0.9732360    -0.1289890    -0.0024010
  C        0.8627320     2.3487980    -0.0134970
  C        2.5304820    -1.6481190    -0.0246080
  C        3.3427940    -0.5189970    -0.0108730
  H        0.5328240    -2.3960530    -0.0303120
  H        3.3795310     1.6262990     0.0194810
  H        0.6542430     2.6831410    -1.0334720
  H       -0.0421520     2.4939510     0.5743960
  H        1.6388160     2.9983140     0.4002560
  H        2.9642350    -2.6446820    -0.0247670
  H        4.4259130    -0.6124980    -0.0086910
units angstrom
no_reorient  #important for SAPT in psi4, default
symmetry c1  #important for SAPT in psi4, default
}

set PROPERTIES_ORIGIN ["COM"]
properties('MP2/aug-cc-pvtz', properties = ['dipole'])
--------------------------------------------------------------------------

    Molecular point group: c1
  Charge       = 0
  Multiplicity = 1
  Basis Set: AUG-CC-PVTZ
    Blend: AUG-CC-PVTZ
  Basis Set: (AUG-CC-PVTZ AUX)
    Blend: AUG-CC-PVTZ-JKFIT

    Orbital Energies [Eh]
    ---------------------

    Doubly Occupied:

       1A   -104.858255     2A   -104.855355     3A   -104.855286
       4A    -11.442371     5A    -11.277602     6A    -11.267766
       7A    -11.253522     8A    -11.251926     9A    -11.245165
      10A    -11.242516    11A    -11.230204    12A    -10.582844
      13A    -10.579990    14A    -10.579921    15A     -8.049539
      16A     -8.047507    17A     -8.047495    18A     -8.046696
      19A     -8.046619    20A     -8.044630    21A     -8.044593
      22A     -8.044562    23A     -8.044513    24A     -1.245355
      25A     -1.163118    26A     -1.106926    27A     -1.104716
      28A     -1.060979    29A     -1.032582    30A     -0.953417
      31A     -0.883358    32A     -0.824814    33A     -0.786996
      34A     -0.703534    35A     -0.665881    36A     -0.656136
      37A     -0.626786    38A     -0.616266    39A     -0.599763
      40A     -0.587149    41A     -0.583814    42A     -0.555304
      43A     -0.524691    44A     -0.506571    45A     -0.502198
      46A     -0.495364    47A     -0.489197    48A     -0.462676
      49A     -0.455472    50A     -0.447829    51A     -0.441710
      52A     -0.346666    53A     -0.341991

  @DF-RHF Final Energy: -1685.64652882829228

   => Energetics <=

    Nuclear Repulsion Energy =            900.5025990038451482
    One-Electron Energy =               -4112.8779924479504189
    Two-Electron Energy =                1526.7288646158128813
    Total Energy =                      -1685.6465288282922756
  Basis Set: (AUG-CC-PVTZ AUX)
    Blend: AUG-CC-PVTZ-RI
    Molecular point group: c1

    Geometry (in Angstrom), charge = 0, multiplicity = 1:

       Center              X                  Y                   Z               Mass
    ------------   -----------------  -----------------  -----------------  -----------------
         CL          -1.476196183513     0.938035461612    -1.329018836562    34.968852682000
         CL          -1.717384183513    -1.675267538388    -0.195466836562    34.968852682000
         CL          -1.424081183513     0.573294461612     1.566028163438    34.968852682000
         C            0.628664816487    -0.214219538388    -0.031351836562    12.000000000000
         C            1.444472816487     0.944664461612    -0.000628836562    12.000000000000
         C            1.252577916487    -1.525360938388    -0.024606536562    12.000000000000
         C            2.834216816487     0.763770461612    -0.001179836562    12.000000000000
         C           -0.887096183513    -0.105499538388    -0.003109836562    12.000000000000
         C            0.948871816487     2.372287461612    -0.014205836562    12.000000000000
         C            2.616621816487    -1.624629538388    -0.025316836562    12.000000000000
         C            3.428933816487    -0.495507538388    -0.011581836562    12.000000000000
         H            0.618963816487    -2.372563538388    -0.031020836562     1.007825032230
         H            3.465670816487     1.649788461612     0.018772163438     1.007825032230
         H            0.740382816487     2.706630461612    -1.034180836562     1.007825032230
         H            0.043987816487     2.517440461612     0.573687163438     1.007825032230
         H            1.724955816487     3.021803461612     0.399547163438     1.007825032230
         H            3.050374816487    -2.621192538388    -0.025475836562     1.007825032230
         H            4.512052816487    -0.589008538388    -0.009399836562     1.007825032230

  Basis Set: AUG-CC-PVTZ
    Blend: AUG-CC-PVTZ
  Basis Set: (AUG-CC-PVTZ AUX)
    Blend: AUG-CC-PVTZ-JKFIT
	 Reference Energy          =   -1685.6465288282922756 [Eh]
	 Singles Energy            =      -0.0000000000000000 [Eh]
	 Same-Spin Energy          =      -0.5435620058722979 [Eh]
	 Opposite-Spin Energy      =      -1.6251741134108060 [Eh]
	 Correlation Energy        =      -2.1687361192831038 [Eh]
	 Total Energy              =   -1687.8152649475753151 [Eh]

	 ================> DF-SCS-MP2 Energies <==================
	-----------------------------------------------------------
	 SCS Same-Spin Scale       =       0.3333333333333333 [-]
	 SCS Opposite-Spin Scale   =       1.2000000000000000 [-]
	 SCS Same-Spin Energy      =      -0.1811873352907659 [Eh]
	 SCS Opposite-Spin Energy  =      -1.9502089360929671 [Eh]
	 SCS Correlation Energy    =      -2.1313962713837329 [Eh]
	 SCS Total Energy          =   -1687.7779250996759401 [Eh]
	-----------------------------------------------------------

  Dipole Moment: [D]
     X:     2.1372      Y:     0.2496      Z:    -0.0548     Total:     2.1524

*** Psi4 exiting successfully. Buy a developer a beer!
