                               Psi4 1.4a3.dev225

  ==> Input File <==

--------------------------------------------------------------------------
#psi4
#
memory 32 gb

molecule  {
0 1
 Cl       -1.5623360     0.9145460    -1.3283100
 Cl       -1.8035240    -1.6987570    -0.1947580
 Cl       -1.5102210     0.5498050     1.5667370
  C        0.5425250    -0.2377090    -0.0306430
  C        1.3784303     0.9067518     0.0005093
  C        1.1449540    -1.5037020    -0.0241300
  C        2.7480770     0.7402810    -0.0004710
  C       -0.9732360    -0.1289890    -0.0024010
  C        0.8627320     2.3487980    -0.0134970
  C        2.5304820    -1.6481190    -0.0246080
  C        3.3427940    -0.5189970    -0.0108730
  H        0.5328240    -2.3960530    -0.0303120
  H        3.3795310     1.6262990     0.0194810
  H        0.6542430     2.6831410    -1.0334720
  H       -0.0421520     2.4939510     0.5743960
  H        1.6388160     2.9983140     0.4002560
  H        2.9642350    -2.6446820    -0.0247670
  H        4.4259130    -0.6124980    -0.0086910
units angstrom
no_reorient  #important for SAPT in psi4, default
symmetry c1  #important for SAPT in psi4, default
}

set PROPERTIES_ORIGIN ["COM"]
properties('MP2/aug-cc-pvtz', properties = ['dipole'])
--------------------------------------------------------------------------

    Molecular point group: c1
  Charge       = 0
  Multiplicity = 1
  Basis Set: AUG-CC-PVTZ
    Blend: AUG-CC-PVTZ
  Basis Set: (AUG-CC-PVTZ AUX)
    Blend: AUG-CC-PVTZ-JKFIT

    Orbital Energies [Eh]
    ---------------------

    Doubly Occupied:

       1A   -104.858414     2A   -104.855740     3A   -104.855559
       4A    -11.442986     5A    -11.273777     6A    -11.265525
       7A    -11.253269     8A    -11.251471     9A    -11.244622
      10A    -11.241844    11A    -11.230025    12A    -10.582986
      13A    -10.580292    14A    -10.580250    15A     -8.049679
      16A     -8.047645    17A     -8.047632    18A     -8.046991
      19A     -8.046958    20A     -8.044933    21A     -8.044890
      22A     -8.044884    23A     -8.044853    24A     -1.246383
      25A     -1.166507    26A     -1.106952    27A     -1.105017
      28A     -1.056189    29A     -1.038686    30A     -0.949590
      31A     -0.883917    32A     -0.824447    33A     -0.790519
      34A     -0.703450    35A     -0.667233    36A     -0.651847
      37A     -0.627541    38A     -0.618625    39A     -0.599974
      40A     -0.585506    41A     -0.581010    42A     -0.553498
      43A     -0.523264    44A     -0.507938    45A     -0.500527
      46A     -0.496162    47A     -0.489081    48A     -0.464526
      49A     -0.455716    50A     -0.447403    51A     -0.441821
      52A     -0.351462    53A     -0.340987

  @DF-RHF Final Energy: -1685.64969426199605

   => Energetics <=

    Nuclear Repulsion Energy =            901.4280609469133196
    One-Electron Energy =               -4114.7335103882987823
    Two-Electron Energy =                1527.6557551793894163
    Total Energy =                      -1685.6496942619960464
  Basis Set: (AUG-CC-PVTZ AUX)
    Blend: AUG-CC-PVTZ-RI
    Molecular point group: c1

    Geometry (in Angstrom), charge = 0, multiplicity = 1:

       Center              X                  Y                   Z               Mass
    ------------   -----------------  -----------------  -----------------  -----------------
         CL          -1.476116160945     0.936262524335    -1.329030204060    34.968852682000
         CL          -1.717304160945    -1.677040475665    -0.195478204060    34.968852682000
         CL          -1.424001160945     0.571521524335     1.566016795940    34.968852682000
         C            0.628744839055    -0.215992475665    -0.031363204060    12.000000000000
         C            1.464650139055     0.928468324335    -0.000210904060    12.000000000000
         C            1.231173839055    -1.481985475665    -0.024850204060    12.000000000000
         C            2.834296839055     0.761997524335    -0.001191204060    12.000000000000
         C           -0.887016160945    -0.107272475665    -0.003121204060    12.000000000000
         C            0.948951839055     2.370514524335    -0.014217204060    12.000000000000
         C            2.616701839055    -1.626402475665    -0.025328204060    12.000000000000
         C            3.429013839055    -0.497280475665    -0.011593204060    12.000000000000
         H            0.619043839055    -2.374336475665    -0.031032204060     1.007825032230
         H            3.465750839055     1.648015524335     0.018760795940     1.007825032230
         H            0.740462839055     2.704857524335    -1.034192204060     1.007825032230
         H            0.044067839055     2.515667524335     0.573675795940     1.007825032230
         H            1.725035839055     3.020030524335     0.399535795940     1.007825032230
         H            3.050454839055    -2.622965475665    -0.025487204060     1.007825032230
         H            4.512132839055    -0.590781475665    -0.009411204060     1.007825032230

  Basis Set: AUG-CC-PVTZ
    Blend: AUG-CC-PVTZ
  Basis Set: (AUG-CC-PVTZ AUX)
    Blend: AUG-CC-PVTZ-JKFIT
	 Reference Energy          =   -1685.6496942619960464 [Eh]
	 Singles Energy            =      -0.0000000000000000 [Eh]
	 Same-Spin Energy          =      -0.5432876628009039 [Eh]
	 Opposite-Spin Energy      =      -1.6246680504777762 [Eh]
	 Correlation Energy        =      -2.1679557132786802 [Eh]
	 Total Energy              =   -1687.8176499752746622 [Eh]

	 ================> DF-SCS-MP2 Energies <==================
	-----------------------------------------------------------
	 SCS Same-Spin Scale       =       0.3333333333333333 [-]
	 SCS Opposite-Spin Scale   =       1.2000000000000000 [-]
	 SCS Same-Spin Energy      =      -0.1810958876003013 [Eh]
	 SCS Opposite-Spin Energy  =      -1.9496016605733313 [Eh]
	 SCS Correlation Energy    =      -2.1306975481736328 [Eh]
	 SCS Total Energy          =   -1687.7803918101697036 [Eh]
	-----------------------------------------------------------

  Dipole Moment: [D]
     X:     2.1292      Y:     0.1976      Z:    -0.0523     Total:     2.1390

*** Psi4 exiting successfully. Buy a developer a beer!
