                               Psi4 1.4a3.dev225

  ==> Input File <==

--------------------------------------------------------------------------
#psi4
#
memory 32 gb

molecule  {
0 1
 Cl       -1.5623360     0.9145460    -1.3283100
 Cl       -1.8035240    -1.6987570    -0.1947580
 Cl       -1.5102210     0.5498050     1.5667370
  C        0.5425250    -0.2377090    -0.0306430
  C        1.3583330     0.9211750     0.0000800
  C        1.1449540    -1.5037020    -0.0241300
  C        2.7480770     0.7402810    -0.0004710
  C       -0.9931813    -0.1275584    -0.0020294
  C        0.8627320     2.3487980    -0.0134970
  C        2.5304820    -1.6481190    -0.0246080
  C        3.3427940    -0.5189970    -0.0108730
  H        0.5328240    -2.3960530    -0.0303120
  H        3.3795310     1.6262990     0.0194810
  H        0.6542430     2.6831410    -1.0334720
  H       -0.0421520     2.4939510     0.5743960
  H        1.6388160     2.9983140     0.4002560
  H        2.9642350    -2.6446820    -0.0247670
  H        4.4259130    -0.6124980    -0.0086910
units angstrom
no_reorient  #important for SAPT in psi4, default
symmetry c1  #important for SAPT in psi4, default
}

set PROPERTIES_ORIGIN ["COM"]
properties('MP2/aug-cc-pvtz', properties = ['dipole'])
--------------------------------------------------------------------------

    Molecular point group: c1
  Charge       = 0
  Multiplicity = 1
  Basis Set: AUG-CC-PVTZ
    Blend: AUG-CC-PVTZ
  Basis Set: (AUG-CC-PVTZ AUX)
    Blend: AUG-CC-PVTZ-JKFIT

    Orbital Energies [Eh]
    ---------------------

    Doubly Occupied:

       1A   -104.858545     2A   -104.856253     3A   -104.856117
       4A    -11.441967     5A    -11.274856     6A    -11.266563
       7A    -11.252246     8A    -11.250375     9A    -11.244293
      10A    -11.243667    11A    -11.229589    12A    -10.583257
      13A    -10.580914    14A    -10.580897    15A     -8.049965
      16A     -8.047917    17A     -8.047906    18A     -8.047635
      19A     -8.047611    20A     -8.045556    21A     -8.045543
      22A     -8.045516    23A     -8.045491    24A     -1.247455
      25A     -1.164213    26A     -1.108648    27A     -1.106790
      28A     -1.057469    29A     -1.035617    30A     -0.950116
      31A     -0.879595    32A     -0.823985    33A     -0.789202
      34A     -0.702721    35A     -0.666399    36A     -0.651048
      37A     -0.628624    38A     -0.617235    39A     -0.602048
      40A     -0.587294    41A     -0.581381    42A     -0.554736
      43A     -0.520965    44A     -0.507718    45A     -0.503620
      46A     -0.496075    47A     -0.489428    48A     -0.461283
      49A     -0.457092    50A     -0.448255    51A     -0.442520
      52A     -0.350357    53A     -0.338428

  @DF-RHF Final Energy: -1685.64956988587255

   => Energetics <=

    Nuclear Repulsion Energy =            901.4442043202632249
    One-Electron Energy =               -4114.7615575988393175
    Two-Electron Energy =                1527.6677833927033134
    Total Energy =                      -1685.6495698858725518
  Basis Set: (AUG-CC-PVTZ AUX)
    Blend: AUG-CC-PVTZ-RI
    Molecular point group: c1

    Geometry (in Angstrom), charge = 0, multiplicity = 1:

       Center              X                  Y                   Z               Mass
    ------------   -----------------  -----------------  -----------------  -----------------
         CL          -1.473805581413     0.935347711965    -1.329026874595    34.968852682000
         CL          -1.714993581413    -1.677955288035    -0.195474874595    34.968852682000
         CL          -1.421690581413     0.570606711965     1.566020125405    34.968852682000
         C            0.631055418587    -0.216907288035    -0.031359874595    12.000000000000
         C            1.446863418587     0.941976711965    -0.000636874595    12.000000000000
         C            1.233484418587    -1.482900288035    -0.024846874595    12.000000000000
         C            2.836607418587     0.761082711965    -0.001187874595    12.000000000000
         C           -0.904650881413    -0.106756688035    -0.002746274595    12.000000000000
         C            0.951262418587     2.369599711965    -0.014213874595    12.000000000000
         C            2.619012418587    -1.627317288035    -0.025324874595    12.000000000000
         C            3.431324418587    -0.498195288035    -0.011589874595    12.000000000000
         H            0.621354418587    -2.375251288035    -0.031028874595     1.007825032230
         H            3.468061418587     1.647100711965     0.018764125405     1.007825032230
         H            0.742773418587     2.703942711965    -1.034188874595     1.007825032230
         H            0.046378418587     2.514752711965     0.573679125405     1.007825032230
         H            1.727346418587     3.019115711965     0.399539125405     1.007825032230
         H            3.052765418587    -2.623880288035    -0.025483874595     1.007825032230
         H            4.514443418587    -0.591696288035    -0.009407874595     1.007825032230

  Basis Set: AUG-CC-PVTZ
    Blend: AUG-CC-PVTZ
  Basis Set: (AUG-CC-PVTZ AUX)
    Blend: AUG-CC-PVTZ-JKFIT
	 Reference Energy          =   -1685.6495698858725518 [Eh]
	 Singles Energy            =      -0.0000000000000000 [Eh]
	 Same-Spin Energy          =      -0.5434988690820568 [Eh]
	 Opposite-Spin Energy      =      -1.6248035407999357 [Eh]
	 Correlation Energy        =      -2.1683024098819925 [Eh]
	 Total Energy              =   -1687.8178722957545688 [Eh]

	 ================> DF-SCS-MP2 Energies <==================
	-----------------------------------------------------------
	 SCS Same-Spin Scale       =       0.3333333333333333 [-]
	 SCS Opposite-Spin Scale   =       1.2000000000000000 [-]
	 SCS Same-Spin Energy      =      -0.1811662896940189 [Eh]
	 SCS Opposite-Spin Energy  =      -1.9497642489599227 [Eh]
	 SCS Correlation Energy    =      -2.1309305386539417 [Eh]
	 SCS Total Energy          =   -1687.7805004245265081 [Eh]
	-----------------------------------------------------------

  Dipole Moment: [D]
     X:     2.0444      Y:     0.2326      Z:    -0.0530     Total:     2.0583

*** Psi4 exiting successfully. Buy a developer a beer!
