                               Psi4 1.3.2 release

  ==> Input File <==

--------------------------------------------------------------------------
#psi4
#
memory 32 gb

molecule  {
0 1
  O        3.4036770    -0.5312700    -0.1399000
  O        1.8951010     0.2455770     1.3601080
  C       -0.2772440    -0.3351030    -0.4349210
  C       -0.8873890     0.9145300    -0.2106810
  C        1.1586640    -0.4340120    -0.8715550
  C       -1.0136460    -1.5104990    -0.2499190
  C       -2.2266560     0.9408910     0.1955810
  C       -0.1417756     2.2036232    -0.4441027
  C       -2.3465050    -1.4683140     0.1589870
  C       -2.9558630    -0.2342200     0.3827420
  C        2.1430500    -0.1948310     0.2522150
  H        1.3959000     0.2860400    -1.6653130
  H        1.3705120    -1.4228390    -1.2930960
  H       -0.5342380    -2.4720800    -0.4282290
  H       -2.7060670     1.9027110     0.3699220
  H        0.7120030     2.2634110     0.3019610
  H        0.2711870     2.2951320    -1.4130380
  H       -0.7808240     3.0602230    -0.2184200
  H       -2.9035660    -2.3916010     0.2984300
  H       -3.9950070    -0.1842490     0.6994320
  H        3.9774380    -0.3341110     0.6295290
units angstrom
no_reorient  #important for SAPT in psi4, default
symmetry c1  #important for SAPT in psi4, default
}

set PROPERTIES_ORIGIN ["COM"]
properties('MP2/aug-cc-pvtz', properties = ['dipole'])
--------------------------------------------------------------------------

    Molecular point group: c1
  Charge       = 0
  Multiplicity = 1
  Basis Set: AUG-CC-PVTZ
    Blend: AUG-CC-PVTZ
  Basis Set: (AUG-CC-PVTZ AUX)
    Blend: AUG-CC-PVTZ-JKFIT

    Orbital Energies [Eh]
    ---------------------

    Doubly Occupied:

       1A    -20.618755     2A    -20.554641     3A    -11.394511
       4A    -11.258744     5A    -11.244699     6A    -11.243555
       7A    -11.236679     8A    -11.234816     9A    -11.232345
      10A    -11.231083    11A    -11.223015    12A     -1.462712
      13A     -1.360091    14A     -1.160795    15A     -1.070668
      16A     -1.041626    17A     -0.981854    18A     -0.930631
      19A     -0.840793    20A     -0.812221    21A     -0.778226
      22A     -0.708657    23A     -0.688843    24A     -0.678962
      25A     -0.666923    26A     -0.628688    27A     -0.625774
      28A     -0.596534    29A     -0.577367    30A     -0.572074
      31A     -0.562171    32A     -0.549359    33A     -0.538811
      34A     -0.492943    35A     -0.487092    36A     -0.483632
      37A     -0.478884    38A     -0.457482    39A     -0.333508
      40A     -0.323003

  @DF-RHF Final Energy:  -496.56184127602069

   => Energetics <=

    Nuclear Repulsion Energy =            583.3900182996227386
    One-Electron Energy =               -1833.1773886862333711
    Two-Electron Energy =                 753.2255291105900596
    Total Energy =                       -496.5618412760206866
  Basis Set: (AUG-CC-PVTZ AUX)
    Blend: AUG-CC-PVTZ-RI
    Molecular point group: c1

    Geometry (in Angstrom), charge = 0, multiplicity = 1:

       Center              X                  Y                   Z               Mass
    ------------   -----------------  -----------------  -----------------  -----------------
         O            3.383902762709    -0.511554148236    -0.154008140216    15.994914619570
         O            1.875326762709     0.265292851764     1.345999859784    15.994914619570
         C           -0.297018237291    -0.315387148236    -0.449029140216    12.000000000000
         C           -0.907163237291     0.934245851764    -0.224789140216    12.000000000000
         C            1.138889762709    -0.414296148236    -0.885663140216    12.000000000000
         C           -1.033420237291    -1.490783148236    -0.264027140216    12.000000000000
         C           -2.246430237291     0.960606851764     0.181472859784    12.000000000000
         C           -0.161549837291     2.223339051764    -0.458210840216    12.000000000000
         C           -2.366279237291    -1.448598148236     0.144878859784    12.000000000000
         C           -2.975637237291    -0.214504148236     0.368633859784    12.000000000000
         C            2.123275762709    -0.175115148236     0.238106859784    12.000000000000
         H            1.376125762709     0.305755851764    -1.679421140216     1.007825032230
         H            1.350737762709    -1.403123148236    -1.307204140216     1.007825032230
         H           -0.554012237291    -2.452364148236    -0.442337140216     1.007825032230
         H           -2.725841237291     1.922426851764     0.355813859784     1.007825032230
         H            0.692228762709     2.283126851764     0.287852859784     1.007825032230
         H            0.251412762709     2.314847851764    -1.427146140216     1.007825032230
         H           -0.800598237291     3.079938851764    -0.232528140216     1.007825032230
         H           -2.923340237291    -2.371885148236     0.284321859784     1.007825032230
         H           -4.014781237291    -0.164533148236     0.685323859784     1.007825032230
         H            3.957663762709    -0.314395148236     0.615420859784     1.007825032230

  Basis Set: AUG-CC-PVTZ
    Blend: AUG-CC-PVTZ
  Basis Set: (AUG-CC-PVTZ AUX)
    Blend: AUG-CC-PVTZ-JKFIT
	 Reference Energy          =    -496.5618412760206866 [Eh]
	 Singles Energy            =      -0.0000000000000000 [Eh]
	 Same-Spin Energy          =      -0.5237147986711870 [Eh]
	 Opposite-Spin Energy      =      -1.6288136152717336 [Eh]
	 Correlation Energy        =      -2.1525284139429206 [Eh]
	 Total Energy              =    -498.7143696899636325 [Eh]

	 ================> DF-SCS-MP2 Energies <==================
	-----------------------------------------------------------
	 SCS Same-Spin Scale       =       0.3333333333333333 [-]
	 SCS Opposite-Spin Scale   =       1.2000000000000000 [-]
	 SCS Same-Spin Energy      =      -0.1745715995570623 [Eh]
	 SCS Opposite-Spin Energy  =      -1.9545763383260804 [Eh]
	 SCS Correlation Energy    =      -2.1291479378831428 [Eh]
	 SCS Total Energy          =    -498.6909892139038334 [Eh]
	-----------------------------------------------------------

  Dipole Moment: [D]
     X:     0.5428      Y:    -0.1126      Z:    -1.2306     Total:     1.3497

*** Psi4 exiting successfully. Buy a developer a beer!
