                               Psi4 1.3.2 release

  ==> Input File <==

--------------------------------------------------------------------------
#psi4
#
memory 32 gb

molecule  {
0 1
  O        3.4036770    -0.5312700    -0.1399000
  O        1.8951010     0.2455770     1.3601080
  C       -0.2772440    -0.3351030    -0.4349210
  C       -0.8873890     0.9145300    -0.2106810
  C        1.1437879    -0.5271356    -0.8382878
  C       -1.0136460    -1.5104990    -0.2499190
  C       -2.2266560     0.9408910     0.1955810
  C       -0.1273370     2.2020410    -0.3962590
  C       -2.3465050    -1.4683140     0.1589870
  C       -2.9558630    -0.2342200     0.3827420
  C        2.1430500    -0.1948310     0.2522150
  H        1.3959000     0.2860400    -1.6653130
  H        1.3705120    -1.4228390    -1.2930960
  H       -0.5342380    -2.4720800    -0.4282290
  H       -2.7060670     1.9027110     0.3699220
  H        0.7120030     2.2634110     0.3019610
  H        0.2711870     2.2951320    -1.4130380
  H       -0.7808240     3.0602230    -0.2184200
  H       -2.9035660    -2.3916010     0.2984300
  H       -3.9950070    -0.1842490     0.6994320
  H        3.9774380    -0.3341110     0.6295290
units angstrom
no_reorient  #important for SAPT in psi4, default
symmetry c1  #important for SAPT in psi4, default
}

set PROPERTIES_ORIGIN ["COM"]
properties('MP2/aug-cc-pvtz', properties = ['dipole'])
--------------------------------------------------------------------------

    Molecular point group: c1
  Charge       = 0
  Multiplicity = 1
  Basis Set: AUG-CC-PVTZ
    Blend: AUG-CC-PVTZ
  Basis Set: (AUG-CC-PVTZ AUX)
    Blend: AUG-CC-PVTZ-JKFIT

    Orbital Energies [Eh]
    ---------------------

    Doubly Occupied:

       1A    -20.618676     2A    -20.554601     3A    -11.395256
       4A    -11.260853     5A    -11.245792     6A    -11.243903
       7A    -11.235549     8A    -11.234920     9A    -11.232156
      10A    -11.231863    11A    -11.222735    12A     -1.462724
      13A     -1.360189    14A     -1.161839    15A     -1.071901
      16A     -1.042781    17A     -0.981365    18A     -0.930280
      19A     -0.840590    20A     -0.815488    21A     -0.777345
      22A     -0.709814    23A     -0.692357    24A     -0.678922
      25A     -0.662502    26A     -0.631022    27A     -0.626357
      28A     -0.595605    29A     -0.577385    30A     -0.575193
      31A     -0.566547    32A     -0.542295    33A     -0.537631
      34A     -0.491642    35A     -0.489886    36A     -0.482163
      37A     -0.478006    38A     -0.457400    39A     -0.333116
      40A     -0.323393

  @DF-RHF Final Energy:  -496.55434709858719

   => Energetics <=

    Nuclear Repulsion Energy =            583.5666245253702300
    One-Electron Energy =               -1833.4978530331911770
    Two-Electron Energy =                 753.3768814092336470
    Total Energy =                       -496.5543470985871863
  Basis Set: (AUG-CC-PVTZ AUX)
    Blend: AUG-CC-PVTZ-RI
    Molecular point group: c1

    Geometry (in Angstrom), charge = 0, multiplicity = 1:

       Center              X                  Y                   Z               Mass
    ------------   -----------------  -----------------  -----------------  -----------------
         O            3.383937746831    -0.503981121359    -0.160494068488    15.994914619570
         O            1.875361746831     0.272865878641     1.339513931512    15.994914619570
         C           -0.296983253169    -0.307814121359    -0.455515068488    12.000000000000
         C           -0.907128253169     0.941818878641    -0.231275068488    12.000000000000
         C            1.124048646831    -0.499846721359    -0.858881868488    12.000000000000
         C           -1.033385253169    -1.483210121359    -0.270513068488    12.000000000000
         C           -2.246395253169     0.968179878641     0.174986931512    12.000000000000
         C           -0.147076253169     2.229329878641    -0.416853068488    12.000000000000
         C           -2.366244253169    -1.441025121359     0.138392931512    12.000000000000
         C           -2.975602253169    -0.206931121359     0.362147931512    12.000000000000
         C            2.123310746831    -0.167542121359     0.231620931512    12.000000000000
         H            1.376160746831     0.313328878641    -1.685907068488     1.007825032230
         H            1.350772746831    -1.395550121359    -1.313690068488     1.007825032230
         H           -0.553977253169    -2.444791121359    -0.448823068488     1.007825032230
         H           -2.725806253169     1.929999878641     0.349327931512     1.007825032230
         H            0.692263746831     2.290699878641     0.281366931512     1.007825032230
         H            0.251447746831     2.322420878641    -1.433632068488     1.007825032230
         H           -0.800563253169     3.087511878641    -0.239014068488     1.007825032230
         H           -2.923305253169    -2.364312121359     0.277835931512     1.007825032230
         H           -4.014746253169    -0.156960121359     0.678837931512     1.007825032230
         H            3.957698746831    -0.306822121359     0.608934931512     1.007825032230

  Basis Set: AUG-CC-PVTZ
    Blend: AUG-CC-PVTZ
  Basis Set: (AUG-CC-PVTZ AUX)
    Blend: AUG-CC-PVTZ-JKFIT
	 Reference Energy          =    -496.5543470985871863 [Eh]
	 Singles Energy            =      -0.0000000000000000 [Eh]
	 Same-Spin Energy          =      -0.5239751142520903 [Eh]
	 Opposite-Spin Energy      =      -1.6291988497268495 [Eh]
	 Correlation Energy        =      -2.1531739639789400 [Eh]
	 Total Energy              =    -498.7075210625661157 [Eh]

	 ================> DF-SCS-MP2 Energies <==================
	-----------------------------------------------------------
	 SCS Same-Spin Scale       =       0.3333333333333333 [-]
	 SCS Opposite-Spin Scale   =       1.2000000000000000 [-]
	 SCS Same-Spin Energy      =      -0.1746583714173634 [Eh]
	 SCS Opposite-Spin Energy  =      -1.9550386196722194 [Eh]
	 SCS Correlation Energy    =      -2.1296969910895829 [Eh]
	 SCS Total Energy          =    -498.6840440896767745 [Eh]
	-----------------------------------------------------------

  Dipole Moment: [D]
     X:     0.5195      Y:    -0.1689      Z:    -1.1970     Total:     1.3157

*** Psi4 exiting successfully. Buy a developer a beer!
