                               Psi4 1.3.2 release

  ==> Input File <==

--------------------------------------------------------------------------
#psi4
#
memory 32 gb

molecule  {
0 1
  O        3.4036770    -0.5312700    -0.1399000
  O        1.8951010     0.2455770     1.3601080
  C       -0.2772440    -0.3351030    -0.4349210
  C       -0.8873890     0.9145300    -0.2106810
  C        1.1586640    -0.4340120    -0.8715550
  C       -1.0136460    -1.5104990    -0.2499190
  C       -2.2266560     0.9408910     0.1955810
  C       -0.1706527     2.2067875    -0.5397902
  C       -2.3465050    -1.4683140     0.1589870
  C       -2.9558630    -0.2342200     0.3827420
  C        2.1430500    -0.1948310     0.2522150
  H        1.3959000     0.2860400    -1.6653130
  H        1.3705120    -1.4228390    -1.2930960
  H       -0.5342380    -2.4720800    -0.4282290
  H       -2.7060670     1.9027110     0.3699220
  H        0.7120030     2.2634110     0.3019610
  H        0.2711870     2.2951320    -1.4130380
  H       -0.7808240     3.0602230    -0.2184200
  H       -2.9035660    -2.3916010     0.2984300
  H       -3.9950070    -0.1842490     0.6994320
  H        3.9774380    -0.3341110     0.6295290
units angstrom
no_reorient  #important for SAPT in psi4, default
symmetry c1  #important for SAPT in psi4, default
}

set PROPERTIES_ORIGIN ["COM"]
properties('MP2/aug-cc-pvtz', properties = ['dipole'])
--------------------------------------------------------------------------

    Molecular point group: c1
  Charge       = 0
  Multiplicity = 1
  Basis Set: AUG-CC-PVTZ
    Blend: AUG-CC-PVTZ
  Basis Set: (AUG-CC-PVTZ AUX)
    Blend: AUG-CC-PVTZ-JKFIT

    Orbital Energies [Eh]
    ---------------------

    Doubly Occupied:

       1A    -20.618492     2A    -20.554171     3A    -11.394205
       4A    -11.258938     5A    -11.246179     6A    -11.243993
       7A    -11.236863     8A    -11.235075     9A    -11.232373
      10A    -11.231331    11A    -11.225543    12A     -1.462356
      13A     -1.359632    14A     -1.160932    15A     -1.070775
      16A     -1.041687    17A     -0.982032    18A     -0.932850
      19A     -0.840989    20A     -0.812878    21A     -0.779295
      22A     -0.708314    23A     -0.688598    24A     -0.680950
      25A     -0.667231    26A     -0.632571    27A     -0.625827
      28A     -0.600492    29A     -0.585366    30A     -0.574323
      31A     -0.559199    32A     -0.549776    33A     -0.525786
      34A     -0.496375    35A     -0.487243    36A     -0.483428
      37A     -0.470080    38A     -0.455976    39A     -0.333667
      40A     -0.321392

  @DF-RHF Final Energy:  -496.54154785261767

   => Energetics <=

    Nuclear Repulsion Energy =            583.0471813079333288
    One-Electron Energy =               -1832.4430896808135003
    Two-Electron Energy =                 752.8543605202623894
    Total Energy =                       -496.5415478526176685
  Basis Set: (AUG-CC-PVTZ AUX)
    Blend: AUG-CC-PVTZ-RI
    Molecular point group: c1

    Geometry (in Angstrom), charge = 0, multiplicity = 1:

       Center              X                  Y                   Z               Mass
    ------------   -----------------  -----------------  -----------------  -----------------
         O            3.386211882683    -0.511807177395    -0.146356612966    15.994914619570
         O            1.877635882683     0.265039822605     1.353651387034    15.994914619570
         C           -0.294709117317    -0.315640177395    -0.441377612966    12.000000000000
         C           -0.904854117317     0.933992822605    -0.217137612966    12.000000000000
         C            1.141198882683    -0.414549177395    -0.878011612966    12.000000000000
         C           -1.031111117317    -1.491036177395    -0.256375612966    12.000000000000
         C           -2.244121117317     0.960353822605     0.189124387034    12.000000000000
         C           -0.188117817317     2.226250322605    -0.546246812966    12.000000000000
         C           -2.363970117317    -1.448851177395     0.152530387034    12.000000000000
         C           -2.973328117317    -0.214757177395     0.376285387034    12.000000000000
         C            2.125584882683    -0.175368177395     0.245758387034    12.000000000000
         H            1.378434882683     0.305502822605    -1.671769612966     1.007825032230
         H            1.353046882683    -1.403376177395    -1.299552612966     1.007825032230
         H           -0.551703117317    -2.452617177395    -0.434685612966     1.007825032230
         H           -2.723532117317     1.922173822605     0.363465387034     1.007825032230
         H            0.694537882683     2.282873822605     0.295504387034     1.007825032230
         H            0.253721882683     2.314594822605    -1.419494612966     1.007825032230
         H           -0.798289117317     3.079685822605    -0.224876612966     1.007825032230
         H           -2.921031117317    -2.372138177395     0.291973387034     1.007825032230
         H           -4.012472117317    -0.164786177395     0.692975387034     1.007825032230
         H            3.959972882683    -0.314648177395     0.623072387034     1.007825032230

  Basis Set: AUG-CC-PVTZ
    Blend: AUG-CC-PVTZ
  Basis Set: (AUG-CC-PVTZ AUX)
    Blend: AUG-CC-PVTZ-JKFIT
	 Reference Energy          =    -496.5415478526176685 [Eh]
	 Singles Energy            =      -0.0000000000000000 [Eh]
	 Same-Spin Energy          =      -0.5240674844782846 [Eh]
	 Opposite-Spin Energy      =      -1.6298148828390309 [Eh]
	 Correlation Energy        =      -2.1538823673173155 [Eh]
	 Total Energy              =    -498.6954302199349627 [Eh]

	 ================> DF-SCS-MP2 Energies <==================
	-----------------------------------------------------------
	 SCS Same-Spin Scale       =       0.3333333333333333 [-]
	 SCS Opposite-Spin Scale   =       1.2000000000000000 [-]
	 SCS Same-Spin Energy      =      -0.1746891614927615 [Eh]
	 SCS Opposite-Spin Energy  =      -1.9557778594068369 [Eh]
	 SCS Correlation Energy    =      -2.1304670208995984 [Eh]
	 SCS Total Energy          =    -498.6720148735172415 [Eh]
	-----------------------------------------------------------

  Dipole Moment: [D]
     X:     0.5245      Y:    -0.1220      Z:    -1.2586     Total:     1.3690

*** Psi4 exiting successfully. Buy a developer a beer!
