                               Psi4 1.3.2 release

  ==> Input File <==

--------------------------------------------------------------------------
#psi4
#
memory 32 gb

molecule  {
0 1
  O        3.4036770    -0.5312700    -0.1399000
  O        1.8951010     0.2455770     1.3601080
  C       -0.2772440    -0.3351030    -0.4349210
  C       -0.8873890     0.9145300    -0.2106810
  C        1.1289118    -0.6202591    -0.8050207
  C       -1.0136460    -1.5104990    -0.2499190
  C       -2.2266560     0.9408910     0.1955810
  C       -0.1273370     2.2020410    -0.3962590
  C       -2.3465050    -1.4683140     0.1589870
  C       -2.9558630    -0.2342200     0.3827420
  C        2.1430500    -0.1948310     0.2522150
  H        1.3959000     0.2860400    -1.6653130
  H        1.3705120    -1.4228390    -1.2930960
  H       -0.5342380    -2.4720800    -0.4282290
  H       -2.7060670     1.9027110     0.3699220
  H        0.7120030     2.2634110     0.3019610
  H        0.2711870     2.2951320    -1.4130380
  H       -0.7808240     3.0602230    -0.2184200
  H       -2.9035660    -2.3916010     0.2984300
  H       -3.9950070    -0.1842490     0.6994320
  H        3.9774380    -0.3341110     0.6295290
units angstrom
no_reorient  #important for SAPT in psi4, default
symmetry c1  #important for SAPT in psi4, default
}

set PROPERTIES_ORIGIN ["COM"]
properties('MP2/aug-cc-pvtz', properties = ['dipole'])
--------------------------------------------------------------------------

    Molecular point group: c1
  Charge       = 0
  Multiplicity = 1
  Basis Set: AUG-CC-PVTZ
    Blend: AUG-CC-PVTZ
  Basis Set: (AUG-CC-PVTZ AUX)
    Blend: AUG-CC-PVTZ-JKFIT

    Orbital Energies [Eh]
    ---------------------

    Doubly Occupied:

       1A    -20.618330     2A    -20.554513     3A    -11.397072
       4A    -11.265423     5A    -11.247778     6A    -11.245414
       7A    -11.235325     8A    -11.234784     9A    -11.233016
      10A    -11.231964    11A    -11.222696    12A     -1.462499
      13A     -1.360142    14A     -1.163152    15A     -1.073495
      16A     -1.043958    17A     -0.981295    18A     -0.930429
      19A     -0.840426    20A     -0.819396    21A     -0.779101
      22A     -0.712671    23A     -0.697441    24A     -0.681650
      25A     -0.656777    26A     -0.637079    27A     -0.625897
      28A     -0.597283    29A     -0.581204    30A     -0.576538
      31A     -0.566247    32A     -0.540837    33A     -0.526799
      34A     -0.494413    35A     -0.490000    36A     -0.482610
      37A     -0.469299    38A     -0.455037    39A     -0.332758
      40A     -0.323340

  @DF-RHF Final Energy:  -496.52581597322546

   => Energetics <=

    Nuclear Repulsion Energy =            583.4818980704911837
    One-Electron Energy =               -1833.2392558407671004
    Two-Electron Energy =                 753.2315417970505678
    Total Energy =                       -496.5258159732254626
  Basis Set: (AUG-CC-PVTZ AUX)
    Blend: AUG-CC-PVTZ-RI
    Molecular point group: c1

    Geometry (in Angstrom), charge = 0, multiplicity = 1:

       Center              X                  Y                   Z               Mass
    ------------   -----------------  -----------------  -----------------  -----------------
         O            3.385127294939    -0.496534621055    -0.163154229137    15.994914619570
         O            1.876551294939     0.280312378945     1.336853770863    15.994914619570
         C           -0.295793705061    -0.300367621055    -0.458175229137    12.000000000000
         C           -0.905938705061     0.949265378945    -0.233935229137    12.000000000000
         C            1.110362094939    -0.585523721055    -0.828274929137    12.000000000000
         C           -1.032195705061    -1.475763621055    -0.273173229137    12.000000000000
         C           -2.245205705061     0.975626378945     0.172326770863    12.000000000000
         C           -0.145886705061     2.236776378945    -0.419513229137    12.000000000000
         C           -2.365054705061    -1.433578621055     0.135732770863    12.000000000000
         C           -2.974412705061    -0.199484621055     0.359487770863    12.000000000000
         C            2.124500294939    -0.160095621055     0.228960770863    12.000000000000
         H            1.377350294939     0.320775378945    -1.688567229137     1.007825032230
         H            1.351962294939    -1.388103621055    -1.316350229137     1.007825032230
         H           -0.552787705061    -2.437344621055    -0.451483229137     1.007825032230
         H           -2.724616705061     1.937446378945     0.346667770863     1.007825032230
         H            0.693453294939     2.298146378945     0.278706770863     1.007825032230
         H            0.252637294939     2.329867378945    -1.436292229137     1.007825032230
         H           -0.799373705061     3.094958378945    -0.241674229137     1.007825032230
         H           -2.922115705061    -2.356865621055     0.275175770863     1.007825032230
         H           -4.013556705061    -0.149513621055     0.676177770863     1.007825032230
         H            3.958888294939    -0.299375621055     0.606274770863     1.007825032230

  Basis Set: AUG-CC-PVTZ
    Blend: AUG-CC-PVTZ
  Basis Set: (AUG-CC-PVTZ AUX)
    Blend: AUG-CC-PVTZ-JKFIT
	 Reference Energy          =    -496.5258159732254626 [Eh]
	 Singles Energy            =      -0.0000000000000000 [Eh]
	 Same-Spin Energy          =      -0.5246955137498386 [Eh]
	 Opposite-Spin Energy      =      -1.6308800134568888 [Eh]
	 Correlation Energy        =      -2.1555755272067274 [Eh]
	 Total Energy              =    -498.6813915004321984 [Eh]

	 ================> DF-SCS-MP2 Energies <==================
	-----------------------------------------------------------
	 SCS Same-Spin Scale       =       0.3333333333333333 [-]
	 SCS Opposite-Spin Scale   =       1.2000000000000000 [-]
	 SCS Same-Spin Energy      =      -0.1748985045832795 [Eh]
	 SCS Opposite-Spin Energy  =      -1.9570560161482664 [Eh]
	 SCS Correlation Energy    =      -2.1319545207315458 [Eh]
	 SCS Total Energy          =    -498.6577704939570026 [Eh]
	-----------------------------------------------------------

  Dipole Moment: [D]
     X:     0.4708      Y:    -0.2188      Z:    -1.1640     Total:     1.2745

*** Psi4 exiting successfully. Buy a developer a beer!
