                               Psi4 1.3.2 release

  ==> Input File <==

--------------------------------------------------------------------------
#psi4
#
memory 32 gb

molecule  {
0 1
  O        3.4036770    -0.5312700    -0.1399000
  O        1.8951010     0.2455770     1.3601080
  C       -0.2772440    -0.3351030    -0.4349210
  C       -0.8873890     0.9145300    -0.2106810
  C        1.1586640    -0.4340120    -0.8715550
  C       -1.0136460    -1.5104990    -0.2499190
  C       -2.2266560     0.9408910     0.1955810
  C       -0.1995299     2.2099518    -0.6354777
  C       -2.3465050    -1.4683140     0.1589870
  C       -2.9558630    -0.2342200     0.3827420
  C        2.1430500    -0.1948310     0.2522150
  H        1.3959000     0.2860400    -1.6653130
  H        1.3705120    -1.4228390    -1.2930960
  H       -0.5342380    -2.4720800    -0.4282290
  H       -2.7060670     1.9027110     0.3699220
  H        0.7120030     2.2634110     0.3019610
  H        0.2711870     2.2951320    -1.4130380
  H       -0.7808240     3.0602230    -0.2184200
  H       -2.9035660    -2.3916010     0.2984300
  H       -3.9950070    -0.1842490     0.6994320
  H        3.9774380    -0.3341110     0.6295290
units angstrom
no_reorient  #important for SAPT in psi4, default
symmetry c1  #important for SAPT in psi4, default
}

set PROPERTIES_ORIGIN ["COM"]
properties('MP2/aug-cc-pvtz', properties = ['dipole'])
--------------------------------------------------------------------------

    Molecular point group: c1
  Charge       = 0
  Multiplicity = 1
  Basis Set: AUG-CC-PVTZ
    Blend: AUG-CC-PVTZ
  Basis Set: (AUG-CC-PVTZ AUX)
    Blend: AUG-CC-PVTZ-JKFIT

    Orbital Energies [Eh]
    ---------------------

    Doubly Occupied:

       1A    -20.618228     2A    -20.553743     3A    -11.393934
       4A    -11.259121     5A    -11.249498     6A    -11.244365
       7A    -11.237264     8A    -11.235641     9A    -11.232632
      10A    -11.231984    11A    -11.230942    12A     -1.462013
      13A     -1.359209    14A     -1.161259    15A     -1.071028
      16A     -1.041891    17A     -0.982506    18A     -0.937400
      19A     -0.841461    20A     -0.814279    21A     -0.781369
      22A     -0.708093    23A     -0.689908    24A     -0.684045
      25A     -0.667554    26A     -0.639615    27A     -0.625663
      28A     -0.607312    29A     -0.588997    30A     -0.574534
      31A     -0.557680    32A     -0.548798    33A     -0.514506
      34A     -0.499207    35A     -0.487116    36A     -0.482647
      37A     -0.462127    38A     -0.450030    39A     -0.334054
      40A     -0.318712

  @DF-RHF Final Energy:  -496.50104195834331

   => Energetics <=

    Nuclear Repulsion Energy =            582.6246263806116303
    One-Electron Energy =               -1831.4906069551202563
    Two-Electron Energy =                 752.3649386161654320
    Total Energy =                       -496.5010419583433077
  Basis Set: (AUG-CC-PVTZ AUX)
    Blend: AUG-CC-PVTZ-RI
    Molecular point group: c1

    Geometry (in Angstrom), charge = 0, multiplicity = 1:

       Center              X                  Y                   Z               Mass
    ------------   -----------------  -----------------  -----------------  -----------------
         O            3.388521010654    -0.512060206555    -0.138705085717    15.994914619570
         O            1.879945010654     0.264786793445     1.361302914283    15.994914619570
         C           -0.292399989346    -0.315893206555    -0.433726085717    12.000000000000
         C           -0.902544989346     0.933739793445    -0.209486085717    12.000000000000
         C            1.143508010654    -0.414802206555    -0.870360085717    12.000000000000
         C           -1.028801989346    -1.491289206555    -0.248724085717    12.000000000000
         C           -2.241811989346     0.960100793445     0.196775914283    12.000000000000
         C           -0.214685889346     2.229161593445    -0.634282785717    12.000000000000
         C           -2.361660989346    -1.449104206555     0.160181914283    12.000000000000
         C           -2.971018989346    -0.215010206555     0.383936914283    12.000000000000
         C            2.127894010654    -0.175621206555     0.253409914283    12.000000000000
         H            1.380744010654     0.305249793445    -1.664118085717     1.007825032230
         H            1.355356010654    -1.403629206555    -1.291901085717     1.007825032230
         H           -0.549393989346    -2.452870206555    -0.427034085717     1.007825032230
         H           -2.721222989346     1.921920793445     0.371116914283     1.007825032230
         H            0.696847010654     2.282620793445     0.303155914283     1.007825032230
         H            0.256031010654     2.314341793445    -1.411843085717     1.007825032230
         H           -0.795979989346     3.079432793445    -0.217225085717     1.007825032230
         H           -2.918721989346    -2.372391206555     0.299624914283     1.007825032230
         H           -4.010162989346    -0.165039206555     0.700626914283     1.007825032230
         H            3.962282010654    -0.314901206555     0.630723914283     1.007825032230

  Basis Set: AUG-CC-PVTZ
    Blend: AUG-CC-PVTZ
  Basis Set: (AUG-CC-PVTZ AUX)
    Blend: AUG-CC-PVTZ-JKFIT
	 Reference Energy          =    -496.5010419583433077 [Eh]
	 Singles Energy            =      -0.0000000000000000 [Eh]
	 Same-Spin Energy          =      -0.5247137726645552 [Eh]
	 Opposite-Spin Energy      =      -1.6318016035319300 [Eh]
	 Correlation Energy        =      -2.1565153761964853 [Eh]
	 Total Energy              =    -498.6575573345397743 [Eh]

	 ================> DF-SCS-MP2 Energies <==================
	-----------------------------------------------------------
	 SCS Same-Spin Scale       =       0.3333333333333333 [-]
	 SCS Opposite-Spin Scale   =       1.2000000000000000 [-]
	 SCS Same-Spin Energy      =      -0.1749045908881851 [Eh]
	 SCS Opposite-Spin Energy  =      -1.9581619242383159 [Eh]
	 SCS Correlation Energy    =      -2.1330665151265009 [Eh]
	 SCS Total Energy          =    -498.6341084734698370 [Eh]
	-----------------------------------------------------------

  Dipole Moment: [D]
     X:     0.4925      Y:    -0.1501      Z:    -1.2693     Total:     1.3698

*** Psi4 exiting successfully. Buy a developer a beer!
