                               Psi4 1.3.2 release

  ==> Input File <==

--------------------------------------------------------------------------
#psi4
#
memory 32 gb

molecule  {
0 1
  O        3.4036770    -0.5312700    -0.1399000
  O        1.8951010     0.2455770     1.3601080
  C       -0.2772440    -0.3351030    -0.4349210
  C       -0.8873890     0.9145300    -0.2106810
  C        1.1214737    -0.6668209    -0.7883871
  C       -1.0136460    -1.5104990    -0.2499190
  C       -2.2266560     0.9408910     0.1955810
  C       -0.1273370     2.2020410    -0.3962590
  C       -2.3465050    -1.4683140     0.1589870
  C       -2.9558630    -0.2342200     0.3827420
  C        2.1430500    -0.1948310     0.2522150
  H        1.3959000     0.2860400    -1.6653130
  H        1.3705120    -1.4228390    -1.2930960
  H       -0.5342380    -2.4720800    -0.4282290
  H       -2.7060670     1.9027110     0.3699220
  H        0.7120030     2.2634110     0.3019610
  H        0.2711870     2.2951320    -1.4130380
  H       -0.7808240     3.0602230    -0.2184200
  H       -2.9035660    -2.3916010     0.2984300
  H       -3.9950070    -0.1842490     0.6994320
  H        3.9774380    -0.3341110     0.6295290
units angstrom
no_reorient  #important for SAPT in psi4, default
symmetry c1  #important for SAPT in psi4, default
}

set PROPERTIES_ORIGIN ["COM"]
properties('MP2/aug-cc-pvtz', properties = ['dipole'])
--------------------------------------------------------------------------

    Molecular point group: c1
  Charge       = 0
  Multiplicity = 1
  Basis Set: AUG-CC-PVTZ
    Blend: AUG-CC-PVTZ
  Basis Set: (AUG-CC-PVTZ AUX)
    Blend: AUG-CC-PVTZ-JKFIT

    Orbital Energies [Eh]
    ---------------------

    Doubly Occupied:

       1A    -20.618092     2A    -20.554519     3A    -11.398366
       4A    -11.268592     5A    -11.248888     6A    -11.246678
       7A    -11.235579     8A    -11.234613     9A    -11.233607
      10A    -11.232024    11A    -11.222691    12A     -1.462348
      13A     -1.360129    14A     -1.163898    15A     -1.074408
      16A     -1.044547    17A     -0.981442    18A     -0.930578
      19A     -0.840366    20A     -0.821459    21A     -0.780966
      22A     -0.715250    23A     -0.699531    24A     -0.682553
      25A     -0.654498    26A     -0.640142    27A     -0.625873
      28A     -0.598463    29A     -0.582424    30A     -0.576339
      31A     -0.565900    32A     -0.540488    33A     -0.522023
      34A     -0.495762    35A     -0.489985    36A     -0.482838
      37A     -0.464834    38A     -0.452106    39A     -0.332595
      40A     -0.323255

  @DF-RHF Final Energy:  -496.50548876560686

   => Energetics <=

    Nuclear Repulsion Energy =            583.3912857049842842
    One-Electron Energy =               -1832.9962535475356162
    Two-Electron Energy =                 753.0994790769444762
    Total Energy =                       -496.5054887656068558
  Basis Set: (AUG-CC-PVTZ AUX)
    Blend: AUG-CC-PVTZ-RI
    Molecular point group: c1

    Geometry (in Angstrom), charge = 0, multiplicity = 1:

       Center              X                  Y                   Z               Mass
    ------------   -----------------  -----------------  -----------------  -----------------
         O            3.385722072990    -0.492811366905    -0.164484313460    15.994914619570
         O            1.877146072990     0.284035633095     1.335523686540    15.994914619570
         C           -0.295198927010    -0.296644366905    -0.459505313460    12.000000000000
         C           -0.905343927010     0.952988633095    -0.235265313460    12.000000000000
         C            1.103518772990    -0.628362266905    -0.812971413460    12.000000000000
         C           -1.031600927010    -1.472040366905    -0.274503313460    12.000000000000
         C           -2.244610927010     0.979349633095     0.170996686540    12.000000000000
         C           -0.145291927010     2.240499633095    -0.420843313460    12.000000000000
         C           -2.364459927010    -1.429855366905     0.134402686540    12.000000000000
         C           -2.973817927010    -0.195761366905     0.358157686540    12.000000000000
         C            2.125095072990    -0.156372366905     0.227630686540    12.000000000000
         H            1.377945072990     0.324498633095    -1.689897313460     1.007825032230
         H            1.352557072990    -1.384380366905    -1.317680313460     1.007825032230
         H           -0.552192927010    -2.433621366905    -0.452813313460     1.007825032230
         H           -2.724021927010     1.941169633095     0.345337686540     1.007825032230
         H            0.694048072990     2.301869633095     0.277376686540     1.007825032230
         H            0.253232072990     2.333590633095    -1.437622313460     1.007825032230
         H           -0.798778927010     3.098681633095    -0.243004313460     1.007825032230
         H           -2.921520927010    -2.353142366905     0.273845686540     1.007825032230
         H           -4.012961927010    -0.145790366905     0.674847686540     1.007825032230
         H            3.959483072990    -0.295652366905     0.604944686540     1.007825032230

  Basis Set: AUG-CC-PVTZ
    Blend: AUG-CC-PVTZ
  Basis Set: (AUG-CC-PVTZ AUX)
    Blend: AUG-CC-PVTZ-JKFIT
	 Reference Energy          =    -496.5054887656068558 [Eh]
	 Singles Energy            =      -0.0000000000000000 [Eh]
	 Same-Spin Energy          =      -0.5252038760911264 [Eh]
	 Opposite-Spin Energy      =      -1.6321373061264801 [Eh]
	 Correlation Energy        =      -2.1573411822176065 [Eh]
	 Total Energy              =    -498.6628299478244344 [Eh]

	 ================> DF-SCS-MP2 Energies <==================
	-----------------------------------------------------------
	 SCS Same-Spin Scale       =       0.3333333333333333 [-]
	 SCS Opposite-Spin Scale   =       1.2000000000000000 [-]
	 SCS Same-Spin Energy      =      -0.1750679586970421 [Eh]
	 SCS Opposite-Spin Energy  =      -1.9585647673517761 [Eh]
	 SCS Correlation Energy    =      -2.1336327260488184 [Eh]
	 SCS Total Energy          =    -498.6391214916556578 [Eh]
	-----------------------------------------------------------

  Dipole Moment: [D]
     X:     0.4379      Y:    -0.2419      Z:    -1.1431     Total:     1.2478

*** Psi4 exiting successfully. Buy a developer a beer!
