                               Psi4 1.3.2 release

  ==> Input File <==

--------------------------------------------------------------------------
#psi4
#
memory 32 gb

molecule  {
0 1
  O        3.4036770    -0.5312700    -0.1399000
  O        1.8951010     0.2455770     1.3601080
  C       -0.2772440    -0.3351030    -0.4349210
  C       -0.8873890     0.9145300    -0.2106810
  C        1.1512259    -0.4805738    -0.8549214
  C       -1.0136460    -1.5104990    -0.2499190
  C       -2.2266560     0.9408910     0.1955810
  C       -0.1273370     2.2020410    -0.3962590
  C       -2.3465050    -1.4683140     0.1589870
  C       -2.9558630    -0.2342200     0.3827420
  C        2.1430500    -0.1948310     0.2522150
  H        1.3959000     0.2860400    -1.6653130
  H        1.3705120    -1.4228390    -1.2930960
  H       -0.5342380    -2.4720800    -0.4282290
  H       -2.7060670     1.9027110     0.3699220
  H        0.7120030     2.2634110     0.3019610
  H        0.2711870     2.2951320    -1.4130380
  H       -0.7808240     3.0602230    -0.2184200
  H       -2.9035660    -2.3916010     0.2984300
  H       -3.9950070    -0.1842490     0.6994320
  H        3.9774380    -0.3341110     0.6295290
units angstrom
no_reorient  #important for SAPT in psi4, default
symmetry c1  #important for SAPT in psi4, default
}

set PROPERTIES_ORIGIN ["COM"]
properties('MP2/aug-cc-pvtz', properties = ['dipole'])
--------------------------------------------------------------------------

    Molecular point group: c1
  Charge       = 0
  Multiplicity = 1
  Basis Set: AUG-CC-PVTZ
    Blend: AUG-CC-PVTZ
  Basis Set: (AUG-CC-PVTZ AUX)
    Blend: AUG-CC-PVTZ-JKFIT

    Orbital Energies [Eh]
    ---------------------

    Doubly Occupied:

       1A    -20.618792     2A    -20.554712     3A    -11.394797
       4A    -11.259457     5A    -11.244996     6A    -11.243624
       7A    -11.236059     8A    -11.234840     9A    -11.232234
      10A    -11.231489    11A    -11.222780    12A     -1.462810
      13A     -1.360241    14A     -1.161286    15A     -1.071235
      16A     -1.042204    17A     -0.981562    18A     -0.930283
      19A     -0.840686    20A     -0.813730    21A     -0.777414
      22A     -0.709188    23A     -0.690401    24A     -0.677752
      25A     -0.665439    26A     -0.628557    27A     -0.626676
      28A     -0.595616    29A     -0.577571    30A     -0.571113
      31A     -0.566291    32A     -0.545676    33A     -0.540121
      34A     -0.491176    35A     -0.488773    36A     -0.482170
      37A     -0.481038    38A     -0.457776    39A     -0.333307
      40A     -0.323408

  @DF-RHF Final Energy:  -496.56186589356736

   => Energetics <=

    Nuclear Repulsion Energy =            583.5633239426944101
    One-Electron Energy =               -1833.5158173903896568
    Two-Electron Energy =                 753.3906275541280593
    Total Energy =                       -496.5618658935673011
  Basis Set: (AUG-CC-PVTZ AUX)
    Blend: AUG-CC-PVTZ-RI
    Molecular point group: c1

    Geometry (in Angstrom), charge = 0, multiplicity = 1:

       Center              X                  Y                   Z               Mass
    ------------   -----------------  -----------------  -----------------  -----------------
         O            3.383342976776    -0.507704375508    -0.159163984165    15.994914619570
         O            1.874766976776     0.269142624492     1.340844015835    15.994914619570
         C           -0.297578023224    -0.311537375508    -0.454184984165    12.000000000000
         C           -0.907723023224     0.938095624492    -0.229944984165    12.000000000000
         C            1.130891876776    -0.457008175508    -0.874185384165    12.000000000000
         C           -1.033980023224    -1.486933375508    -0.269182984165    12.000000000000
         C           -2.246990023224     0.964456624492     0.176317015835    12.000000000000
         C           -0.147671023224     2.225606624492    -0.415522984165    12.000000000000
         C           -2.366839023224    -1.444748375508     0.139723015835    12.000000000000
         C           -2.976197023224    -0.210654375508     0.363478015835    12.000000000000
         C            2.122715976776    -0.171265375508     0.232951015835    12.000000000000
         H            1.375565976776     0.309605624492    -1.684576984165     1.007825032230
         H            1.350177976776    -1.399273375508    -1.312359984165     1.007825032230
         H           -0.554572023224    -2.448514375508    -0.447492984165     1.007825032230
         H           -2.726401023224     1.926276624492     0.350658015835     1.007825032230
         H            0.691668976776     2.286976624492     0.282697015835     1.007825032230
         H            0.250852976776     2.318697624492    -1.432301984165     1.007825032230
         H           -0.801158023224     3.083788624492    -0.237683984165     1.007825032230
         H           -2.923900023224    -2.368035375508     0.279166015835     1.007825032230
         H           -4.015341023224    -0.160683375508     0.680168015835     1.007825032230
         H            3.957103976776    -0.310545375508     0.610265015835     1.007825032230

  Basis Set: AUG-CC-PVTZ
    Blend: AUG-CC-PVTZ
  Basis Set: (AUG-CC-PVTZ AUX)
    Blend: AUG-CC-PVTZ-JKFIT
	 Reference Energy          =    -496.5618658935673579 [Eh]
	 Singles Energy            =      -0.0000000000000000 [Eh]
	 Same-Spin Energy          =      -0.5237612979014334 [Eh]
	 Opposite-Spin Energy      =      -1.6287807667024659 [Eh]
	 Correlation Energy        =      -2.1525420646038995 [Eh]
	 Total Energy              =    -498.7144079581712504 [Eh]

	 ================> DF-SCS-MP2 Energies <==================
	-----------------------------------------------------------
	 SCS Same-Spin Scale       =       0.3333333333333333 [-]
	 SCS Opposite-Spin Scale   =       1.2000000000000000 [-]
	 SCS Same-Spin Energy      =      -0.1745870993004778 [Eh]
	 SCS Opposite-Spin Energy  =      -1.9545369200429590 [Eh]
	 SCS Correlation Energy    =      -2.1291240193434366 [Eh]
	 SCS Total Energy          =    -498.6909899129108226 [Eh]
	-----------------------------------------------------------

  Dipole Moment: [D]
     X:     0.5348      Y:    -0.1425      Z:    -1.2069     Total:     1.3278

*** Psi4 exiting successfully. Buy a developer a beer!
