                               Psi4 1.3.2 release

  ==> Input File <==

--------------------------------------------------------------------------
#psi4
#
memory 32 gb

molecule  {
0 1
  O        3.4036770    -0.5312700    -0.1399000
  O        1.8951010     0.2455770     1.3601080
  C       -0.2772440    -0.3351030    -0.4349210
  C       -0.8873890     0.9145300    -0.2106810
  C        1.1586640    -0.4340120    -0.8715550
  C       -1.0858823    -1.5028675    -0.4891337
  C       -2.2266560     0.9408910     0.1955810
  C       -0.1273370     2.2020410    -0.3962590
  C       -2.3465050    -1.4683140     0.1589870
  C       -2.9558630    -0.2342200     0.3827420
  C        2.1430500    -0.1948310     0.2522150
  H        1.3959000     0.2860400    -1.6653130
  H        1.3705120    -1.4228390    -1.2930960
  H       -0.5342380    -2.4720800    -0.4282290
  H       -2.7060670     1.9027110     0.3699220
  H        0.7120030     2.2634110     0.3019610
  H        0.2711870     2.2951320    -1.4130380
  H       -0.7808240     3.0602230    -0.2184200
  H       -2.9035660    -2.3916010     0.2984300
  H       -3.9950070    -0.1842490     0.6994320
  H        3.9774380    -0.3341110     0.6295290
units angstrom
no_reorient  #important for SAPT in psi4, default
symmetry c1  #important for SAPT in psi4, default
}

set PROPERTIES_ORIGIN ["COM"]
properties('MP2/aug-cc-pvtz', properties = ['dipole'])
--------------------------------------------------------------------------

    Molecular point group: c1
  Charge       = 0
  Multiplicity = 1
  Basis Set: AUG-CC-PVTZ
    Blend: AUG-CC-PVTZ
  Basis Set: (AUG-CC-PVTZ AUX)
    Blend: AUG-CC-PVTZ-JKFIT

    Orbital Energies [Eh]
    ---------------------

    Doubly Occupied:

       1A    -20.619470     2A    -20.555808     3A    -11.395673
       4A    -11.259131     5A    -11.250374     6A    -11.243343
       7A    -11.241759     8A    -11.238298     9A    -11.235024
      10A    -11.233594    11A    -11.223124    12A     -1.463619
      13A     -1.361193    14A     -1.159373    15A     -1.071032
      16A     -1.040011    17A     -0.980659    18A     -0.929855
      19A     -0.840479    20A     -0.811478    21A     -0.775570
      22A     -0.709645    23A     -0.689265    24A     -0.676924
      25A     -0.665359    26A     -0.626620    27A     -0.622378
      28A     -0.597428    29A     -0.576782    30A     -0.566436
      31A     -0.564753    32A     -0.547855    33A     -0.540070
      34A     -0.493258    35A     -0.485280    36A     -0.482719
      37A     -0.477446    38A     -0.457796    39A     -0.334150
      40A     -0.321450

  @DF-RHF Final Energy:  -496.54471002519603

   => Energetics <=

    Nuclear Repulsion Energy =            582.3168037683586817
    One-Electron Energy =               -1830.9940635307391403
    Two-Electron Energy =                 752.1325497371843767
    Total Energy =                       -496.5447100251959682
  Basis Set: (AUG-CC-PVTZ AUX)
    Blend: AUG-CC-PVTZ-RI
    Molecular point group: c1

    Geometry (in Angstrom), charge = 0, multiplicity = 1:

       Center              X                  Y                   Z               Mass
    ------------   -----------------  -----------------  -----------------  -----------------
         O            3.388524481079    -0.512037872691    -0.138705405572    15.994914619570
         O            1.879948481079     0.264809127309     1.361302594428    15.994914619570
         C           -0.292396518921    -0.315870872691    -0.433726405572    12.000000000000
         C           -0.902541518921     0.933762127309    -0.209486405572    12.000000000000
         C            1.143511481079    -0.414779872691    -0.870360405572    12.000000000000
         C           -1.101034818921    -1.483635372691    -0.487939105572    12.000000000000
         C           -2.241808518921     0.960123127309     0.196775594428    12.000000000000
         C           -0.142489518921     2.221273127309    -0.395064405572    12.000000000000
         C           -2.361657518921    -1.449081872691     0.160181594428    12.000000000000
         C           -2.971015518921    -0.214987872691     0.383936594428    12.000000000000
         C            2.127897481079    -0.175598872691     0.253409594428    12.000000000000
         H            1.380747481079     0.305272127309    -1.664118405572     1.007825032230
         H            1.355359481079    -1.403606872691    -1.291901405572     1.007825032230
         H           -0.549390518921    -2.452847872691    -0.427034405572     1.007825032230
         H           -2.721219518921     1.921943127309     0.371116594428     1.007825032230
         H            0.696850481079     2.282643127309     0.303155594428     1.007825032230
         H            0.256034481079     2.314364127309    -1.411843405572     1.007825032230
         H           -0.795976518921     3.079455127309    -0.217225405572     1.007825032230
         H           -2.918718518921    -2.372368872691     0.299624594428     1.007825032230
         H           -4.010159518921    -0.165016872691     0.700626594428     1.007825032230
         H            3.962285481079    -0.314878872691     0.630723594428     1.007825032230

  Basis Set: AUG-CC-PVTZ
    Blend: AUG-CC-PVTZ
  Basis Set: (AUG-CC-PVTZ AUX)
    Blend: AUG-CC-PVTZ-JKFIT
	 Reference Energy          =    -496.5447100251960251 [Eh]
	 Singles Energy            =      -0.0000000000000000 [Eh]
	 Same-Spin Energy          =      -0.5245802040624298 [Eh]
	 Opposite-Spin Energy      =      -1.6315430869134886 [Eh]
	 Correlation Energy        =      -2.1561232909759185 [Eh]
	 Total Energy              =    -498.7008333161719520 [Eh]

	 ================> DF-SCS-MP2 Energies <==================
	-----------------------------------------------------------
	 SCS Same-Spin Scale       =       0.3333333333333333 [-]
	 SCS Opposite-Spin Scale   =       1.2000000000000000 [-]
	 SCS Same-Spin Energy      =      -0.1748600680208099 [Eh]
	 SCS Opposite-Spin Energy  =      -1.9578517042961863 [Eh]
	 SCS Correlation Energy    =      -2.1327117723169962 [Eh]
	 SCS Total Energy          =    -498.6774217975130341 [Eh]
	-----------------------------------------------------------

  Dipole Moment: [D]
     X:     0.5452      Y:     0.0139      Z:    -1.0395     Total:     1.1739

*** Psi4 exiting successfully. Buy a developer a beer!
