                               Psi4 1.3.2 release

  ==> Input File <==

--------------------------------------------------------------------------
#psi4
#
memory 32 gb

molecule  {
0 1
  O        3.4036770    -0.5312700    -0.1399000
  O        1.8951010     0.2455770     1.3601080
  C       -0.2772440    -0.3351030    -0.4349210
  C       -0.8873890     0.9145300    -0.2106810
  C        1.1586640    -0.4340120    -0.8715550
  C       -1.0569878    -1.5059201    -0.3934478
  C       -2.2266560     0.9408910     0.1955810
  C       -0.1273370     2.2020410    -0.3962590
  C       -2.3465050    -1.4683140     0.1589870
  C       -2.9558630    -0.2342200     0.3827420
  C        2.1430500    -0.1948310     0.2522150
  H        1.3959000     0.2860400    -1.6653130
  H        1.3705120    -1.4228390    -1.2930960
  H       -0.5342380    -2.4720800    -0.4282290
  H       -2.7060670     1.9027110     0.3699220
  H        0.7120030     2.2634110     0.3019610
  H        0.2711870     2.2951320    -1.4130380
  H       -0.7808240     3.0602230    -0.2184200
  H       -2.9035660    -2.3916010     0.2984300
  H       -3.9950070    -0.1842490     0.6994320
  H        3.9774380    -0.3341110     0.6295290
units angstrom
no_reorient  #important for SAPT in psi4, default
symmetry c1  #important for SAPT in psi4, default
}

set PROPERTIES_ORIGIN ["COM"]
properties('MP2/aug-cc-pvtz', properties = ['dipole'])
--------------------------------------------------------------------------

    Molecular point group: c1
  Charge       = 0
  Multiplicity = 1
  Basis Set: AUG-CC-PVTZ
    Blend: AUG-CC-PVTZ
  Basis Set: (AUG-CC-PVTZ AUX)
    Blend: AUG-CC-PVTZ-JKFIT

    Orbital Energies [Eh]
    ---------------------

    Doubly Occupied:

       1A    -20.619165     2A    -20.555341     3A    -11.395129
       4A    -11.258861     5A    -11.246698     6A    -11.243548
       7A    -11.238560     8A    -11.235189     9A    -11.234017
      10A    -11.232308    11A    -11.222945    12A     -1.463245
      13A     -1.360752    14A     -1.160294    15A     -1.070818
      16A     -1.041038    17A     -0.981537    18A     -0.930171
      19A     -0.840710    20A     -0.812001    21A     -0.777056
      22A     -0.709265    23A     -0.689194    24A     -0.677912
      25A     -0.666143    26A     -0.627523    27A     -0.624523
      28A     -0.596953    29A     -0.577612    30A     -0.567435
      31A     -0.564925    32A     -0.548604    33A     -0.540440
      34A     -0.492533    35A     -0.485645    36A     -0.482955
      37A     -0.481172    38A     -0.457814    39A     -0.333758
      40A     -0.322639

  @DF-RHF Final Energy:  -496.55740355988866

   => Energetics <=

    Nuclear Repulsion Energy =            582.9660066327151071
    One-Electron Energy =               -1832.3139658993213743
    Two-Electron Energy =                 752.7905557067175550
    Total Energy =                       -496.5574035598887122
  Basis Set: (AUG-CC-PVTZ AUX)
    Blend: AUG-CC-PVTZ-RI
    Molecular point group: c1

    Geometry (in Angstrom), charge = 0, multiplicity = 1:

       Center              X                  Y                   Z               Mass
    ------------   -----------------  -----------------  -----------------  -----------------
         O            3.386213969736    -0.511793775478    -0.146356804879    15.994914619570
         O            1.877637969736     0.265053224522     1.353651195121    15.994914619570
         C           -0.294707030264    -0.315626775478    -0.441377804879    12.000000000000
         C           -0.904852030264     0.934006224522    -0.217137804879    12.000000000000
         C            1.141200969736    -0.414535775478    -0.878011804879    12.000000000000
         C           -1.074450830264    -1.486443875478    -0.399904604879    12.000000000000
         C           -2.244119030264     0.960367224522     0.189124195121    12.000000000000
         C           -0.144800030264     2.221517224522    -0.402715804879    12.000000000000
         C           -2.363968030264    -1.448837775478     0.152530195121    12.000000000000
         C           -2.973326030264    -0.214743775478     0.376285195121    12.000000000000
         C            2.125586969736    -0.175354775478     0.245758195121    12.000000000000
         H            1.378436969736     0.305516224522    -1.671769804879     1.007825032230
         H            1.353048969736    -1.403362775478    -1.299552804879     1.007825032230
         H           -0.551701030264    -2.452603775478    -0.434685804879     1.007825032230
         H           -2.723530030264     1.922187224522     0.363465195121     1.007825032230
         H            0.694539969736     2.282887224522     0.295504195121     1.007825032230
         H            0.253723969736     2.314608224522    -1.419494804879     1.007825032230
         H           -0.798287030264     3.079699224522    -0.224876804879     1.007825032230
         H           -2.921029030264    -2.372124775478     0.291973195121     1.007825032230
         H           -4.012470030264    -0.164772775478     0.692975195121     1.007825032230
         H            3.959974969736    -0.314634775478     0.623072195121     1.007825032230

  Basis Set: AUG-CC-PVTZ
    Blend: AUG-CC-PVTZ
  Basis Set: (AUG-CC-PVTZ AUX)
    Blend: AUG-CC-PVTZ-JKFIT
	 Reference Energy          =    -496.5574035598886553 [Eh]
	 Singles Energy            =      -0.0000000000000000 [Eh]
	 Same-Spin Energy          =      -0.5239765715281837 [Eh]
	 Opposite-Spin Energy      =      -1.6296599353865686 [Eh]
	 Correlation Energy        =      -2.1536365069147525 [Eh]
	 Total Energy              =    -498.7110400668034345 [Eh]

	 ================> DF-SCS-MP2 Energies <==================
	-----------------------------------------------------------
	 SCS Same-Spin Scale       =       0.3333333333333333 [-]
	 SCS Opposite-Spin Scale   =       1.2000000000000000 [-]
	 SCS Same-Spin Energy      =      -0.1746588571760612 [Eh]
	 SCS Opposite-Spin Energy  =      -1.9555919224638822 [Eh]
	 SCS Correlation Energy    =      -2.1302507796399435 [Eh]
	 SCS Total Energy          =    -498.6876543395285921 [Eh]
	-----------------------------------------------------------

  Dipole Moment: [D]
     X:     0.5549      Y:    -0.0682      Z:    -1.1161     Total:     1.2483

*** Psi4 exiting successfully. Buy a developer a beer!
