                               Psi4 1.3.2 release

  ==> Input File <==

--------------------------------------------------------------------------
#psi4
#
memory 32 gb

molecule  {
0 1
  O        3.4036770    -0.5312700    -0.1399000
  O        1.8951010     0.2455770     1.3601080
  C       -0.2772440    -0.3351030    -0.4349210
  C       -0.8873890     0.9145300    -0.2106810
  C        1.1586640    -0.4340120    -0.8715550
  C       -1.0714351    -1.5043938    -0.4412908
  C       -2.2266560     0.9408910     0.1955810
  C       -0.1273370     2.2020410    -0.3962590
  C       -2.3465050    -1.4683140     0.1589870
  C       -2.9558630    -0.2342200     0.3827420
  C        2.1430500    -0.1948310     0.2522150
  H        1.3959000     0.2860400    -1.6653130
  H        1.3705120    -1.4228390    -1.2930960
  H       -0.5342380    -2.4720800    -0.4282290
  H       -2.7060670     1.9027110     0.3699220
  H        0.7120030     2.2634110     0.3019610
  H        0.2711870     2.2951320    -1.4130380
  H       -0.7808240     3.0602230    -0.2184200
  H       -2.9035660    -2.3916010     0.2984300
  H       -3.9950070    -0.1842490     0.6994320
  H        3.9774380    -0.3341110     0.6295290
units angstrom
no_reorient  #important for SAPT in psi4, default
symmetry c1  #important for SAPT in psi4, default
}

set PROPERTIES_ORIGIN ["COM"]
properties('MP2/aug-cc-pvtz', properties = ['dipole'])
--------------------------------------------------------------------------

    Molecular point group: c1
  Charge       = 0
  Multiplicity = 1
  Basis Set: AUG-CC-PVTZ
    Blend: AUG-CC-PVTZ
  Basis Set: (AUG-CC-PVTZ AUX)
    Blend: AUG-CC-PVTZ-JKFIT

    Orbital Energies [Eh]
    ---------------------

    Doubly Occupied:

       1A    -20.619306     2A    -20.555557     3A    -11.395377
       4A    -11.258983     5A    -11.248330     6A    -11.243460
       7A    -11.239985     8A    -11.236430     9A    -11.234374
      10A    -11.233084    11A    -11.223020    12A     -1.463418
      13A     -1.360956    14A     -1.159883    15A     -1.070909
      16A     -1.040584    17A     -0.981170    18A     -0.930024
      19A     -0.840611    20A     -0.811771    21A     -0.776375
      22A     -0.709441    23A     -0.689216    24A     -0.677446
      25A     -0.665761    26A     -0.627126    27A     -0.623563
      28A     -0.597185    29A     -0.577227    30A     -0.566943
      31A     -0.564910    32A     -0.548300    33A     -0.540288
      34A     -0.492935    35A     -0.485420    36A     -0.482830
      37A     -0.479603    38A     -0.457811    39A     -0.333918
      40A     -0.322102

  @DF-RHF Final Energy:  -496.55187427292628

   => Energetics <=

    Nuclear Repulsion Energy =            582.6674945347001540
    One-Electron Energy =               -1831.7074673153051663
    Two-Electron Energy =                 752.4880985076787283
    Total Energy =                       -496.5518742729262840
  Basis Set: (AUG-CC-PVTZ AUX)
    Blend: AUG-CC-PVTZ-RI
    Molecular point group: c1

    Geometry (in Angstrom), charge = 0, multiplicity = 1:

       Center              X                  Y                   Z               Mass
    ------------   -----------------  -----------------  -----------------  -----------------
         O            3.387369229406    -0.511915824085    -0.142531101227    15.994914619570
         O            1.878793229406     0.264931175915     1.357476898773    15.994914619570
         C           -0.293551770594    -0.315748824085    -0.437552101227    12.000000000000
         C           -0.903696770594     0.933884175915    -0.213312101227    12.000000000000
         C            1.142356229406    -0.414657824085    -0.874186101227    12.000000000000
         C           -1.087742870594    -1.485039624085    -0.443921901227    12.000000000000
         C           -2.242963770594     0.960245175915     0.192949898773    12.000000000000
         C           -0.143644770594     2.221395175915    -0.398890101227    12.000000000000
         C           -2.362812770594    -1.448959824085     0.156355898773    12.000000000000
         C           -2.972170770594    -0.214865824085     0.380110898773    12.000000000000
         C            2.126742229406    -0.175476824085     0.249583898773    12.000000000000
         H            1.379592229406     0.305394175915    -1.667944101227     1.007825032230
         H            1.354204229406    -1.403484824085    -1.295727101227     1.007825032230
         H           -0.550545770594    -2.452725824085    -0.430860101227     1.007825032230
         H           -2.722374770594     1.922065175915     0.367290898773     1.007825032230
         H            0.695695229406     2.282765175915     0.299329898773     1.007825032230
         H            0.254879229406     2.314486175915    -1.415669101227     1.007825032230
         H           -0.797131770594     3.079577175915    -0.221051101227     1.007825032230
         H           -2.919873770594    -2.372246824085     0.295798898773     1.007825032230
         H           -4.011314770594    -0.164894824085     0.696800898773     1.007825032230
         H            3.961130229406    -0.314756824085     0.626897898773     1.007825032230

  Basis Set: AUG-CC-PVTZ
    Blend: AUG-CC-PVTZ
  Basis Set: (AUG-CC-PVTZ AUX)
    Blend: AUG-CC-PVTZ-JKFIT
	 Reference Energy          =    -496.5518742729262840 [Eh]
	 Singles Energy            =      -0.0000000000000000 [Eh]
	 Same-Spin Energy          =      -0.5242439207993888 [Eh]
	 Opposite-Spin Energy      =      -1.6304880143413145 [Eh]
	 Correlation Energy        =      -2.1547319351407035 [Eh]
	 Total Energy              =    -498.7066062080670008 [Eh]

	 ================> DF-SCS-MP2 Energies <==================
	-----------------------------------------------------------
	 SCS Same-Spin Scale       =       0.3333333333333333 [-]
	 SCS Opposite-Spin Scale   =       1.2000000000000000 [-]
	 SCS Same-Spin Energy      =      -0.1747479735997962 [Eh]
	 SCS Opposite-Spin Energy  =      -1.9565856172095772 [Eh]
	 SCS Correlation Energy    =      -2.1313335908093736 [Eh]
	 SCS Total Energy          =    -498.6832078637356744 [Eh]
	-----------------------------------------------------------

  Dipole Moment: [D]
     X:     0.5517      Y:    -0.0321      Z:    -1.0792     Total:     1.2124

*** Psi4 exiting successfully. Buy a developer a beer!
