                               Psi4 1.3.2 release

  ==> Input File <==

--------------------------------------------------------------------------
#psi4
#
memory 32 gb

molecule  {
0 1
  O        3.4036770    -0.5312700    -0.1399000
  O        1.8951010     0.2455770     1.3601080
  C       -0.2772440    -0.3351030    -0.4349210
  C       -0.8873890     0.9145300    -0.2106810
  C        1.1586640    -0.4340120    -0.8715550
  C       -1.0136460    -1.5104990    -0.2499190
  C       -2.2266560     0.9408910     0.1955810
  C       -0.1562142     2.2052053    -0.4919465
  C       -2.3465050    -1.4683140     0.1589870
  C       -2.9558630    -0.2342200     0.3827420
  C        2.1430500    -0.1948310     0.2522150
  H        1.3959000     0.2860400    -1.6653130
  H        1.3705120    -1.4228390    -1.2930960
  H       -0.5342380    -2.4720800    -0.4282290
  H       -2.7060670     1.9027110     0.3699220
  H        0.7120030     2.2634110     0.3019610
  H        0.2711870     2.2951320    -1.4130380
  H       -0.7808240     3.0602230    -0.2184200
  H       -2.9035660    -2.3916010     0.2984300
  H       -3.9950070    -0.1842490     0.6994320
  H        3.9774380    -0.3341110     0.6295290
units angstrom
no_reorient  #important for SAPT in psi4, default
symmetry c1  #important for SAPT in psi4, default
}

set PROPERTIES_ORIGIN ["COM"]
properties('MP2/aug-cc-pvtz', properties = ['dipole'])
--------------------------------------------------------------------------

    Molecular point group: c1
  Charge       = 0
  Multiplicity = 1
  Basis Set: AUG-CC-PVTZ
    Blend: AUG-CC-PVTZ
  Basis Set: (AUG-CC-PVTZ AUX)
    Blend: AUG-CC-PVTZ-JKFIT

    Orbital Energies [Eh]
    ---------------------

    Doubly Occupied:

       1A    -20.618626     2A    -20.554403     3A    -11.394356
       4A    -11.258843     5A    -11.245185     6A    -11.243795
       7A    -11.236743     8A    -11.234905     9A    -11.232328
      10A    -11.231153    11A    -11.223914    12A     -1.462535
      13A     -1.359860    14A     -1.160838    15A     -1.070703
      16A     -1.041641    17A     -0.981909    18A     -0.931462
      19A     -0.840856    20A     -0.812462    21A     -0.778623
      22A     -0.708475    23A     -0.688631    24A     -0.679753
      25A     -0.667061    26A     -0.630177    27A     -0.625821
      28A     -0.597800    29A     -0.581046    30A     -0.574081
      31A     -0.560241    32A     -0.549831    33A     -0.532761
      34A     -0.494676    35A     -0.487208    36A     -0.483597
      37A     -0.474813    38A     -0.456935    39A     -0.333560
      40A     -0.322326

  @DF-RHF Final Energy:  -496.55420878060642

   => Energetics <=

    Nuclear Repulsion Energy =            583.2285913260969892
    One-Electron Energy =               -1832.8377375247202963
    Two-Electron Energy =                 753.0549374180170616
    Total Energy =                       -496.5542087806063591
  Basis Set: (AUG-CC-PVTZ AUX)
    Blend: AUG-CC-PVTZ-RI
    Molecular point group: c1

    Geometry (in Angstrom), charge = 0, multiplicity = 1:

       Center              X                  Y                   Z               Mass
    ------------   -----------------  -----------------  -----------------  -----------------
         O            3.385057326695    -0.511680658818    -0.150182372593    15.994914619570
         O            1.876481326695     0.265166341182     1.349825627407    15.994914619570
         C           -0.295863673305    -0.315513658818    -0.445203372593    12.000000000000
         C           -0.906008673305     0.934119341182    -0.220963372593    12.000000000000
         C            1.140044326695    -0.414422658818    -0.881837372593    12.000000000000
         C           -1.032265673305    -1.490909658818    -0.260201372593    12.000000000000
         C           -2.245275673305     0.960480341182     0.185298627407    12.000000000000
         C           -0.174833873305     2.224794641182    -0.502228872593    12.000000000000
         C           -2.365124673305    -1.448724658818     0.148704627407    12.000000000000
         C           -2.974482673305    -0.214630658818     0.372459627407    12.000000000000
         C            2.124430326695    -0.175241658818     0.241932627407    12.000000000000
         H            1.377280326695     0.305629341182    -1.675595372593     1.007825032230
         H            1.351892326695    -1.403249658818    -1.303378372593     1.007825032230
         H           -0.552857673305    -2.452490658818    -0.438511372593     1.007825032230
         H           -2.724686673305     1.922300341182     0.359639627407     1.007825032230
         H            0.693383326695     2.283000341182     0.291678627407     1.007825032230
         H            0.252567326695     2.314721341182    -1.423320372593     1.007825032230
         H           -0.799443673305     3.079812341182    -0.228702372593     1.007825032230
         H           -2.922185673305    -2.372011658818     0.288147627407     1.007825032230
         H           -4.013626673305    -0.164659658818     0.689149627407     1.007825032230
         H            3.958818326695    -0.314521658818     0.619246627407     1.007825032230

  Basis Set: AUG-CC-PVTZ
    Blend: AUG-CC-PVTZ
  Basis Set: (AUG-CC-PVTZ AUX)
    Blend: AUG-CC-PVTZ-JKFIT
	 Reference Energy          =    -496.5542087806064160 [Eh]
	 Singles Energy            =      -0.0000000000000000 [Eh]
	 Same-Spin Energy          =      -0.5238552577423002 [Eh]
	 Opposite-Spin Energy      =      -1.6291962581940305 [Eh]
	 Correlation Energy        =      -2.1530515159363306 [Eh]
	 Total Energy              =    -498.7072602965427564 [Eh]

	 ================> DF-SCS-MP2 Energies <==================
	-----------------------------------------------------------
	 SCS Same-Spin Scale       =       0.3333333333333333 [-]
	 SCS Opposite-Spin Scale   =       1.2000000000000000 [-]
	 SCS Same-Spin Energy      =      -0.1746184192474334 [Eh]
	 SCS Opposite-Spin Energy  =      -1.9550355098328365 [Eh]
	 SCS Correlation Energy    =      -2.1296539290802698 [Eh]
	 SCS Total Energy          =    -498.6838627096867071 [Eh]
	-----------------------------------------------------------

  Dipole Moment: [D]
     X:     0.5360      Y:    -0.1149      Z:    -1.2465     Total:     1.3617

*** Psi4 exiting successfully. Buy a developer a beer!
