                               Psi4 1.3.2 release

  ==> Input File <==

--------------------------------------------------------------------------
#psi4
#
memory 32 gb

molecule  {
0 1
  O        3.4036770    -0.5312700    -0.1399000
  O        1.8951010     0.2455770     1.3601080
  C       -0.2772440    -0.3351030    -0.4349210
  C       -0.8873890     0.9145300    -0.2106810
  C        1.1586640    -0.4340120    -0.8715550
  C       -1.0280933    -1.5089727    -0.2977619
  C       -2.2266560     0.9408910     0.1955810
  C       -0.1273370     2.2020410    -0.3962590
  C       -2.3465050    -1.4683140     0.1589870
  C       -2.9558630    -0.2342200     0.3827420
  C        2.1430500    -0.1948310     0.2522150
  H        1.3959000     0.2860400    -1.6653130
  H        1.3705120    -1.4228390    -1.2930960
  H       -0.5342380    -2.4720800    -0.4282290
  H       -2.7060670     1.9027110     0.3699220
  H        0.7120030     2.2634110     0.3019610
  H        0.2711870     2.2951320    -1.4130380
  H       -0.7808240     3.0602230    -0.2184200
  H       -2.9035660    -2.3916010     0.2984300
  H       -3.9950070    -0.1842490     0.6994320
  H        3.9774380    -0.3341110     0.6295290
units angstrom
no_reorient  #important for SAPT in psi4, default
symmetry c1  #important for SAPT in psi4, default
}

set PROPERTIES_ORIGIN ["COM"]
properties('MP2/aug-cc-pvtz', properties = ['dipole'])
--------------------------------------------------------------------------

    Molecular point group: c1
  Charge       = 0
  Multiplicity = 1
  Basis Set: AUG-CC-PVTZ
    Blend: AUG-CC-PVTZ
  Basis Set: (AUG-CC-PVTZ AUX)
    Blend: AUG-CC-PVTZ-JKFIT

    Orbital Energies [Eh]
    ---------------------

    Doubly Occupied:

       1A    -20.618952     2A    -20.555005     3A    -11.394776
       4A    -11.258692     5A    -11.244842     6A    -11.243509
       7A    -11.236885     8A    -11.234799     9A    -11.232672
      10A    -11.231279    11A    -11.222863    12A     -1.462981
      13A     -1.360437    14A     -1.160764    15A     -1.070704
      16A     -1.041571    17A     -0.981878    18A     -0.930341
      19A     -0.840806    20A     -0.812205    21A     -0.777945
      22A     -0.708975    23A     -0.689195    24A     -0.678484
      25A     -0.666708    26A     -0.627931    27A     -0.625642
      28A     -0.596546    29A     -0.577977    30A     -0.568139
      31A     -0.564867    32A     -0.548860    33A     -0.540584
      34A     -0.491684    35A     -0.486473    36A     -0.483828
      37A     -0.481766    38A     -0.457819    39A     -0.333568
      40A     -0.323315

  @DF-RHF Final Energy:  -496.56365874132223

   => Energetics <=

    Nuclear Repulsion Energy =            583.3992189236882950
    One-Electron Energy =               -1833.1932200845926673
    Two-Electron Energy =                 753.2303424195821435
    Total Energy =                       -496.5636587413222287
  Basis Set: (AUG-CC-PVTZ AUX)
    Blend: AUG-CC-PVTZ-RI
    Molecular point group: c1

    Geometry (in Angstrom), charge = 0, multiplicity = 1:

       Center              X                  Y                   Z               Mass
    ------------   -----------------  -----------------  -----------------  -----------------
         O            3.383903458394    -0.511549678265    -0.154008204187    15.994914619570
         O            1.875327458394     0.265297321735     1.345999795813    15.994914619570
         C           -0.297017541606    -0.315382678265    -0.449029204187    12.000000000000
         C           -0.907162541606     0.934250321735    -0.224789204187    12.000000000000
         C            1.138890458394    -0.414291678265    -0.885663204187    12.000000000000
         C           -1.047866841606    -1.489252378265    -0.311870104187    12.000000000000
         C           -2.246429541606     0.960611321735     0.181472795813    12.000000000000
         C           -0.147110541606     2.221761321735    -0.410367204187    12.000000000000
         C           -2.366278541606    -1.448593678265     0.144878795813    12.000000000000
         C           -2.975636541606    -0.214499678265     0.368633795813    12.000000000000
         C            2.123276458394    -0.175110678265     0.238106795813    12.000000000000
         H            1.376126458394     0.305760321735    -1.679421204187     1.007825032230
         H            1.350738458394    -1.403118678265    -1.307204204187     1.007825032230
         H           -0.554011541606    -2.452359678265    -0.442337204187     1.007825032230
         H           -2.725840541606     1.922431321735     0.355813795813     1.007825032230
         H            0.692229458394     2.283131321735     0.287852795813     1.007825032230
         H            0.251413458394     2.314852321735    -1.427146204187     1.007825032230
         H           -0.800597541606     3.079943321735    -0.232528204187     1.007825032230
         H           -2.923339541606    -2.371880678265     0.284321795813     1.007825032230
         H           -4.014780541606    -0.164528678265     0.685323795813     1.007825032230
         H            3.957664458394    -0.314390678265     0.615420795813     1.007825032230

  Basis Set: AUG-CC-PVTZ
    Blend: AUG-CC-PVTZ
  Basis Set: (AUG-CC-PVTZ AUX)
    Blend: AUG-CC-PVTZ-JKFIT
	 Reference Energy          =    -496.5636587413222287 [Eh]
	 Singles Energy            =      -0.0000000000000000 [Eh]
	 Same-Spin Energy          =      -0.5236727030638536 [Eh]
	 Opposite-Spin Energy      =      -1.6287414028089509 [Eh]
	 Correlation Energy        =      -2.1524141058728046 [Eh]
	 Total Energy              =    -498.7160728471950506 [Eh]

	 ================> DF-SCS-MP2 Energies <==================
	-----------------------------------------------------------
	 SCS Same-Spin Scale       =       0.3333333333333333 [-]
	 SCS Opposite-Spin Scale   =       1.2000000000000000 [-]
	 SCS Same-Spin Energy      =      -0.1745575676879512 [Eh]
	 SCS Opposite-Spin Energy  =      -1.9544896833707410 [Eh]
	 SCS Correlation Energy    =      -2.1290472510586924 [Eh]
	 SCS Total Energy          =    -498.6927059923809225 [Eh]
	-----------------------------------------------------------

  Dipole Moment: [D]
     X:     0.5513      Y:    -0.1099      Z:    -1.1821     Total:     1.3089

*** Psi4 exiting successfully. Buy a developer a beer!
