                               Psi4 1.3.2 release

  ==> Input File <==

--------------------------------------------------------------------------
#psi4
#
memory 32 gb

molecule  {
0 1
  O        3.4036770    -0.5312700    -0.1399000
  O        1.8951010     0.2455770     1.3601080
  C       -0.2772440    -0.3351030    -0.4349210
  C       -0.8873890     0.9145300    -0.2106810
  C        1.1363498    -0.5736973    -0.8216543
  C       -1.0136460    -1.5104990    -0.2499190
  C       -2.2266560     0.9408910     0.1955810
  C       -0.1273370     2.2020410    -0.3962590
  C       -2.3465050    -1.4683140     0.1589870
  C       -2.9558630    -0.2342200     0.3827420
  C        2.1430500    -0.1948310     0.2522150
  H        1.3959000     0.2860400    -1.6653130
  H        1.3705120    -1.4228390    -1.2930960
  H       -0.5342380    -2.4720800    -0.4282290
  H       -2.7060670     1.9027110     0.3699220
  H        0.7120030     2.2634110     0.3019610
  H        0.2711870     2.2951320    -1.4130380
  H       -0.7808240     3.0602230    -0.2184200
  H       -2.9035660    -2.3916010     0.2984300
  H       -3.9950070    -0.1842490     0.6994320
  H        3.9774380    -0.3341110     0.6295290
units angstrom
no_reorient  #important for SAPT in psi4, default
symmetry c1  #important for SAPT in psi4, default
}

set PROPERTIES_ORIGIN ["COM"]
properties('MP2/aug-cc-pvtz', properties = ['dipole'])
--------------------------------------------------------------------------

    Molecular point group: c1
  Charge       = 0
  Multiplicity = 1
  Basis Set: AUG-CC-PVTZ
    Blend: AUG-CC-PVTZ
  Basis Set: (AUG-CC-PVTZ AUX)
    Blend: AUG-CC-PVTZ-JKFIT

    Orbital Energies [Eh]
    ---------------------

    Doubly Occupied:

       1A    -20.618524     2A    -20.554538     3A    -11.396024
       4A    -11.262840     5A    -11.246739     6A    -11.244486
       7A    -11.235217     8A    -11.234986     9A    -11.232484
      10A    -11.231956    11A    -11.222709    12A     -1.462623
      13A     -1.360158    14A     -1.162463    15A     -1.072657
      16A     -1.043367    17A     -0.981273    18A     -0.930329
      19A     -0.840503    20A     -0.817390    21A     -0.777902
      22A     -0.710896    23A     -0.694860    24A     -0.680417
      25A     -0.659465    26A     -0.633966    27A     -0.626056
      28A     -0.596235    29A     -0.579047    30A     -0.576697
      31A     -0.566470    32A     -0.541274    33A     -0.532304
      34A     -0.492980    35A     -0.490031    36A     -0.482377
      37A     -0.473944    38A     -0.456587    39A     -0.332933
      40A     -0.323377

  @DF-RHF Final Energy:  -496.54221876947184

   => Energetics <=

    Nuclear Repulsion Energy =            583.5399343249475805
    One-Electron Energy =               -1833.4061428367067492
    Two-Electron Energy =                 753.3239897422872673
    Total Energy =                       -496.5422187694719014
  Basis Set: (AUG-CC-PVTZ AUX)
    Blend: AUG-CC-PVTZ-RI
    Molecular point group: c1

    Geometry (in Angstrom), charge = 0, multiplicity = 1:

       Center              X                  Y                   Z               Mass
    ------------   -----------------  -----------------  -----------------  -----------------
         O            3.384532524883    -0.500257875205    -0.161824144814    15.994914619570
         O            1.875956524883     0.276589124795     1.338183855186    15.994914619570
         C           -0.296388475117    -0.304090875205    -0.456845144814    12.000000000000
         C           -0.906533475117     0.945542124795    -0.232605144814    12.000000000000
         C            1.117205324883    -0.542685175205    -0.843578444814    12.000000000000
         C           -1.032790475117    -1.479486875205    -0.271843144814    12.000000000000
         C           -2.245800475117     0.971903124795     0.173656855186    12.000000000000
         C           -0.146481475117     2.233053124795    -0.418183144814    12.000000000000
         C           -2.365649475117    -1.437301875205     0.137062855186    12.000000000000
         C           -2.975007475117    -0.203207875205     0.360817855186    12.000000000000
         C            2.123905524883    -0.163818875205     0.230290855186    12.000000000000
         H            1.376755524883     0.317052124795    -1.687237144814     1.007825032230
         H            1.351367524883    -1.391826875205    -1.315020144814     1.007825032230
         H           -0.553382475117    -2.441067875205    -0.450153144814     1.007825032230
         H           -2.725211475117     1.933723124795     0.347997855186     1.007825032230
         H            0.692858524883     2.294423124795     0.280036855186     1.007825032230
         H            0.252042524883     2.326144124795    -1.434962144814     1.007825032230
         H           -0.799968475117     3.091235124795    -0.240344144814     1.007825032230
         H           -2.922710475117    -2.360588875205     0.276505855186     1.007825032230
         H           -4.014151475117    -0.153236875205     0.677507855186     1.007825032230
         H            3.958293524883    -0.303098875205     0.607604855186     1.007825032230

  Basis Set: AUG-CC-PVTZ
    Blend: AUG-CC-PVTZ
  Basis Set: (AUG-CC-PVTZ AUX)
    Blend: AUG-CC-PVTZ-JKFIT
	 Reference Energy          =    -496.5422187694718446 [Eh]
	 Singles Energy            =      -0.0000000000000000 [Eh]
	 Same-Spin Energy          =      -0.5242863093673918 [Eh]
	 Opposite-Spin Energy      =      -1.6299008302126556 [Eh]
	 Correlation Energy        =      -2.1541871395800474 [Eh]
	 Total Energy              =    -498.6964059090519186 [Eh]

	 ================> DF-SCS-MP2 Energies <==================
	-----------------------------------------------------------
	 SCS Same-Spin Scale       =       0.3333333333333333 [-]
	 SCS Opposite-Spin Scale   =       1.2000000000000000 [-]
	 SCS Same-Spin Energy      =      -0.1747621031224639 [Eh]
	 SCS Opposite-Spin Energy  =      -1.9558809962551866 [Eh]
	 SCS Correlation Energy    =      -2.1306430993776506 [Eh]
	 SCS Total Energy          =    -498.6728618688495089 [Eh]
	-----------------------------------------------------------

  Dipole Moment: [D]
     X:     0.4981      Y:    -0.1944      Z:    -1.1823     Total:     1.2976

*** Psi4 exiting successfully. Buy a developer a beer!
