                               Psi4 1.3.2 release

  ==> Input File <==

--------------------------------------------------------------------------
#psi4
#
memory 32 gb

molecule  {
0 1
  O        3.4036770    -0.5312700    -0.1399000
  O        1.8951010     0.2455770     1.3601080
  C       -0.2772440    -0.3351030    -0.4349210
  C       -0.8873890     0.9145300    -0.2106810
  C        1.1586640    -0.4340120    -0.8715550
  C       -1.0425405    -1.5074464    -0.3456049
  C       -2.2266560     0.9408910     0.1955810
  C       -0.1273370     2.2020410    -0.3962590
  C       -2.3465050    -1.4683140     0.1589870
  C       -2.9558630    -0.2342200     0.3827420
  C        2.1430500    -0.1948310     0.2522150
  H        1.3959000     0.2860400    -1.6653130
  H        1.3705120    -1.4228390    -1.2930960
  H       -0.5342380    -2.4720800    -0.4282290
  H       -2.7060670     1.9027110     0.3699220
  H        0.7120030     2.2634110     0.3019610
  H        0.2711870     2.2951320    -1.4130380
  H       -0.7808240     3.0602230    -0.2184200
  H       -2.9035660    -2.3916010     0.2984300
  H       -3.9950070    -0.1842490     0.6994320
  H        3.9774380    -0.3341110     0.6295290
units angstrom
no_reorient  #important for SAPT in psi4, default
symmetry c1  #important for SAPT in psi4, default
}

set PROPERTIES_ORIGIN ["COM"]
properties('MP2/aug-cc-pvtz', properties = ['dipole'])
--------------------------------------------------------------------------

    Molecular point group: c1
  Charge       = 0
  Multiplicity = 1
  Basis Set: AUG-CC-PVTZ
    Blend: AUG-CC-PVTZ
  Basis Set: (AUG-CC-PVTZ AUX)
    Blend: AUG-CC-PVTZ-JKFIT

    Orbital Energies [Eh]
    ---------------------

    Doubly Occupied:

       1A    -20.619048     2A    -20.555158     3A    -11.394930
       4A    -11.258764     5A    -11.245522     6A    -11.243574
       7A    -11.237517     8A    -11.234831     9A    -11.233291
      10A    -11.231677    11A    -11.222894    12A     -1.463100
      13A     -1.360580    14A     -1.160591    15A     -1.070751
      16A     -1.041369    17A     -0.981770    18A     -0.930280
      19A     -0.840776    20A     -0.812151    21A     -0.777586
      22A     -0.709110    23A     -0.689191    24A     -0.678270
      25A     -0.666468    26A     -0.627796    27A     -0.625223
      28A     -0.596738    29A     -0.577877    30A     -0.567835
      31A     -0.564899    32A     -0.548786    33A     -0.540537
      34A     -0.492090    35A     -0.485998    36A     -0.483378
      37A     -0.481818    38A     -0.457815    39A     -0.333647
      40A     -0.323046

  @DF-RHF Final Energy:  -496.56132368768249

   => Energetics <=

    Nuclear Repulsion Energy =            583.2104001464433622
    One-Electron Energy =               -1832.8100764039988917
    Two-Electron Energy =                 753.0383525698730409
    Total Energy =                       -496.5613236876824885
  Basis Set: (AUG-CC-PVTZ AUX)
    Blend: AUG-CC-PVTZ-RI
    Molecular point group: c1

    Geometry (in Angstrom), charge = 0, multiplicity = 1:

       Center              X                  Y                   Z               Mass
    ------------   -----------------  -----------------  -----------------  -----------------
         O            3.385058710067    -0.511671726872    -0.150182500535    15.994914619570
         O            1.876482710067     0.265175273128     1.349825499465    15.994914619570
         C           -0.295862289933    -0.315504726872    -0.445203500535    12.000000000000
         C           -0.906007289933     0.934128273128    -0.220963500535    12.000000000000
         C            1.140045710067    -0.414413726872    -0.881837500535    12.000000000000
         C           -1.061158789933    -1.487848126872    -0.355887400535    12.000000000000
         C           -2.245274289933     0.960489273128     0.185298499465    12.000000000000
         C           -0.145955289933     2.221639273128    -0.406541500535    12.000000000000
         C           -2.365123289933    -1.448715726872     0.148704499465    12.000000000000
         C           -2.974481289933    -0.214621726872     0.372459499465    12.000000000000
         C            2.124431710067    -0.175232726872     0.241932499465    12.000000000000
         H            1.377281710067     0.305638273128    -1.675595500535     1.007825032230
         H            1.351893710067    -1.403240726872    -1.303378500535     1.007825032230
         H           -0.552856289933    -2.452481726872    -0.438511500535     1.007825032230
         H           -2.724685289933     1.922309273128     0.359639499465     1.007825032230
         H            0.693384710067     2.283009273128     0.291678499465     1.007825032230
         H            0.252568710067     2.314730273128    -1.423320500535     1.007825032230
         H           -0.799442289933     3.079821273128    -0.228702500535     1.007825032230
         H           -2.922184289933    -2.372002726872     0.288147499465     1.007825032230
         H           -4.013625289933    -0.164650726872     0.689149499465     1.007825032230
         H            3.958819710067    -0.314512726872     0.619246499465     1.007825032230

  Basis Set: AUG-CC-PVTZ
    Blend: AUG-CC-PVTZ
  Basis Set: (AUG-CC-PVTZ AUX)
    Blend: AUG-CC-PVTZ-JKFIT
	 Reference Energy          =    -496.5613236876824885 [Eh]
	 Singles Energy            =      -0.0000000000000000 [Eh]
	 Same-Spin Energy          =      -0.5237844811450650 [Eh]
	 Opposite-Spin Energy      =      -1.6290721386139155 [Eh]
	 Correlation Energy        =      -2.1528566197589805 [Eh]
	 Total Energy              =    -498.7141803074414952 [Eh]

	 ================> DF-SCS-MP2 Energies <==================
	-----------------------------------------------------------
	 SCS Same-Spin Scale       =       0.3333333333333333 [-]
	 SCS Opposite-Spin Scale   =       1.2000000000000000 [-]
	 SCS Same-Spin Energy      =      -0.1745948270483550 [Eh]
	 SCS Opposite-Spin Energy  =      -1.9548865663366986 [Eh]
	 SCS Correlation Energy    =      -2.1294813933850536 [Eh]
	 SCS Total Energy          =    -498.6908050810675377 [Eh]
	-----------------------------------------------------------

  Dipole Moment: [D]
     X:     0.5548      Y:    -0.0942      Z:    -1.1504     Total:     1.2806

*** Psi4 exiting successfully. Buy a developer a beer!
