                               Psi4 1.3.2 release

  ==> Input File <==

--------------------------------------------------------------------------
#psi4
#
memory 32 gb

molecule  {
0 1
  O        3.4036770    -0.5312700    -0.1399000
  O        1.8951010     0.2455770     1.3601080
  C       -0.2772440    -0.3351030    -0.4349210
  C       -0.8873890     0.9145300    -0.2106810
  C        1.1586640    -0.4340120    -0.8715550
  C       -1.0136460    -1.5104990    -0.2499190
  C       -2.2266560     0.9408910     0.1955810
  C       -0.1850913     2.2083697    -0.5876340
  C       -2.3465050    -1.4683140     0.1589870
  C       -2.9558630    -0.2342200     0.3827420
  C        2.1430500    -0.1948310     0.2522150
  H        1.3959000     0.2860400    -1.6653130
  H        1.3705120    -1.4228390    -1.2930960
  H       -0.5342380    -2.4720800    -0.4282290
  H       -2.7060670     1.9027110     0.3699220
  H        0.7120030     2.2634110     0.3019610
  H        0.2711870     2.2951320    -1.4130380
  H       -0.7808240     3.0602230    -0.2184200
  H       -2.9035660    -2.3916010     0.2984300
  H       -3.9950070    -0.1842490     0.6994320
  H        3.9774380    -0.3341110     0.6295290
units angstrom
no_reorient  #important for SAPT in psi4, default
symmetry c1  #important for SAPT in psi4, default
}

set PROPERTIES_ORIGIN ["COM"]
properties('MP2/aug-cc-pvtz', properties = ['dipole'])
--------------------------------------------------------------------------

    Molecular point group: c1
  Charge       = 0
  Multiplicity = 1
  Basis Set: AUG-CC-PVTZ
    Blend: AUG-CC-PVTZ
  Basis Set: (AUG-CC-PVTZ AUX)
    Blend: AUG-CC-PVTZ-JKFIT

    Orbital Energies [Eh]
    ---------------------

    Doubly Occupied:

       1A    -20.618358     2A    -20.553948     3A    -11.394062
       4A    -11.259030     5A    -11.247640     6A    -11.244170
       7A    -11.237039     8A    -11.235322     9A    -11.232475
      10A    -11.231611    11A    -11.227892    12A     -1.462180
      13A     -1.359413    14A     -1.161074    15A     -1.070883
      16A     -1.041767    17A     -0.982229    18A     -0.934820
      19A     -0.841191    20A     -0.813480    21A     -0.780223
      22A     -0.708182    23A     -0.688895    24A     -0.682500
      25A     -0.667405    26A     -0.635849    27A     -0.625772
      28A     -0.604070    29A     -0.587817    30A     -0.574416
      31A     -0.558417    32A     -0.549409    33A     -0.519489
      34A     -0.497923    35A     -0.487213    36A     -0.483116
      37A     -0.465431    38A     -0.454010    39A     -0.333832
      40A     -0.320191

  @DF-RHF Final Energy:  -496.52383565482813

   => Energetics <=

    Nuclear Repulsion Energy =            582.8458293698176931
    One-Electron Energy =               -1831.9938407262625333
    Two-Electron Energy =                 752.6241757016166503
    Total Energy =                       -496.5238356548281899
  Basis Set: (AUG-CC-PVTZ AUX)
    Blend: AUG-CC-PVTZ-RI
    Molecular point group: c1

    Geometry (in Angstrom), charge = 0, multiplicity = 1:

       Center              X                  Y                   Z               Mass
    ------------   -----------------  -----------------  -----------------  -----------------
         O            3.387366446669    -0.511933695973    -0.142530845344    15.994914619570
         O            1.878790446669     0.264913304027     1.357477154656    15.994914619570
         C           -0.293554553331    -0.315766695973    -0.437551845344    12.000000000000
         C           -0.903699553331     0.933866304027    -0.213311845344    12.000000000000
         C            1.142353446669    -0.414675695973    -0.874185845344    12.000000000000
         C           -1.029956553331    -1.491162695973    -0.252549845344    12.000000000000
         C           -2.242966553331     0.960227304027     0.192950154656    12.000000000000
         C           -0.201401853331     2.227706004027    -0.590264845344    12.000000000000
         C           -2.362815553331    -1.448977695973     0.156356154656    12.000000000000
         C           -2.972173553331    -0.214883695973     0.380111154656    12.000000000000
         C            2.126739446669    -0.175494695973     0.249584154656    12.000000000000
         H            1.379589446669     0.305376304027    -1.667943845344     1.007825032230
         H            1.354201446669    -1.403502695973    -1.295726845344     1.007825032230
         H           -0.550548553331    -2.452743695973    -0.430859845344     1.007825032230
         H           -2.722377553331     1.922047304027     0.367291154656     1.007825032230
         H            0.695692446669     2.282747304027     0.299330154656     1.007825032230
         H            0.254876446669     2.314468304027    -1.415668845344     1.007825032230
         H           -0.797134553331     3.079559304027    -0.221050845344     1.007825032230
         H           -2.919876553331    -2.372264695973     0.295799154656     1.007825032230
         H           -4.011317553331    -0.164912695973     0.696801154656     1.007825032230
         H            3.961127446669    -0.314774695973     0.626898154656     1.007825032230

  Basis Set: AUG-CC-PVTZ
    Blend: AUG-CC-PVTZ
  Basis Set: (AUG-CC-PVTZ AUX)
    Blend: AUG-CC-PVTZ-JKFIT
	 Reference Energy          =    -496.5238356548281331 [Eh]
	 Singles Energy            =      -0.0000000000000000 [Eh]
	 Same-Spin Energy          =      -0.5243530290626358 [Eh]
	 Opposite-Spin Energy      =      -1.6306795151824363 [Eh]
	 Correlation Energy        =      -2.1550325442450720 [Eh]
	 Total Energy              =    -498.6788681990731789 [Eh]

	 ================> DF-SCS-MP2 Energies <==================
	-----------------------------------------------------------
	 SCS Same-Spin Scale       =       0.3333333333333333 [-]
	 SCS Opposite-Spin Scale   =       1.2000000000000000 [-]
	 SCS Same-Spin Energy      =      -0.1747843430208786 [Eh]
	 SCS Opposite-Spin Energy  =      -1.9568154182189235 [Eh]
	 SCS Correlation Energy    =      -2.1315997612398019 [Eh]
	 SCS Total Energy          =    -498.6554354160679168 [Eh]
	-----------------------------------------------------------

  Dipole Moment: [D]
     X:     0.5095      Y:    -0.1338      Z:    -1.2665     Total:     1.3716

*** Psi4 exiting successfully. Buy a developer a beer!
