                               Psi4 1.3.2 release

  ==> Input File <==

--------------------------------------------------------------------------
#psi4
#
memory 32 gb

molecule  {
0 1
  O        0.2506850     2.2433030    -0.0000120
  N       -0.1535360    -0.0391100    -0.0000040
  C       -1.6091660     0.2193680    -0.0000060
  C       -2.2505560    -0.3204400     1.2726240
  C       -2.2505640    -0.3204870    -1.2726120
  C        0.7061140     1.0894960    -0.0000070
  C        0.3060350    -1.3272880     0.0000050
  C        2.1126960     0.7529310    -0.0000050
  C        1.6422530    -1.6174930     0.0000090
  C        2.5632190    -0.5392750     0.0000030
  H       -1.6749870     1.3090010    -0.0000250
  H       -3.3054200    -0.0314760     1.3049310
  H       -2.2011690    -1.4127350     1.3198810
  H       -1.7528960     0.0901600     2.1548740
  H       -1.7529050     0.0900740    -2.1548810
  H       -3.3054260    -0.0315150    -1.3049260
  H       -2.2011880    -1.4127830    -1.3198260
  H       -0.4545900    -2.1014670     0.0000100
  H        2.7949639     1.5970404     0.2499910
  H        1.9701580    -2.6507840     0.0000170
  H        3.6325460    -0.7390360     0.0000060
units angstrom
no_reorient  #important for SAPT in psi4, default
symmetry c1  #important for SAPT in psi4, default
}

set PROPERTIES_ORIGIN ["COM"]
properties('MP2/aug-cc-pvtz', properties = ['dipole'])
--------------------------------------------------------------------------

    Molecular point group: c1
  Charge       = 0
  Multiplicity = 1
  Basis Set: AUG-CC-PVTZ
    Blend: AUG-CC-PVTZ
  Basis Set: (AUG-CC-PVTZ AUX)
    Blend: AUG-CC-PVTZ-JKFIT

    Orbital Energies [Eh]
    ---------------------

    Doubly Occupied:

       1A    -20.505601     2A    -15.621737     3A    -11.350110
       4A    -11.306242     5A    -11.274338     6A    -11.269474
       7A    -11.238601     8A    -11.237509     9A    -11.228933
      10A    -11.228907    11A     -1.367110    12A     -1.277859
      13A     -1.122637    14A     -1.051320    15A     -1.022280
      16A     -0.950822    17A     -0.892886    18A     -0.855611
      19A     -0.803198    20A     -0.711276    21A     -0.699748
      22A     -0.654143    23A     -0.639145    24A     -0.628101
      25A     -0.613039    26A     -0.603507    27A     -0.564697
      28A     -0.562513    29A     -0.549340    30A     -0.540388
      31A     -0.523642    32A     -0.504460    33A     -0.486542
      34A     -0.473946    35A     -0.418039    36A     -0.405819
      37A     -0.307213

  @DF-RHF Final Energy:  -438.81395959566589

   => Energetics <=

    Nuclear Repulsion Energy =            527.8054710604880029
    One-Electron Energy =               -1642.2573965401966234
    Two-Electron Energy =                 675.6379658840428419
    Total Energy =                       -438.8139595956658923
  Basis Set: (AUG-CC-PVTZ AUX)
    Blend: AUG-CC-PVTZ-RI
    Molecular point group: c1

    Geometry (in Angstrom), charge = 0, multiplicity = 1:

       Center              X                  Y                   Z               Mass
    ------------   -----------------  -----------------  -----------------  -----------------
         O            0.190979997080     2.205074040301    -0.001849505443    15.994914619570
         N           -0.213241002920    -0.077338959699    -0.001841505443    14.003074004430
         C           -1.668871002920     0.181139040301    -0.001843505443    12.000000000000
         C           -2.310261002920    -0.358668959699     1.270786494557    12.000000000000
         C           -2.310269002920    -0.358715959699    -1.274449505443    12.000000000000
         C            0.646408997080     1.051267040301    -0.001844505443    12.000000000000
         C            0.246329997080    -1.365516959699    -0.001832505443    12.000000000000
         C            2.052990997080     0.714702040301    -0.001842505443    12.000000000000
         C            1.582547997080    -1.655721959699    -0.001828505443    12.000000000000
         C            2.503513997080    -0.577503959699    -0.001834505443    12.000000000000
         H           -1.734692002920     1.270772040301    -0.001862505443     1.007825032230
         H           -3.365125002920    -0.069704959699     1.303093494557     1.007825032230
         H           -2.260874002920    -1.450963959699     1.318043494557     1.007825032230
         H           -1.812601002920     0.051931040301     2.153036494557     1.007825032230
         H           -1.812610002920     0.051845040301    -2.156718505443     1.007825032230
         H           -3.365131002920    -0.069743959699    -1.306763505443     1.007825032230
         H           -2.260893002920    -1.451011959699    -1.321663505443     1.007825032230
         H           -0.514295002920    -2.139695959699    -0.001827505443     1.007825032230
         H            2.735258897080     1.558811440301     0.248153494557     1.007825032230
         H            1.910452997080    -2.689012959699    -0.001820505443     1.007825032230
         H            3.572840997080    -0.777264959699    -0.001831505443     1.007825032230

  Basis Set: AUG-CC-PVTZ
    Blend: AUG-CC-PVTZ
  Basis Set: (AUG-CC-PVTZ AUX)
    Blend: AUG-CC-PVTZ-JKFIT
	 Reference Energy          =    -438.8139595956658923 [Eh]
	 Singles Energy            =      -0.0000000000000000 [Eh]
	 Same-Spin Energy          =      -0.4681319320611356 [Eh]
	 Opposite-Spin Energy      =      -1.4976443582560330 [Eh]
	 Correlation Energy        =      -1.9657762903171685 [Eh]
	 Total Energy              =    -440.7797358859830865 [Eh]

	 ================> DF-SCS-MP2 Energies <==================
	-----------------------------------------------------------
	 SCS Same-Spin Scale       =       0.3333333333333333 [-]
	 SCS Opposite-Spin Scale   =       1.2000000000000000 [-]
	 SCS Same-Spin Energy      =      -0.1560439773537118 [Eh]
	 SCS Opposite-Spin Energy  =      -1.7971732299072396 [Eh]
	 SCS Correlation Energy    =      -1.9532172072609515 [Eh]
	 SCS Total Energy          =    -440.7671768029268264 [Eh]
	-----------------------------------------------------------

  Dipole Moment: [D]
     X:    -0.6984      Y:    -3.8952      Z:     0.1525     Total:     3.9602

*** Psi4 exiting successfully. Buy a developer a beer!
