                               Psi4 1.3.2 release

  ==> Input File <==

--------------------------------------------------------------------------
#psi4
#
memory 32 gb

molecule  {
0 1
  O        0.2506850     2.2433030    -0.0000120
  N       -0.1535360    -0.0391100    -0.0000040
  C       -1.6091660     0.2193680    -0.0000060
  C       -2.2505560    -0.3204400     1.2726240
  C       -2.2505640    -0.3204870    -1.2726120
  C        0.7061140     1.0894960    -0.0000070
  C        0.3060350    -1.3272880     0.0000050
  C        2.1126960     0.7529310    -0.0000050
  C        1.6422530    -1.6174930     0.0000090
  C        2.5632190    -0.5392750     0.0000030
  H       -1.6749870     1.3090010    -0.0000250
  H       -3.3054200    -0.0314760     1.3049310
  H       -2.2011690    -1.4127350     1.3198810
  H       -1.7528960     0.0901600     2.1548740
  H       -1.7529050     0.0900740    -2.1548810
  H       -3.3054260    -0.0315150    -1.3049260
  H       -2.2011880    -1.4127830    -1.3198260
  H       -0.4545900    -2.1014670     0.0000100
  H        2.7949639     1.5970398     0.1499910
  H        1.9701580    -2.6507840     0.0000170
  H        3.6325460    -0.7390360     0.0000060
units angstrom
no_reorient  #important for SAPT in psi4, default
symmetry c1  #important for SAPT in psi4, default
}

set PROPERTIES_ORIGIN ["COM"]
properties('MP2/aug-cc-pvtz', properties = ['dipole'])
--------------------------------------------------------------------------

    Molecular point group: c1
  Charge       = 0
  Multiplicity = 1
  Basis Set: AUG-CC-PVTZ
    Blend: AUG-CC-PVTZ
  Basis Set: (AUG-CC-PVTZ AUX)
    Blend: AUG-CC-PVTZ-JKFIT

    Orbital Energies [Eh]
    ---------------------

    Doubly Occupied:

       1A    -20.505492     2A    -15.621569     3A    -11.350008
       4A    -11.305849     5A    -11.274235     6A    -11.269125
       7A    -11.238422     8A    -11.236067     9A    -11.228826
      10A    -11.228806    11A     -1.367034    12A     -1.277695
      13A     -1.122567    14A     -1.051284    15A     -1.022430
      16A     -0.950717    17A     -0.893115    18A     -0.855779
      19A     -0.803618    20A     -0.711388    21A     -0.699612
      22A     -0.654943    23A     -0.640241    24A     -0.628135
      25A     -0.612996    26A     -0.604030    27A     -0.564534
      28A     -0.562271    29A     -0.548642    30A     -0.542363
      31A     -0.524111    32A     -0.504549    33A     -0.486723
      34A     -0.473838    35A     -0.417856    36A     -0.406327
      37A     -0.307167

  @DF-RHF Final Energy:  -438.81661036604532

   => Energetics <=

    Nuclear Repulsion Energy =            527.8769715120648698
    One-Electron Energy =               -1642.4024339360557860
    Two-Electron Energy =                 675.7088520579457054
    Total Energy =                       -438.8166103660453246
  Basis Set: (AUG-CC-PVTZ AUX)
    Blend: AUG-CC-PVTZ-RI
    Molecular point group: c1

    Geometry (in Angstrom), charge = 0, multiplicity = 1:

       Center              X                  Y                   Z               Mass
    ------------   -----------------  -----------------  -----------------  -----------------
         O            0.190979997080     2.205074044712    -0.001114317848    15.994914619570
         N           -0.213241002920    -0.077338955288    -0.001106317848    14.003074004430
         C           -1.668871002920     0.181139044712    -0.001108317848    12.000000000000
         C           -2.310261002920    -0.358668955288     1.271521682152    12.000000000000
         C           -2.310269002920    -0.358715955288    -1.273714317848    12.000000000000
         C            0.646408997080     1.051267044712    -0.001109317848    12.000000000000
         C            0.246329997080    -1.365516955288    -0.001097317848    12.000000000000
         C            2.052990997080     0.714702044712    -0.001107317848    12.000000000000
         C            1.582547997080    -1.655721955288    -0.001093317848    12.000000000000
         C            2.503513997080    -0.577503955288    -0.001099317848    12.000000000000
         H           -1.734692002920     1.270772044712    -0.001127317848     1.007825032230
         H           -3.365125002920    -0.069704955288     1.303828682152     1.007825032230
         H           -2.260874002920    -1.450963955288     1.318778682152     1.007825032230
         H           -1.812601002920     0.051931044712     2.153771682152     1.007825032230
         H           -1.812610002920     0.051845044712    -2.155983317848     1.007825032230
         H           -3.365131002920    -0.069743955288    -1.306028317848     1.007825032230
         H           -2.260893002920    -1.451011955288    -1.320928317848     1.007825032230
         H           -0.514295002920    -2.139695955288    -0.001092317848     1.007825032230
         H            2.735258897080     1.558810844712     0.148888682152     1.007825032230
         H            1.910452997080    -2.689012955288    -0.001085317848     1.007825032230
         H            3.572840997080    -0.777264955288    -0.001096317848     1.007825032230

  Basis Set: AUG-CC-PVTZ
    Blend: AUG-CC-PVTZ
  Basis Set: (AUG-CC-PVTZ AUX)
    Blend: AUG-CC-PVTZ-JKFIT
	 Reference Energy          =    -438.8166103660453246 [Eh]
	 Singles Energy            =      -0.0000000000000000 [Eh]
	 Same-Spin Energy          =      -0.4680259875127641 [Eh]
	 Opposite-Spin Energy      =      -1.4973934014538952 [Eh]
	 Correlation Energy        =      -1.9654193889666594 [Eh]
	 Total Energy              =    -440.7820297550119903 [Eh]

	 ================> DF-SCS-MP2 Energies <==================
	-----------------------------------------------------------
	 SCS Same-Spin Scale       =       0.3333333333333333 [-]
	 SCS Opposite-Spin Scale   =       1.2000000000000000 [-]
	 SCS Same-Spin Energy      =      -0.1560086625042547 [Eh]
	 SCS Opposite-Spin Energy  =      -1.7968720817446742 [Eh]
	 SCS Correlation Energy    =      -1.9528807442489289 [Eh]
	 SCS Total Energy          =    -440.7694911102942683 [Eh]
	-----------------------------------------------------------

  Dipole Moment: [D]
     X:    -0.6775      Y:    -3.8789      Z:     0.0923     Total:     3.9387

*** Psi4 exiting successfully. Buy a developer a beer!
