                               Psi4 1.3.2 release

  ==> Input File <==

--------------------------------------------------------------------------
#psi4
#
memory 32 gb

molecule  {
0 1
  O        0.2506850     2.2433030    -0.0000120
  N       -0.1535360    -0.0391100    -0.0000040
  C       -1.6091660     0.2193680    -0.0000060
  C       -2.2505560    -0.3204400     1.2726240
  C       -2.2505640    -0.3204870    -1.2726120
  C        0.7061140     1.0894960    -0.0000070
  C        0.3060354    -1.3272893    -0.2499950
  C        2.1126960     0.7529310    -0.0000050
  C        1.6422530    -1.6174930     0.0000090
  C        2.5632190    -0.5392750     0.0000030
  H       -1.6749870     1.3090010    -0.0000250
  H       -3.3054200    -0.0314760     1.3049310
  H       -2.2011690    -1.4127350     1.3198810
  H       -1.7528960     0.0901600     2.1548740
  H       -1.7529050     0.0900740    -2.1548810
  H       -3.3054260    -0.0315150    -1.3049260
  H       -2.2011880    -1.4127830    -1.3198260
  H       -0.4545900    -2.1014670     0.0000100
  H        2.7949640     1.5970390    -0.0000090
  H        1.9701580    -2.6507840     0.0000170
  H        3.6325460    -0.7390360     0.0000060
units angstrom
no_reorient  #important for SAPT in psi4, default
symmetry c1  #important for SAPT in psi4, default
}

set PROPERTIES_ORIGIN ["COM"]
properties('MP2/aug-cc-pvtz', properties = ['dipole'])
--------------------------------------------------------------------------

    Molecular point group: c1
  Charge       = 0
  Multiplicity = 1
  Basis Set: AUG-CC-PVTZ
    Blend: AUG-CC-PVTZ
  Basis Set: (AUG-CC-PVTZ AUX)
    Blend: AUG-CC-PVTZ-JKFIT

    Orbital Energies [Eh]
    ---------------------

    Doubly Occupied:

       1A    -20.506077     2A    -15.620098     3A    -11.349930
       4A    -11.308765     5A    -11.271995     6A    -11.269890
       7A    -11.247012     8A    -11.240043     9A    -11.227378
      10A    -11.226944    11A     -1.366170    12A     -1.271532
      13A     -1.122197    14A     -1.049362    15A     -1.020074
      16A     -0.949089    17A     -0.892623    18A     -0.851139
      19A     -0.800172    20A     -0.709093    21A     -0.694303
      22A     -0.653077    23A     -0.640643    24A     -0.624324
      25A     -0.611579    26A     -0.600222    27A     -0.563294
      28A     -0.560159    29A     -0.546816    30A     -0.543532
      31A     -0.522389    32A     -0.503045    33A     -0.484666
      34A     -0.471051    35A     -0.417823    36A     -0.405354
      37A     -0.307665

  @DF-RHF Final Energy:  -438.79641769881562

   => Energetics <=

    Nuclear Repulsion Energy =            527.1418582971751903
    One-Electron Energy =               -1640.9774994887502544
    Two-Electron Energy =                 675.0392234927595609
    Total Energy =                       -438.7964176988156169
  Basis Set: (AUG-CC-PVTZ AUX)
    Blend: AUG-CC-PVTZ-RI
    Molecular point group: c1

    Geometry (in Angstrom), charge = 0, multiplicity = 1:

       Center              X                  Y                   Z               Mass
    ------------   -----------------  -----------------  -----------------  -----------------
         O            0.190979961330     2.205074164392     0.021872845381    15.994914619570
         N           -0.213241038670    -0.077338835608     0.021880845381    14.003074004430
         C           -1.668871038670     0.181139164392     0.021878845381    12.000000000000
         C           -2.310261038670    -0.358668835608     1.294508845381    12.000000000000
         C           -2.310269038670    -0.358715835608    -1.250727154619    12.000000000000
         C            0.646408961330     1.051267164392     0.021877845381    12.000000000000
         C            0.246330361330    -1.365518135608    -0.228110154619    12.000000000000
         C            2.052990961330     0.714702164392     0.021879845381    12.000000000000
         C            1.582547961330    -1.655721835608     0.021893845381    12.000000000000
         C            2.503513961330    -0.577503835608     0.021887845381    12.000000000000
         H           -1.734692038670     1.270772164392     0.021859845381     1.007825032230
         H           -3.365125038670    -0.069704835608     1.326815845381     1.007825032230
         H           -2.260874038670    -1.450963835608     1.341765845381     1.007825032230
         H           -1.812601038670     0.051931164392     2.176758845381     1.007825032230
         H           -1.812610038670     0.051845164392    -2.132996154619     1.007825032230
         H           -3.365131038670    -0.069743835608    -1.283041154619     1.007825032230
         H           -2.260893038670    -1.451011835608    -1.297941154619     1.007825032230
         H           -0.514295038670    -2.139695835608     0.021894845381     1.007825032230
         H            2.735258961330     1.558810164392     0.021875845381     1.007825032230
         H            1.910452961330    -2.689012835608     0.021901845381     1.007825032230
         H            3.572840961330    -0.777264835608     0.021890845381     1.007825032230

  Basis Set: AUG-CC-PVTZ
    Blend: AUG-CC-PVTZ
  Basis Set: (AUG-CC-PVTZ AUX)
    Blend: AUG-CC-PVTZ-JKFIT
	 Reference Energy          =    -438.7964176988156169 [Eh]
	 Singles Energy            =      -0.0000000000000000 [Eh]
	 Same-Spin Energy          =      -0.4694535585048615 [Eh]
	 Opposite-Spin Energy      =      -1.5013267248047368 [Eh]
	 Correlation Energy        =      -1.9707802833095984 [Eh]
	 Total Energy              =    -440.7671979821251966 [Eh]

	 ================> DF-SCS-MP2 Energies <==================
	-----------------------------------------------------------
	 SCS Same-Spin Scale       =       0.3333333333333333 [-]
	 SCS Opposite-Spin Scale   =       1.2000000000000000 [-]
	 SCS Same-Spin Energy      =      -0.1564845195016205 [Eh]
	 SCS Opposite-Spin Energy  =      -1.8015920697656842 [Eh]
	 SCS Correlation Energy    =      -1.9580765892673047 [Eh]
	 SCS Total Energy          =    -440.7544942880829240 [Eh]
	-----------------------------------------------------------

  Dipole Moment: [D]
     X:    -0.4544      Y:    -3.8031      Z:     0.0897     Total:     3.8312

*** Psi4 exiting successfully. Buy a developer a beer!
