                               Psi4 1.3.2 release

  ==> Input File <==

--------------------------------------------------------------------------
#psi4
#
memory 32 gb

molecule  {
0 1
  O        0.2506850     2.2433030    -0.0000120
  N       -0.1535360    -0.0391100    -0.0000040
  C       -1.6091660     0.2193680    -0.0000060
  C       -2.2505560    -0.3204400     1.2726240
  C       -2.2505640    -0.3204870    -1.2726120
  C        0.7061140     1.0894960    -0.0000070
  C        0.3060350    -1.3272880     0.0000050
  C        2.1126959     0.7529315     0.1499950
  C        1.6422530    -1.6174930     0.0000090
  C        2.5632190    -0.5392750     0.0000030
  H       -1.6749870     1.3090010    -0.0000250
  H       -3.3054200    -0.0314760     1.3049310
  H       -2.2011690    -1.4127350     1.3198810
  H       -1.7528960     0.0901600     2.1548740
  H       -1.7529050     0.0900740    -2.1548810
  H       -3.3054260    -0.0315150    -1.3049260
  H       -2.2011880    -1.4127830    -1.3198260
  H       -0.4545900    -2.1014670     0.0000100
  H        2.7949640     1.5970390    -0.0000090
  H        1.9701580    -2.6507840     0.0000170
  H        3.6325460    -0.7390360     0.0000060
units angstrom
no_reorient  #important for SAPT in psi4, default
symmetry c1  #important for SAPT in psi4, default
}

set PROPERTIES_ORIGIN ["COM"]
properties('MP2/aug-cc-pvtz', properties = ['dipole'])
--------------------------------------------------------------------------

    Molecular point group: c1
  Charge       = 0
  Multiplicity = 1
  Basis Set: AUG-CC-PVTZ
    Blend: AUG-CC-PVTZ
  Basis Set: (AUG-CC-PVTZ AUX)
    Blend: AUG-CC-PVTZ-JKFIT

    Orbital Energies [Eh]
    ---------------------

    Doubly Occupied:

       1A    -20.505877     2A    -15.621673     3A    -11.350702
       4A    -11.306879     5A    -11.274396     6A    -11.271060
       7A    -11.238525     8A    -11.236516     9A    -11.229068
      10A    -11.228852    11A     -1.367074    12A     -1.277902
      13A     -1.121883    14A     -1.051103    15A     -1.021723
      16A     -0.950869    17A     -0.892698    18A     -0.855157
      19A     -0.803569    20A     -0.711197    21A     -0.698463
      22A     -0.654791    23A     -0.639480    24A     -0.628387
      25A     -0.613031    26A     -0.603303    27A     -0.564383
      28A     -0.562265    29A     -0.548130    30A     -0.541964
      31A     -0.523859    32A     -0.504700    33A     -0.486549
      34A     -0.473595    35A     -0.417274    36A     -0.405837
      37A     -0.307583

  @DF-RHF Final Energy:  -438.81190151343958

   => Energetics <=

    Nuclear Repulsion Energy =            527.6590870599778782
    One-Electron Energy =               -1641.9613427383787894
    Two-Electron Energy =                 675.4903541649612180
    Total Energy =                       -438.8119015134395795
  Basis Set: (AUG-CC-PVTZ AUX)
    Blend: AUG-CC-PVTZ-RI
    Molecular point group: c1

    Geometry (in Angstrom), charge = 0, multiplicity = 1:

       Center              X                  Y                   Z               Mass
    ------------   -----------------  -----------------  -----------------  -----------------
         O            0.190980005099     2.205074006825    -0.013142165560    15.994914619570
         N           -0.213240994901    -0.077338993175    -0.013134165560    14.003074004430
         C           -1.668870994901     0.181139006825    -0.013136165560    12.000000000000
         C           -2.310260994901    -0.358668993175     1.259493834440    12.000000000000
         C           -2.310268994901    -0.358715993175    -1.285742165560    12.000000000000
         C            0.646409005099     1.051267006825    -0.013137165560    12.000000000000
         C            0.246330005099    -1.365516993175    -0.013125165560    12.000000000000
         C            2.052990905099     0.714702506825     0.136864834440    12.000000000000
         C            1.582548005099    -1.655721993175    -0.013121165560    12.000000000000
         C            2.503514005099    -0.577503993175    -0.013127165560    12.000000000000
         H           -1.734691994901     1.270772006825    -0.013155165560     1.007825032230
         H           -3.365124994901    -0.069704993175     1.291800834440     1.007825032230
         H           -2.260873994901    -1.450963993175     1.306750834440     1.007825032230
         H           -1.812600994901     0.051931006825     2.141743834440     1.007825032230
         H           -1.812609994901     0.051845006825    -2.168011165560     1.007825032230
         H           -3.365130994901    -0.069743993175    -1.318056165560     1.007825032230
         H           -2.260892994901    -1.451011993175    -1.332956165560     1.007825032230
         H           -0.514294994901    -2.139695993175    -0.013120165560     1.007825032230
         H            2.735259005099     1.558810006825    -0.013139165560     1.007825032230
         H            1.910453005099    -2.689012993175    -0.013113165560     1.007825032230
         H            3.572841005099    -0.777264993175    -0.013124165560     1.007825032230

  Basis Set: AUG-CC-PVTZ
    Blend: AUG-CC-PVTZ
  Basis Set: (AUG-CC-PVTZ AUX)
    Blend: AUG-CC-PVTZ-JKFIT
	 Reference Energy          =    -438.8119015134395795 [Eh]
	 Singles Energy            =      -0.0000000000000000 [Eh]
	 Same-Spin Energy          =      -0.4681791969644962 [Eh]
	 Opposite-Spin Energy      =      -1.4978659222508917 [Eh]
	 Correlation Energy        =      -1.9660451192153878 [Eh]
	 Total Energy              =    -440.7779466326549596 [Eh]

	 ================> DF-SCS-MP2 Energies <==================
	-----------------------------------------------------------
	 SCS Same-Spin Scale       =       0.3333333333333333 [-]
	 SCS Opposite-Spin Scale   =       1.2000000000000000 [-]
	 SCS Same-Spin Energy      =      -0.1560597323214987 [Eh]
	 SCS Opposite-Spin Energy  =      -1.7974391067010700 [Eh]
	 SCS Correlation Energy    =      -1.9534988390225687 [Eh]
	 SCS Total Energy          =    -440.7654003524621658 [Eh]
	-----------------------------------------------------------

  Dipole Moment: [D]
     X:    -0.7081      Y:    -3.8879      Z:    -0.0830     Total:     3.9528

*** Psi4 exiting successfully. Buy a developer a beer!
