                               Psi4 1.3.2 release

  ==> Input File <==

--------------------------------------------------------------------------
#psi4
#
memory 32 gb

molecule  {
0 1
  O        0.2506850     2.2433030    -0.0000120
  N       -0.1535360    -0.0391100    -0.0000040
  C       -1.6091660     0.2193680    -0.0000060
  C       -2.2505560    -0.3204400     1.2726240
  C       -2.2505640    -0.3204870    -1.2726120
  C        0.7061140     1.0894960    -0.0000070
  C        0.3060350    -1.3272880     0.0000050
  C        2.1126960     0.7529310    -0.0000050
  C        1.6422530    -1.6174930     0.0000090
  C        2.5632190    -0.5392750     0.0000030
  H       -1.6749870     1.3090010    -0.0000250
  H       -3.3054200    -0.0314760     1.3049310
  H       -2.2011690    -1.4127350     1.3198810
  H       -1.7528960     0.0901600     2.1548740
  H       -1.7529050     0.0900740    -2.1548810
  H       -3.3054260    -0.0315150    -1.3049260
  H       -2.2011880    -1.4127830    -1.3198260
  H       -0.4545900    -2.1014670     0.0000100
  H        2.7949640     1.5970396     0.0999910
  H        1.9701580    -2.6507840     0.0000170
  H        3.6325460    -0.7390360     0.0000060
units angstrom
no_reorient  #important for SAPT in psi4, default
symmetry c1  #important for SAPT in psi4, default
}

set PROPERTIES_ORIGIN ["COM"]
properties('MP2/aug-cc-pvtz', properties = ['dipole'])
--------------------------------------------------------------------------

    Molecular point group: c1
  Charge       = 0
  Multiplicity = 1
  Basis Set: AUG-CC-PVTZ
    Blend: AUG-CC-PVTZ
  Basis Set: (AUG-CC-PVTZ AUX)
    Blend: AUG-CC-PVTZ-JKFIT

    Orbital Energies [Eh]
    ---------------------

    Doubly Occupied:

       1A    -20.505457     2A    -15.621517     3A    -11.349977
       4A    -11.305726     5A    -11.274203     6A    -11.269016
       7A    -11.238366     8A    -11.235609     9A    -11.228793
      10A    -11.228775    11A     -1.367011    12A     -1.277643
      13A     -1.122546    14A     -1.051275    15A     -1.022482
      16A     -0.950683    17A     -0.893195    18A     -0.855838
      19A     -0.803757    20A     -0.711433    21A     -0.699570
      22A     -0.655246    23A     -0.640578    24A     -0.628144
      25A     -0.612983    26A     -0.604188    27A     -0.564483
      28A     -0.562191    29A     -0.548302    30A     -0.543122
      31A     -0.524236    32A     -0.504575    33A     -0.486773
      34A     -0.473805    35A     -0.417796    36A     -0.406492
      37A     -0.307154

  @DF-RHF Final Energy:  -438.81738178260321

   => Energetics <=

    Nuclear Repulsion Energy =            527.8998489307717819
    One-Electron Energy =               -1642.4485832818543258
    Two-Electron Energy =                 675.7313525684794513
    Total Energy =                       -438.8173817826032064
  Basis Set: (AUG-CC-PVTZ AUX)
    Blend: AUG-CC-PVTZ-RI
    Molecular point group: c1

    Geometry (in Angstrom), charge = 0, multiplicity = 1:

       Center              X                  Y                   Z               Mass
    ------------   -----------------  -----------------  -----------------  -----------------
         O            0.190979996345     2.205074046183    -0.000746724051    15.994914619570
         N           -0.213241003655    -0.077338953817    -0.000738724051    14.003074004430
         C           -1.668871003655     0.181139046183    -0.000740724051    12.000000000000
         C           -2.310261003655    -0.358668953817     1.271889275949    12.000000000000
         C           -2.310269003655    -0.358715953817    -1.273346724051    12.000000000000
         C            0.646408996345     1.051267046183    -0.000741724051    12.000000000000
         C            0.246329996345    -1.365516953817    -0.000729724051    12.000000000000
         C            2.052990996345     0.714702046183    -0.000739724051    12.000000000000
         C            1.582547996345    -1.655721953817    -0.000725724051    12.000000000000
         C            2.503513996345    -0.577503953817    -0.000731724051    12.000000000000
         H           -1.734692003655     1.270772046183    -0.000759724051     1.007825032230
         H           -3.365125003655    -0.069704953817     1.304196275949     1.007825032230
         H           -2.260874003655    -1.450963953817     1.319146275949     1.007825032230
         H           -1.812601003655     0.051931046183     2.154139275949     1.007825032230
         H           -1.812610003655     0.051845046183    -2.155615724051     1.007825032230
         H           -3.365131003655    -0.069743953817    -1.305660724051     1.007825032230
         H           -2.260893003655    -1.451011953817    -1.320560724051     1.007825032230
         H           -0.514295003655    -2.139695953817    -0.000724724051     1.007825032230
         H            2.735258996345     1.558810646183     0.099256275949     1.007825032230
         H            1.910452996345    -2.689012953817    -0.000717724051     1.007825032230
         H            3.572840996345    -0.777264953817    -0.000728724051     1.007825032230

  Basis Set: AUG-CC-PVTZ
    Blend: AUG-CC-PVTZ
  Basis Set: (AUG-CC-PVTZ AUX)
    Blend: AUG-CC-PVTZ-JKFIT
	 Reference Energy          =    -438.8173817826032064 [Eh]
	 Singles Energy            =      -0.0000000000000000 [Eh]
	 Same-Spin Energy          =      -0.4679930078324566 [Eh]
	 Opposite-Spin Energy      =      -1.4973252896599689 [Eh]
	 Correlation Energy        =      -1.9653182974924255 [Eh]
	 Total Energy              =    -440.7827000800956512 [Eh]

	 ================> DF-SCS-MP2 Energies <==================
	-----------------------------------------------------------
	 SCS Same-Spin Scale       =       0.3333333333333333 [-]
	 SCS Opposite-Spin Scale   =       1.2000000000000000 [-]
	 SCS Same-Spin Energy      =      -0.1559976692774855 [Eh]
	 SCS Opposite-Spin Energy  =      -1.7967903475919627 [Eh]
	 SCS Correlation Energy    =      -1.9527880168694483 [Eh]
	 SCS Total Energy          =    -440.7701697994726828 [Eh]
	-----------------------------------------------------------

  Dipole Moment: [D]
     X:    -0.6709      Y:    -3.8738      Z:     0.0617     Total:     3.9319

*** Psi4 exiting successfully. Buy a developer a beer!
