                               Psi4 1.3.2 release

  ==> Input File <==

--------------------------------------------------------------------------
#psi4
#
memory 32 gb

molecule  {
0 1
  O        0.2506850     2.2433030    -0.0000120
  N       -0.1535360    -0.0391100    -0.0000040
  C       -1.6091660     0.2193680    -0.0000060
  C       -2.2505560    -0.3204400     1.2726240
  C       -2.2505640    -0.3204870    -1.2726120
  C        0.7061140     1.0894960    -0.0000070
  C        0.3060350    -1.3272880     0.0000050
  C        2.1126960     0.7529312     0.0499950
  C        1.6422530    -1.6174930     0.0000090
  C        2.5632190    -0.5392750     0.0000030
  H       -1.6749870     1.3090010    -0.0000250
  H       -3.3054200    -0.0314760     1.3049310
  H       -2.2011690    -1.4127350     1.3198810
  H       -1.7528960     0.0901600     2.1548740
  H       -1.7529050     0.0900740    -2.1548810
  H       -3.3054260    -0.0315150    -1.3049260
  H       -2.2011880    -1.4127830    -1.3198260
  H       -0.4545900    -2.1014670     0.0000100
  H        2.7949640     1.5970390    -0.0000090
  H        1.9701580    -2.6507840     0.0000170
  H        3.6325460    -0.7390360     0.0000060
units angstrom
no_reorient  #important for SAPT in psi4, default
symmetry c1  #important for SAPT in psi4, default
}

set PROPERTIES_ORIGIN ["COM"]
properties('MP2/aug-cc-pvtz', properties = ['dipole'])
--------------------------------------------------------------------------

    Molecular point group: c1
  Charge       = 0
  Multiplicity = 1
  Basis Set: AUG-CC-PVTZ
    Blend: AUG-CC-PVTZ
  Basis Set: (AUG-CC-PVTZ AUX)
    Blend: AUG-CC-PVTZ-JKFIT

    Orbital Energies [Eh]
    ---------------------

    Doubly Occupied:

       1A    -20.505478     2A    -15.621496     3A    -11.350038
       4A    -11.305764     5A    -11.274201     6A    -11.269167
       7A    -11.238344     8A    -11.235382     9A    -11.228818
      10A    -11.228741    11A     -1.367000    12A     -1.277635
      13A     -1.122456    14A     -1.051248    15A     -1.022437
      16A     -0.950680    17A     -0.893197    18A     -0.855803
      19A     -0.803837    20A     -0.711433    21A     -0.699417
      22A     -0.655419    23A     -0.640691    24A     -0.628176
      25A     -0.612977    26A     -0.604201    27A     -0.564436
      28A     -0.562140    29A     -0.547965    30A     -0.543613
      31A     -0.524283    32A     -0.504606    33A     -0.486784
      34A     -0.473757    35A     -0.417694    36A     -0.406536
      37A     -0.307192

  @DF-RHF Final Energy:  -438.81730655586296

   => Energetics <=

    Nuclear Repulsion Energy =            527.8893483029421532
    One-Electron Energy =               -1642.4272209228051906
    Two-Electron Energy =                 675.7205660640000815
    Total Energy =                       -438.8173065558629560
  Basis Set: (AUG-CC-PVTZ AUX)
    Blend: AUG-CC-PVTZ-RI
    Molecular point group: c1

    Geometry (in Angstrom), charge = 0, multiplicity = 1:

       Center              X                  Y                   Z               Mass
    ------------   -----------------  -----------------  -----------------  -----------------
         O            0.190979996345     2.205074033086    -0.004388412825    15.994914619570
         N           -0.213241003655    -0.077338966914    -0.004380412825    14.003074004430
         C           -1.668871003655     0.181139033086    -0.004382412825    12.000000000000
         C           -2.310261003655    -0.358668966914     1.268247587175    12.000000000000
         C           -2.310269003655    -0.358715966914    -1.276988412825    12.000000000000
         C            0.646408996345     1.051267033086    -0.004383412825    12.000000000000
         C            0.246329996345    -1.365516966914    -0.004371412825    12.000000000000
         C            2.052990996345     0.714702233086     0.045618587175    12.000000000000
         C            1.582547996345    -1.655721966914    -0.004367412825    12.000000000000
         C            2.503513996345    -0.577503966914    -0.004373412825    12.000000000000
         H           -1.734692003655     1.270772033086    -0.004401412825     1.007825032230
         H           -3.365125003655    -0.069704966914     1.300554587175     1.007825032230
         H           -2.260874003655    -1.450963966914     1.315504587175     1.007825032230
         H           -1.812601003655     0.051931033086     2.150497587175     1.007825032230
         H           -1.812610003655     0.051845033086    -2.159257412825     1.007825032230
         H           -3.365131003655    -0.069743966914    -1.309302412825     1.007825032230
         H           -2.260893003655    -1.451011966914    -1.324202412825     1.007825032230
         H           -0.514295003655    -2.139695966914    -0.004366412825     1.007825032230
         H            2.735258996345     1.558810033086    -0.004385412825     1.007825032230
         H            1.910452996345    -2.689012966914    -0.004359412825     1.007825032230
         H            3.572840996345    -0.777264966914    -0.004370412825     1.007825032230

  Basis Set: AUG-CC-PVTZ
    Blend: AUG-CC-PVTZ
  Basis Set: (AUG-CC-PVTZ AUX)
    Blend: AUG-CC-PVTZ-JKFIT
	 Reference Energy          =    -438.8173065558629560 [Eh]
	 Singles Energy            =      -0.0000000000000000 [Eh]
	 Same-Spin Energy          =      -0.4679886657657504 [Eh]
	 Opposite-Spin Energy      =      -1.4973189510774314 [Eh]
	 Correlation Energy        =      -1.9653076168431818 [Eh]
	 Total Energy              =    -440.7826141727061326 [Eh]

	 ================> DF-SCS-MP2 Energies <==================
	-----------------------------------------------------------
	 SCS Same-Spin Scale       =       0.3333333333333333 [-]
	 SCS Opposite-Spin Scale   =       1.2000000000000000 [-]
	 SCS Same-Spin Energy      =      -0.1559962219219168 [Eh]
	 SCS Opposite-Spin Energy  =      -1.7967827412929176 [Eh]
	 SCS Correlation Energy    =      -1.9527789632148345 [Eh]
	 SCS Total Energy          =    -440.7700855190777816 [Eh]
	-----------------------------------------------------------

  Dipole Moment: [D]
     X:    -0.6703      Y:    -3.8717      Z:    -0.0269     Total:     3.9294

*** Psi4 exiting successfully. Buy a developer a beer!
