                               Psi4 1.3.2 release

  ==> Input File <==

--------------------------------------------------------------------------
#psi4
#
memory 32 gb

molecule  {
0 1
  O        0.2506850     2.2433030    -0.0000120
  N       -0.1535360    -0.0391100    -0.0000040
  C       -1.6091660     0.2193680    -0.0000060
  C       -2.2505560    -0.3204400     1.2726240
  C       -2.2505640    -0.3204870    -1.2726120
  C        0.7061140     1.0894960    -0.0000070
  C        0.3060353    -1.3272890    -0.1999950
  C        2.1126960     0.7529310    -0.0000050
  C        1.6422530    -1.6174930     0.0000090
  C        2.5632190    -0.5392750     0.0000030
  H       -1.6749870     1.3090010    -0.0000250
  H       -3.3054200    -0.0314760     1.3049310
  H       -2.2011690    -1.4127350     1.3198810
  H       -1.7528960     0.0901600     2.1548740
  H       -1.7529050     0.0900740    -2.1548810
  H       -3.3054260    -0.0315150    -1.3049260
  H       -2.2011880    -1.4127830    -1.3198260
  H       -0.4545900    -2.1014670     0.0000100
  H        2.7949640     1.5970390    -0.0000090
  H        1.9701580    -2.6507840     0.0000170
  H        3.6325460    -0.7390360     0.0000060
units angstrom
no_reorient  #important for SAPT in psi4, default
symmetry c1  #important for SAPT in psi4, default
}

set PROPERTIES_ORIGIN ["COM"]
properties('MP2/aug-cc-pvtz', properties = ['dipole'])
--------------------------------------------------------------------------

    Molecular point group: c1
  Charge       = 0
  Multiplicity = 1
  Basis Set: AUG-CC-PVTZ
    Blend: AUG-CC-PVTZ
  Basis Set: (AUG-CC-PVTZ AUX)
    Blend: AUG-CC-PVTZ-JKFIT

    Orbital Energies [Eh]
    ---------------------

    Doubly Occupied:

       1A    -20.505821     2A    -15.620641     3A    -11.349919
       4A    -11.307731     5A    -11.272781     6A    -11.269521
       7A    -11.243895     8A    -11.238275     9A    -11.227961
      10A    -11.227527    11A     -1.366427    12A     -1.273703
      13A     -1.122275    14A     -1.050049    15A     -1.020943
      16A     -0.949663    17A     -0.892853    18A     -0.852765
      19A     -0.801432    20A     -0.709699    21A     -0.696199
      22A     -0.653886    23A     -0.640868    24A     -0.625556
      25A     -0.612088    26A     -0.601712    27A     -0.563744
      28A     -0.560856    29A     -0.547105    30A     -0.543824
      31A     -0.523108    32A     -0.503610    33A     -0.485462
      34A     -0.472013    35A     -0.417784    36A     -0.405775
      37A     -0.307451

  @DF-RHF Final Energy:  -438.80419674730456

   => Energetics <=

    Nuclear Repulsion Energy =            527.4176708740942559
    One-Electron Energy =               -1641.5138926175263805
    Two-Electron Energy =                 675.2920249961275658
    Total Energy =                       -438.8041967473045588
  Basis Set: (AUG-CC-PVTZ AUX)
    Blend: AUG-CC-PVTZ-RI
    Molecular point group: c1

    Geometry (in Angstrom), charge = 0, multiplicity = 1:

       Center              X                  Y                   Z               Mass
    ------------   -----------------  -----------------  -----------------  -----------------
         O            0.190979970084     2.205074138131     0.017495969013    15.994914619570
         N           -0.213241029916    -0.077338861869     0.017503969013    14.003074004430
         C           -1.668871029916     0.181139138131     0.017501969013    12.000000000000
         C           -2.310261029916    -0.358668861869     1.290131969013    12.000000000000
         C           -2.310269029916    -0.358715861869    -1.255104030987    12.000000000000
         C            0.646408970084     1.051267138131     0.017500969013    12.000000000000
         C            0.246330270084    -1.365517861869    -0.182487030987    12.000000000000
         C            2.052990970084     0.714702138131     0.017502969013    12.000000000000
         C            1.582547970084    -1.655721861869     0.017516969013    12.000000000000
         C            2.503513970084    -0.577503861869     0.017510969013    12.000000000000
         H           -1.734692029916     1.270772138131     0.017482969013     1.007825032230
         H           -3.365125029916    -0.069704861869     1.322438969013     1.007825032230
         H           -2.260874029916    -1.450963861869     1.337388969013     1.007825032230
         H           -1.812601029916     0.051931138131     2.172381969013     1.007825032230
         H           -1.812610029916     0.051845138131    -2.137373030987     1.007825032230
         H           -3.365131029916    -0.069743861869    -1.287418030987     1.007825032230
         H           -2.260893029916    -1.451011861869    -1.302318030987     1.007825032230
         H           -0.514295029916    -2.139695861869     0.017517969013     1.007825032230
         H            2.735258970084     1.558810138131     0.017498969013     1.007825032230
         H            1.910452970084    -2.689012861869     0.017524969013     1.007825032230
         H            3.572840970084    -0.777264861869     0.017513969013     1.007825032230

  Basis Set: AUG-CC-PVTZ
    Blend: AUG-CC-PVTZ
  Basis Set: (AUG-CC-PVTZ AUX)
    Blend: AUG-CC-PVTZ-JKFIT
	 Reference Energy          =    -438.8041967473045588 [Eh]
	 Singles Energy            =      -0.0000000000000000 [Eh]
	 Same-Spin Energy          =      -0.4689280475521347 [Eh]
	 Opposite-Spin Energy      =      -1.4998224980428665 [Eh]
	 Correlation Energy        =      -1.9687505455950012 [Eh]
	 Total Energy              =    -440.7729472928995733 [Eh]

	 ================> DF-SCS-MP2 Energies <==================
	-----------------------------------------------------------
	 SCS Same-Spin Scale       =       0.3333333333333333 [-]
	 SCS Opposite-Spin Scale   =       1.2000000000000000 [-]
	 SCS Same-Spin Energy      =      -0.1563093491840449 [Eh]
	 SCS Opposite-Spin Energy  =      -1.7997869976514398 [Eh]
	 SCS Correlation Energy    =      -1.9560963468354846 [Eh]
	 SCS Total Energy          =    -440.7602930941400246 [Eh]
	-----------------------------------------------------------

  Dipole Moment: [D]
     X:    -0.5283      Y:    -3.8267      Z:     0.0673     Total:     3.8636

*** Psi4 exiting successfully. Buy a developer a beer!
