                               Psi4 1.3.2 release

  ==> Input File <==

--------------------------------------------------------------------------
#psi4
#
memory 32 gb

molecule  {
0 1
  O        0.2506850     2.2433030    -0.0000120
  N       -0.1535360    -0.0391100    -0.0000040
  C       -1.6091660     0.2193680    -0.0000060
  C       -2.2505560    -0.3204400     1.2726240
  C       -2.2505640    -0.3204870    -1.2726120
  C        0.7061140     1.0894960    -0.0000070
  C        0.3060350    -1.3272880     0.0000050
  C        2.1126960     0.7529310    -0.0000050
  C        1.6422530    -1.6174930     0.0000090
  C        2.5632190    -0.5392750     0.0000030
  H       -1.6749870     1.3090010    -0.0000250
  H       -3.3054200    -0.0314760     1.3049310
  H       -2.2011690    -1.4127350     1.3198810
  H       -1.7528960     0.0901600     2.1548740
  H       -1.7529050     0.0900740    -2.1548810
  H       -3.3054260    -0.0315150    -1.3049260
  H       -2.2011880    -1.4127830    -1.3198260
  H       -0.4545900    -2.1014670     0.0000100
  H        2.7949640     1.5970393     0.0499910
  H        1.9701580    -2.6507840     0.0000170
  H        3.6325460    -0.7390360     0.0000060
units angstrom
no_reorient  #important for SAPT in psi4, default
symmetry c1  #important for SAPT in psi4, default
}

set PROPERTIES_ORIGIN ["COM"]
properties('MP2/aug-cc-pvtz', properties = ['dipole'])
--------------------------------------------------------------------------

    Molecular point group: c1
  Charge       = 0
  Multiplicity = 1
  Basis Set: AUG-CC-PVTZ
    Blend: AUG-CC-PVTZ
  Basis Set: (AUG-CC-PVTZ AUX)
    Blend: AUG-CC-PVTZ-JKFIT

    Orbital Energies [Eh]
    ---------------------

    Doubly Occupied:

       1A    -20.505436     2A    -15.621485     3A    -11.349959
       4A    -11.305651     5A    -11.274184     6A    -11.268950
       7A    -11.238333     8A    -11.235332     9A    -11.228772
      10A    -11.228756    11A     -1.366997    12A     -1.277613
      13A     -1.122534    14A     -1.051270    15A     -1.022514
      16A     -0.950664    17A     -0.893245    18A     -0.855875
      19A     -0.803843    20A     -0.711462    21A     -0.699545
      22A     -0.655441    23A     -0.640778    24A     -0.628148
      25A     -0.612976    26A     -0.604282    27A     -0.564453
      28A     -0.562142    29A     -0.548039    30A     -0.543641
      31A     -0.524307    32A     -0.504590    33A     -0.486801
      34A     -0.473784    35A     -0.417759    36A     -0.406592
      37A     -0.307147

  @DF-RHF Final Energy:  -438.81783038349226

   => Energetics <=

    Nuclear Repulsion Energy =            527.9137028003467549
    One-Electron Energy =               -1642.4764668201823952
    Two-Electron Energy =                 675.7449336363433758
    Total Energy =                       -438.8178303834922644
  Basis Set: (AUG-CC-PVTZ AUX)
    Blend: AUG-CC-PVTZ-RI
    Molecular point group: c1

    Geometry (in Angstrom), charge = 0, multiplicity = 1:

       Center              X                  Y                   Z               Mass
    ------------   -----------------  -----------------  -----------------  -----------------
         O            0.190979996345     2.205074048388    -0.000379130254    15.994914619570
         N           -0.213241003655    -0.077338951612    -0.000371130254    14.003074004430
         C           -1.668871003655     0.181139048388    -0.000373130254    12.000000000000
         C           -2.310261003655    -0.358668951612     1.272256869746    12.000000000000
         C           -2.310269003655    -0.358715951612    -1.272979130254    12.000000000000
         C            0.646408996345     1.051267048388    -0.000374130254    12.000000000000
         C            0.246329996345    -1.365516951612    -0.000362130254    12.000000000000
         C            2.052990996345     0.714702048388    -0.000372130254    12.000000000000
         C            1.582547996345    -1.655721951612    -0.000358130254    12.000000000000
         C            2.503513996345    -0.577503951612    -0.000364130254    12.000000000000
         H           -1.734692003655     1.270772048388    -0.000392130254     1.007825032230
         H           -3.365125003655    -0.069704951612     1.304563869746     1.007825032230
         H           -2.260874003655    -1.450963951612     1.319513869746     1.007825032230
         H           -1.812601003655     0.051931048388     2.154506869746     1.007825032230
         H           -1.812610003655     0.051845048388    -2.155248130254     1.007825032230
         H           -3.365131003655    -0.069743951612    -1.305293130254     1.007825032230
         H           -2.260893003655    -1.451011951612    -1.320193130254     1.007825032230
         H           -0.514295003655    -2.139695951612    -0.000357130254     1.007825032230
         H            2.735258996345     1.558810348388     0.049623869746     1.007825032230
         H            1.910452996345    -2.689012951612    -0.000350130254     1.007825032230
         H            3.572840996345    -0.777264951612    -0.000361130254     1.007825032230

  Basis Set: AUG-CC-PVTZ
    Blend: AUG-CC-PVTZ
  Basis Set: (AUG-CC-PVTZ AUX)
    Blend: AUG-CC-PVTZ-JKFIT
	 Reference Energy          =    -438.8178303834922644 [Eh]
	 Singles Energy            =      -0.0000000000000000 [Eh]
	 Same-Spin Energy          =      -0.4679734020135669 [Eh]
	 Opposite-Spin Energy      =      -1.4972884436217528 [Eh]
	 Correlation Energy        =      -1.9652618456353197 [Eh]
	 Total Energy              =    -440.7830922291275897 [Eh]

	 ================> DF-SCS-MP2 Energies <==================
	-----------------------------------------------------------
	 SCS Same-Spin Scale       =       0.3333333333333333 [-]
	 SCS Opposite-Spin Scale   =       1.2000000000000000 [-]
	 SCS Same-Spin Energy      =      -0.1559911340045223 [Eh]
	 SCS Opposite-Spin Energy  =      -1.7967461323461034 [Eh]
	 SCS Correlation Energy    =      -1.9527372663506257 [Eh]
	 SCS Total Energy          =    -440.7705676498429170 [Eh]
	-----------------------------------------------------------

  Dipole Moment: [D]
     X:    -0.6669      Y:    -3.8707      Z:     0.0309     Total:     3.9278

*** Psi4 exiting successfully. Buy a developer a beer!
