                               Psi4 1.3.2 release

  ==> Input File <==

--------------------------------------------------------------------------
#psi4
#
memory 32 gb

molecule  {
0 1
  O        0.2506850     2.2433030    -0.0000120
  N       -0.1535360    -0.0391100    -0.0000040
  C       -1.6091660     0.2193680    -0.0000060
  C       -2.2505560    -0.3204400     1.2726240
  C       -2.2505640    -0.3204870    -1.2726120
  C        0.7061140     1.0894960    -0.0000070
  C        0.3060350    -1.3272880     0.0000050
  C        2.1126959     0.7529314     0.0999950
  C        1.6422530    -1.6174930     0.0000090
  C        2.5632190    -0.5392750     0.0000030
  H       -1.6749870     1.3090010    -0.0000250
  H       -3.3054200    -0.0314760     1.3049310
  H       -2.2011690    -1.4127350     1.3198810
  H       -1.7528960     0.0901600     2.1548740
  H       -1.7529050     0.0900740    -2.1548810
  H       -3.3054260    -0.0315150    -1.3049260
  H       -2.2011880    -1.4127830    -1.3198260
  H       -0.4545900    -2.1014670     0.0000100
  H        2.7949640     1.5970390    -0.0000090
  H        1.9701580    -2.6507840     0.0000170
  H        3.6325460    -0.7390360     0.0000060
units angstrom
no_reorient  #important for SAPT in psi4, default
symmetry c1  #important for SAPT in psi4, default
}

set PROPERTIES_ORIGIN ["COM"]
properties('MP2/aug-cc-pvtz', properties = ['dipole'])
--------------------------------------------------------------------------

    Molecular point group: c1
  Charge       = 0
  Multiplicity = 1
  Basis Set: AUG-CC-PVTZ
    Blend: AUG-CC-PVTZ
  Basis Set: (AUG-CC-PVTZ AUX)
    Blend: AUG-CC-PVTZ-JKFIT

    Orbital Energies [Eh]
    ---------------------

    Doubly Occupied:

       1A    -20.505625     2A    -15.621561     3A    -11.350290
       4A    -11.306180     5A    -11.274274     6A    -11.269881
       7A    -11.238410     8A    -11.235810     9A    -11.228922
      10A    -11.228772    11A     -1.367026    12A     -1.277733
      13A     -1.122236    14A     -1.051192    15A     -1.022172
      16A     -0.950751    17A     -0.893006    18A     -0.855556
      19A     -0.803732    20A     -0.711330    21A     -0.699059
      22A     -0.655167    23A     -0.640234    24A     -0.628254
      25A     -0.612993    26A     -0.603864    27A     -0.564416
      28A     -0.562186    29A     -0.548040    30A     -0.542979
      31A     -0.524134    32A     -0.504640    33A     -0.486700
      34A     -0.473694    35A     -0.417538    36A     -0.406271
      37A     -0.307337

  @DF-RHF Final Energy:  -438.81528782260614

   => Energetics <=

    Nuclear Repulsion Energy =            527.8026495909773530
    One-Electron Energy =               -1642.2519395690526380
    Two-Electron Energy =                 675.6340021554691475
    Total Energy =                       -438.8152878226061375
  Basis Set: (AUG-CC-PVTZ AUX)
    Blend: AUG-CC-PVTZ-RI
    Molecular point group: c1

    Geometry (in Angstrom), charge = 0, multiplicity = 1:

       Center              X                  Y                   Z               Mass
    ------------   -----------------  -----------------  -----------------  -----------------
         O            0.190980005099     2.205074015579    -0.008765289192    15.994914619570
         N           -0.213240994901    -0.077338984421    -0.008757289192    14.003074004430
         C           -1.668870994901     0.181139015579    -0.008759289192    12.000000000000
         C           -2.310260994901    -0.358668984421     1.263870710808    12.000000000000
         C           -2.310268994901    -0.358715984421    -1.281365289192    12.000000000000
         C            0.646409005099     1.051267015579    -0.008760289192    12.000000000000
         C            0.246330005099    -1.365516984421    -0.008748289192    12.000000000000
         C            2.052990905099     0.714702415579     0.091241710808    12.000000000000
         C            1.582548005099    -1.655721984421    -0.008744289192    12.000000000000
         C            2.503514005099    -0.577503984421    -0.008750289192    12.000000000000
         H           -1.734691994901     1.270772015579    -0.008778289192     1.007825032230
         H           -3.365124994901    -0.069704984421     1.296177710808     1.007825032230
         H           -2.260873994901    -1.450963984421     1.311127710808     1.007825032230
         H           -1.812600994901     0.051931015579     2.146120710808     1.007825032230
         H           -1.812609994901     0.051845015579    -2.163634289192     1.007825032230
         H           -3.365130994901    -0.069743984421    -1.313679289192     1.007825032230
         H           -2.260892994901    -1.451011984421    -1.328579289192     1.007825032230
         H           -0.514294994901    -2.139695984421    -0.008743289192     1.007825032230
         H            2.735259005099     1.558810015579    -0.008762289192     1.007825032230
         H            1.910453005099    -2.689012984421    -0.008736289192     1.007825032230
         H            3.572841005099    -0.777264984421    -0.008747289192     1.007825032230

  Basis Set: AUG-CC-PVTZ
    Blend: AUG-CC-PVTZ
  Basis Set: (AUG-CC-PVTZ AUX)
    Blend: AUG-CC-PVTZ-JKFIT
	 Reference Energy          =    -438.8152878226061375 [Eh]
	 Singles Energy            =      -0.0000000000000000 [Eh]
	 Same-Spin Energy          =      -0.4680583028234853 [Eh]
	 Opposite-Spin Energy      =      -1.4974984684164734 [Eh]
	 Correlation Energy        =      -1.9655567712399586 [Eh]
	 Total Energy              =    -440.7808445938460977 [Eh]

	 ================> DF-SCS-MP2 Energies <==================
	-----------------------------------------------------------
	 SCS Same-Spin Scale       =       0.3333333333333333 [-]
	 SCS Opposite-Spin Scale   =       1.2000000000000000 [-]
	 SCS Same-Spin Energy      =      -0.1560194342744951 [Eh]
	 SCS Opposite-Spin Energy  =      -1.7969981620997679 [Eh]
	 SCS Correlation Energy    =      -1.9530175963742631 [Eh]
	 SCS Total Energy          =    -440.7683054189803897 [Eh]
	-----------------------------------------------------------

  Dipole Moment: [D]
     X:    -0.6845      Y:    -3.8779      Z:    -0.0544     Total:     3.9382

*** Psi4 exiting successfully. Buy a developer a beer!
