                               Psi4 1.3.2 release

  ==> Input File <==

--------------------------------------------------------------------------
#psi4
#
memory 32 gb

molecule  {
0 1
  O        0.2506850     2.2433030    -0.0000120
  N       -0.1535360    -0.0391100    -0.0000040
  C       -1.6091660     0.2193680    -0.0000060
  C       -2.2505560    -0.3204400     1.2726240
  C       -2.2505640    -0.3204870    -1.2726120
  C        0.7061140     1.0894960    -0.0000070
  C        0.3060352    -1.3272888    -0.1499950
  C        2.1126960     0.7529310    -0.0000050
  C        1.6422530    -1.6174930     0.0000090
  C        2.5632190    -0.5392750     0.0000030
  H       -1.6749870     1.3090010    -0.0000250
  H       -3.3054200    -0.0314760     1.3049310
  H       -2.2011690    -1.4127350     1.3198810
  H       -1.7528960     0.0901600     2.1548740
  H       -1.7529050     0.0900740    -2.1548810
  H       -3.3054260    -0.0315150    -1.3049260
  H       -2.2011880    -1.4127830    -1.3198260
  H       -0.4545900    -2.1014670     0.0000100
  H        2.7949640     1.5970390    -0.0000090
  H        1.9701580    -2.6507840     0.0000170
  H        3.6325460    -0.7390360     0.0000060
units angstrom
no_reorient  #important for SAPT in psi4, default
symmetry c1  #important for SAPT in psi4, default
}

set PROPERTIES_ORIGIN ["COM"]
properties('MP2/aug-cc-pvtz', properties = ['dipole'])
--------------------------------------------------------------------------

    Molecular point group: c1
  Charge       = 0
  Multiplicity = 1
  Basis Set: AUG-CC-PVTZ
    Blend: AUG-CC-PVTZ
  Basis Set: (AUG-CC-PVTZ AUX)
    Blend: AUG-CC-PVTZ-JKFIT

    Orbital Energies [Eh]
    ---------------------

    Doubly Occupied:

       1A    -20.505639     2A    -15.621027     3A    -11.349924
       4A    -11.306853     5A    -11.273392     6A    -11.269251
       7A    -11.241461     8A    -11.236929     9A    -11.228380
      10A    -11.228003    11A     -1.366657    12A     -1.275403
      13A     -1.122368    14A     -1.050582    15A     -1.021629
      16A     -0.950103    17A     -0.893031    18A     -0.854094
      19A     -0.802467    20A     -0.710338    21A     -0.697691
      22A     -0.654569    23A     -0.640930    24A     -0.626618
      25A     -0.612476    26A     -0.602863    27A     -0.564068
      28A     -0.561405    29A     -0.547428    30A     -0.543893
      31A     -0.523651    32A     -0.504044    33A     -0.486062
      34A     -0.472776    35A     -0.417762    36A     -0.406130
      37A     -0.307305

  @DF-RHF Final Energy:  -438.81023560353407

   => Energetics <=

    Nuclear Repulsion Energy =            527.6350551067653214
    One-Electron Energy =               -1641.9361781445606994
    Two-Electron Energy =                 675.4908874342612535
    Total Energy =                       -438.8102356035341245
  Basis Set: (AUG-CC-PVTZ AUX)
    Blend: AUG-CC-PVTZ-RI
    Molecular point group: c1

    Geometry (in Angstrom), charge = 0, multiplicity = 1:

       Center              X                  Y                   Z               Mass
    ------------   -----------------  -----------------  -----------------  -----------------
         O            0.190979978837     2.205074120624     0.013119092646    15.994914619570
         N           -0.213241021163    -0.077338879376     0.013127092646    14.003074004430
         C           -1.668871021163     0.181139120624     0.013125092646    12.000000000000
         C           -2.310261021163    -0.358668879376     1.285755092646    12.000000000000
         C           -2.310269021163    -0.358715879376    -1.259480907354    12.000000000000
         C            0.646408978837     1.051267120624     0.013124092646    12.000000000000
         C            0.246330178837    -1.365517679376    -0.136863907354    12.000000000000
         C            2.052990978837     0.714702120624     0.013126092646    12.000000000000
         C            1.582547978837    -1.655721879376     0.013140092646    12.000000000000
         C            2.503513978837    -0.577503879376     0.013134092646    12.000000000000
         H           -1.734692021163     1.270772120624     0.013106092646     1.007825032230
         H           -3.365125021163    -0.069704879376     1.318062092646     1.007825032230
         H           -2.260874021163    -1.450963879376     1.333012092646     1.007825032230
         H           -1.812601021163     0.051931120624     2.168005092646     1.007825032230
         H           -1.812610021163     0.051845120624    -2.141749907354     1.007825032230
         H           -3.365131021163    -0.069743879376    -1.291794907354     1.007825032230
         H           -2.260893021163    -1.451011879376    -1.306694907354     1.007825032230
         H           -0.514295021163    -2.139695879376     0.013141092646     1.007825032230
         H            2.735258978837     1.558810120624     0.013122092646     1.007825032230
         H            1.910452978837    -2.689012879376     0.013148092646     1.007825032230
         H            3.572840978837    -0.777264879376     0.013137092646     1.007825032230

  Basis Set: AUG-CC-PVTZ
    Blend: AUG-CC-PVTZ
  Basis Set: (AUG-CC-PVTZ AUX)
    Blend: AUG-CC-PVTZ-JKFIT
	 Reference Energy          =    -438.8102356035340676 [Eh]
	 Singles Energy            =      -0.0000000000000000 [Eh]
	 Same-Spin Energy          =      -0.4685100422395986 [Eh]
	 Opposite-Spin Energy      =      -1.4986606928956872 [Eh]
	 Correlation Energy        =      -1.9671707351352858 [Eh]
	 Total Energy              =    -440.7774063386693797 [Eh]

	 ================> DF-SCS-MP2 Energies <==================
	-----------------------------------------------------------
	 SCS Same-Spin Scale       =       0.3333333333333333 [-]
	 SCS Opposite-Spin Scale   =       1.2000000000000000 [-]
	 SCS Same-Spin Energy      =      -0.1561700140798662 [Eh]
	 SCS Opposite-Spin Energy  =      -1.7983928314748245 [Eh]
	 SCS Correlation Energy    =      -1.9545628455546908 [Eh]
	 SCS Total Energy          =    -440.7647984490887438 [Eh]
	-----------------------------------------------------------

  Dipole Moment: [D]
     X:    -0.5875      Y:    -3.8453      Z:     0.0475     Total:     3.8903

*** Psi4 exiting successfully. Buy a developer a beer!
