                               Psi4 1.3.2 release

  ==> Input File <==

--------------------------------------------------------------------------
#psi4
#
memory 32 gb

molecule  {
0 1
  O        0.2506850     2.2433030    -0.0000120
  N       -0.1535360    -0.0391100    -0.0000040
  C       -1.6091660     0.2193680    -0.0000060
  C       -2.2505560    -0.3204400     1.2726240
  C       -2.2505640    -0.3204870    -1.2726120
  C        0.7061140     1.0894960    -0.0000070
  C        0.3060352    -1.3272885    -0.0999950
  C        2.1126960     0.7529310    -0.0000050
  C        1.6422530    -1.6174930     0.0000090
  C        2.5632190    -0.5392750     0.0000030
  H       -1.6749870     1.3090010    -0.0000250
  H       -3.3054200    -0.0314760     1.3049310
  H       -2.2011690    -1.4127350     1.3198810
  H       -1.7528960     0.0901600     2.1548740
  H       -1.7529050     0.0900740    -2.1548810
  H       -3.3054260    -0.0315150    -1.3049260
  H       -2.2011880    -1.4127830    -1.3198260
  H       -0.4545900    -2.1014670     0.0000100
  H        2.7949640     1.5970390    -0.0000090
  H        1.9701580    -2.6507840     0.0000170
  H        3.6325460    -0.7390360     0.0000060
units angstrom
no_reorient  #important for SAPT in psi4, default
symmetry c1  #important for SAPT in psi4, default
}

set PROPERTIES_ORIGIN ["COM"]
properties('MP2/aug-cc-pvtz', properties = ['dipole'])
--------------------------------------------------------------------------

    Molecular point group: c1
  Charge       = 0
  Multiplicity = 1
  Basis Set: AUG-CC-PVTZ
    Blend: AUG-CC-PVTZ
  Basis Set: (AUG-CC-PVTZ AUX)
    Blend: AUG-CC-PVTZ-JKFIT

    Orbital Energies [Eh]
    ---------------------

    Doubly Occupied:

       1A    -20.505519     2A    -15.621283     3A    -11.349937
       4A    -11.306184     5A    -11.273828     6A    -11.269068
       7A    -11.239718     8A    -11.235984     9A    -11.228645
      10A    -11.228369    11A     -1.366837    12A     -1.276623
      13A     -1.122452    14A     -1.050963    15A     -1.022125
      16A     -0.950412    17A     -0.893158    18A     -0.855078
      19A     -0.803237    20A     -0.710917    21A     -0.698733
      22A     -0.655083    23A     -0.640907    24A     -0.627443
      25A     -0.612752    26A     -0.603674    27A     -0.564282
      28A     -0.561803    29A     -0.547700    30A     -0.543875
      31A     -0.524031    32A     -0.504351    33A     -0.486481
      34A     -0.473329    35A     -0.417751    36A     -0.406400
      37A     -0.307212

  @DF-RHF Final Energy:  -438.81453997183417

   => Energetics <=

    Nuclear Repulsion Energy =            527.7919036588608606
    One-Electron Energy =               -1642.2405925894418033
    Two-Electron Energy =                 675.6341489587466640
    Total Energy =                       -438.8145399718341650
  Basis Set: (AUG-CC-PVTZ AUX)
    Blend: AUG-CC-PVTZ-RI
    Molecular point group: c1

    Geometry (in Angstrom), charge = 0, multiplicity = 1:

       Center              X                  Y                   Z               Mass
    ------------   -----------------  -----------------  -----------------  -----------------
         O            0.190979978837     2.205074094362     0.008742216278    15.994914619570
         N           -0.213241021163    -0.077338905638     0.008750216278    14.003074004430
         C           -1.668871021163     0.181139094362     0.008748216278    12.000000000000
         C           -2.310261021163    -0.358668905638     1.281378216278    12.000000000000
         C           -2.310269021163    -0.358715905638    -1.263857783722    12.000000000000
         C            0.646408978837     1.051267094362     0.008747216278    12.000000000000
         C            0.246330178837    -1.365517405638    -0.091240783722    12.000000000000
         C            2.052990978837     0.714702094362     0.008749216278    12.000000000000
         C            1.582547978837    -1.655721905638     0.008763216278    12.000000000000
         C            2.503513978837    -0.577503905638     0.008757216278    12.000000000000
         H           -1.734692021163     1.270772094362     0.008729216278     1.007825032230
         H           -3.365125021163    -0.069704905638     1.313685216278     1.007825032230
         H           -2.260874021163    -1.450963905638     1.328635216278     1.007825032230
         H           -1.812601021163     0.051931094362     2.163628216278     1.007825032230
         H           -1.812610021163     0.051845094362    -2.146126783722     1.007825032230
         H           -3.365131021163    -0.069743905638    -1.296171783722     1.007825032230
         H           -2.260893021163    -1.451011905638    -1.311071783722     1.007825032230
         H           -0.514295021163    -2.139695905638     0.008764216278     1.007825032230
         H            2.735258978837     1.558810094362     0.008745216278     1.007825032230
         H            1.910452978837    -2.689012905638     0.008771216278     1.007825032230
         H            3.572840978837    -0.777264905638     0.008760216278     1.007825032230

  Basis Set: AUG-CC-PVTZ
    Blend: AUG-CC-PVTZ
  Basis Set: (AUG-CC-PVTZ AUX)
    Blend: AUG-CC-PVTZ-JKFIT
	 Reference Energy          =    -438.8145399718341650 [Eh]
	 Singles Energy            =      -0.0000000000000000 [Eh]
	 Same-Spin Energy          =      -0.4682081542168215 [Eh]
	 Opposite-Spin Energy      =      -1.4978594675268528 [Eh]
	 Correlation Energy        =      -1.9660676217436743 [Eh]
	 Total Energy              =    -440.7806075935778267 [Eh]

	 ================> DF-SCS-MP2 Energies <==================
	-----------------------------------------------------------
	 SCS Same-Spin Scale       =       0.3333333333333333 [-]
	 SCS Opposite-Spin Scale   =       1.2000000000000000 [-]
	 SCS Same-Spin Energy      =      -0.1560693847389405 [Eh]
	 SCS Opposite-Spin Energy  =      -1.7974313610322235 [Eh]
	 SCS Correlation Energy    =      -1.9535007457711639 [Eh]
	 SCS Total Energy          =    -440.7680407176053450 [Eh]
	-----------------------------------------------------------

  Dipole Moment: [D]
     X:    -0.6306      Y:    -3.8588      Z:     0.0301     Total:     3.9101

*** Psi4 exiting successfully. Buy a developer a beer!
