                               Psi4 1.3.2 release

  ==> Input File <==

--------------------------------------------------------------------------
#psi4
#
memory 32 gb

molecule  {
0 1
  O        0.2506850     2.2433030    -0.0000120
  N       -0.1535360    -0.0391100    -0.0000040
  C       -1.6091660     0.2193680    -0.0000060
  C       -2.2505560    -0.3204400     1.2726240
  C       -2.2505640    -0.3204870    -1.2726120
  C        0.7061140     1.0894960    -0.0000070
  C        0.3060350    -1.3272880     0.0000050
  C        2.1126958     0.7529317     0.1999950
  C        1.6422530    -1.6174930     0.0000090
  C        2.5632190    -0.5392750     0.0000030
  H       -1.6749870     1.3090010    -0.0000250
  H       -3.3054200    -0.0314760     1.3049310
  H       -2.2011690    -1.4127350     1.3198810
  H       -1.7528960     0.0901600     2.1548740
  H       -1.7529050     0.0900740    -2.1548810
  H       -3.3054260    -0.0315150    -1.3049260
  H       -2.2011880    -1.4127830    -1.3198260
  H       -0.4545900    -2.1014670     0.0000100
  H        2.7949640     1.5970390    -0.0000090
  H        1.9701580    -2.6507840     0.0000170
  H        3.6325460    -0.7390360     0.0000060
units angstrom
no_reorient  #important for SAPT in psi4, default
symmetry c1  #important for SAPT in psi4, default
}

set PROPERTIES_ORIGIN ["COM"]
properties('MP2/aug-cc-pvtz', properties = ['dipole'])
--------------------------------------------------------------------------

    Molecular point group: c1
  Charge       = 0
  Multiplicity = 1
  Basis Set: AUG-CC-PVTZ
    Blend: AUG-CC-PVTZ
  Basis Set: (AUG-CC-PVTZ AUX)
    Blend: AUG-CC-PVTZ-JKFIT

    Orbital Energies [Eh]
    ---------------------

    Doubly Occupied:

       1A    -20.506240     2A    -15.621839     3A    -11.351265
       4A    -11.307862     5A    -11.274570     6A    -11.272685
       7A    -11.238694     8A    -11.237486     9A    -11.229259
      10A    -11.228983    11A     -1.367148    12A     -1.278144
      13A     -1.121412    14A     -1.050992    15A     -1.021077
      16A     -0.951038    17A     -0.892285    18A     -0.854627
      19A     -0.803359    20A     -0.711080    21A     -0.697630
      22A     -0.654340    23A     -0.638448    24A     -0.628575
      25A     -0.613101    26A     -0.602524    27A     -0.564334
      28A     -0.562381    29A     -0.548217    30A     -0.540606
      31A     -0.523409    32A     -0.504789    33A     -0.486311
      34A     -0.473463    35A     -0.416895    36A     -0.405250
      37A     -0.307937

  @DF-RHF Final Energy:  -438.80711651206286

   => Energetics <=

    Nuclear Repulsion Energy =            527.4600360866176061
    One-Electron Energy =               -1641.5578009121211380
    Two-Electron Energy =                 675.2906483134405562
    Total Energy =                       -438.8071165120628621
  Basis Set: (AUG-CC-PVTZ AUX)
    Blend: AUG-CC-PVTZ-RI
    Molecular point group: c1

    Geometry (in Angstrom), charge = 0, multiplicity = 1:

       Center              X                  Y                   Z               Mass
    ------------   -----------------  -----------------  -----------------  -----------------
         O            0.190980013852     2.205073989317    -0.017519041927    15.994914619570
         N           -0.213240986148    -0.077339010683    -0.017511041927    14.003074004430
         C           -1.668870986148     0.181138989317    -0.017513041927    12.000000000000
         C           -2.310260986148    -0.358669010683     1.255116958073    12.000000000000
         C           -2.310268986148    -0.358716010683    -1.290119041927    12.000000000000
         C            0.646409013852     1.051266989317    -0.017514041927    12.000000000000
         C            0.246330013852    -1.365517010683    -0.017502041927    12.000000000000
         C            2.052990813852     0.714702689317     0.182487958073    12.000000000000
         C            1.582548013852    -1.655722010683    -0.017498041927    12.000000000000
         C            2.503514013852    -0.577504010683    -0.017504041927    12.000000000000
         H           -1.734691986148     1.270771989317    -0.017532041927     1.007825032230
         H           -3.365124986148    -0.069705010683     1.287423958073     1.007825032230
         H           -2.260873986148    -1.450964010683     1.302373958073     1.007825032230
         H           -1.812600986148     0.051930989317     2.137366958073     1.007825032230
         H           -1.812609986148     0.051844989317    -2.172388041927     1.007825032230
         H           -3.365130986148    -0.069744010683    -1.322433041927     1.007825032230
         H           -2.260892986148    -1.451012010683    -1.337333041927     1.007825032230
         H           -0.514294986148    -2.139696010683    -0.017497041927     1.007825032230
         H            2.735259013852     1.558809989317    -0.017516041927     1.007825032230
         H            1.910453013852    -2.689013010683    -0.017490041927     1.007825032230
         H            3.572841013852    -0.777265010683    -0.017501041927     1.007825032230

  Basis Set: AUG-CC-PVTZ
    Blend: AUG-CC-PVTZ
  Basis Set: (AUG-CC-PVTZ AUX)
    Blend: AUG-CC-PVTZ-JKFIT
	 Reference Energy          =    -438.8071165120628621 [Eh]
	 Singles Energy            =      -0.0000000000000000 [Eh]
	 Same-Spin Energy          =      -0.4683506904393251 [Eh]
	 Opposite-Spin Energy      =      -1.4984257283532327 [Eh]
	 Correlation Energy        =      -1.9667764187925578 [Eh]
	 Total Energy              =    -440.7738929308554248 [Eh]

	 ================> DF-SCS-MP2 Energies <==================
	-----------------------------------------------------------
	 SCS Same-Spin Scale       =       0.3333333333333333 [-]
	 SCS Opposite-Spin Scale   =       1.2000000000000000 [-]
	 SCS Same-Spin Energy      =      -0.1561168968131084 [Eh]
	 SCS Opposite-Spin Energy  =      -1.7981108740238791 [Eh]
	 SCS Correlation Energy    =      -1.9542277708369875 [Eh]
	 SCS Total Energy          =    -440.7613442828998700 [Eh]
	-----------------------------------------------------------

  Dipole Moment: [D]
     X:    -0.7412      Y:    -3.9017      Z:    -0.1132     Total:     3.9731

*** Psi4 exiting successfully. Buy a developer a beer!
