                               Psi4 1.3.2 release

  ==> Input File <==

--------------------------------------------------------------------------
#psi4
#
memory 32 gb

molecule  {
0 1
  O        0.2506850     2.2433030    -0.0000120
  N       -0.1535360    -0.0391100    -0.0000040
  C       -1.6091660     0.2193680    -0.0000060
  C       -2.2505560    -0.3204400     1.2726240
  C       -2.2505640    -0.3204870    -1.2726120
  C        0.7061140     1.0894960    -0.0000070
  C        0.3060350    -1.3272880     0.0000050
  C        2.1126960     0.7529310    -0.0000050
  C        1.6422530    -1.6174930     0.0000090
  C        2.5632190    -0.5392750     0.0000030
  H       -1.6749870     1.3090010    -0.0000250
  H       -3.3054200    -0.0314760     1.3049310
  H       -2.2011690    -1.4127350     1.3198810
  H       -1.7528960     0.0901600     2.1548740
  H       -1.7529050     0.0900740    -2.1548810
  H       -3.3054260    -0.0315150    -1.3049260
  H       -2.2011880    -1.4127830    -1.3198260
  H       -0.4545900    -2.1014670     0.0000100
  H        2.7949639     1.5970401     0.1999910
  H        1.9701580    -2.6507840     0.0000170
  H        3.6325460    -0.7390360     0.0000060
units angstrom
no_reorient  #important for SAPT in psi4, default
symmetry c1  #important for SAPT in psi4, default
}

set PROPERTIES_ORIGIN ["COM"]
properties('MP2/aug-cc-pvtz', properties = ['dipole'])
--------------------------------------------------------------------------

    Molecular point group: c1
  Charge       = 0
  Multiplicity = 1
  Basis Set: AUG-CC-PVTZ
    Blend: AUG-CC-PVTZ
  Basis Set: (AUG-CC-PVTZ AUX)
    Blend: AUG-CC-PVTZ-JKFIT

    Orbital Energies [Eh]
    ---------------------

    Doubly Occupied:

       1A    -20.505540     2A    -15.621642     3A    -11.350052
       4A    -11.306022     5A    -11.274280     6A    -11.269277
       7A    -11.238500     8A    -11.236702     9A    -11.228873
      10A    -11.228851    11A     -1.367067    12A     -1.277767
      13A     -1.122597    14A     -1.051298    15A     -1.022362
      16A     -0.950763    17A     -0.893010    18A     -0.855702
      19A     -0.803429    20A     -0.711334    21A     -0.699671
      22A     -0.654563    23A     -0.639763    24A     -0.628122
      25A     -0.613014    26A     -0.603803    27A     -0.564605
      28A     -0.562380    29A     -0.548998    30A     -0.541435
      31A     -0.523919    32A     -0.504511    33A     -0.486648
      34A     -0.473885    35A     -0.417938    36A     -0.406101
      37A     -0.307186

  @DF-RHF Final Energy:  -438.81548325204227

   => Energetics <=

    Nuclear Repulsion Energy =            527.8453756335919707
    One-Electron Energy =               -1642.3384900919056690
    Two-Electron Energy =                 675.6776312062714851
    Total Energy =                       -438.8154832520423270
  Basis Set: (AUG-CC-PVTZ AUX)
    Blend: AUG-CC-PVTZ-RI
    Molecular point group: c1

    Geometry (in Angstrom), charge = 0, multiplicity = 1:

       Center              X                  Y                   Z               Mass
    ------------   -----------------  -----------------  -----------------  -----------------
         O            0.190979997080     2.205074042507    -0.001481911646    15.994914619570
         N           -0.213241002920    -0.077338957493    -0.001473911646    14.003074004430
         C           -1.668871002920     0.181139042507    -0.001475911646    12.000000000000
         C           -2.310261002920    -0.358668957493     1.271154088354    12.000000000000
         C           -2.310269002920    -0.358715957493    -1.274081911646    12.000000000000
         C            0.646408997080     1.051267042507    -0.001476911646    12.000000000000
         C            0.246329997080    -1.365516957493    -0.001464911646    12.000000000000
         C            2.052990997080     0.714702042507    -0.001474911646    12.000000000000
         C            1.582547997080    -1.655721957493    -0.001460911646    12.000000000000
         C            2.503513997080    -0.577503957493    -0.001466911646    12.000000000000
         H           -1.734692002920     1.270772042507    -0.001494911646     1.007825032230
         H           -3.365125002920    -0.069704957493     1.303461088354     1.007825032230
         H           -2.260874002920    -1.450963957493     1.318411088354     1.007825032230
         H           -1.812601002920     0.051931042507     2.153404088354     1.007825032230
         H           -1.812610002920     0.051845042507    -2.156350911646     1.007825032230
         H           -3.365131002920    -0.069743957493    -1.306395911646     1.007825032230
         H           -2.260893002920    -1.451011957493    -1.321295911646     1.007825032230
         H           -0.514295002920    -2.139695957493    -0.001459911646     1.007825032230
         H            2.735258897080     1.558811142507     0.198521088354     1.007825032230
         H            1.910452997080    -2.689012957493    -0.001452911646     1.007825032230
         H            3.572840997080    -0.777264957493    -0.001463911646     1.007825032230

  Basis Set: AUG-CC-PVTZ
    Blend: AUG-CC-PVTZ
  Basis Set: (AUG-CC-PVTZ AUX)
    Blend: AUG-CC-PVTZ-JKFIT
	 Reference Energy          =    -438.8154832520422701 [Eh]
	 Singles Energy            =      -0.0000000000000000 [Eh]
	 Same-Spin Energy          =      -0.4680723860987253 [Eh]
	 Opposite-Spin Energy      =      -1.4974984720561442 [Eh]
	 Correlation Energy        =      -1.9655708581548694 [Eh]
	 Total Energy              =    -440.7810541101971467 [Eh]

	 ================> DF-SCS-MP2 Energies <==================
	-----------------------------------------------------------
	 SCS Same-Spin Scale       =       0.3333333333333333 [-]
	 SCS Opposite-Spin Scale   =       1.2000000000000000 [-]
	 SCS Same-Spin Energy      =      -0.1560241286995751 [Eh]
	 SCS Opposite-Spin Energy  =      -1.7969981664673729 [Eh]
	 SCS Correlation Energy    =      -1.9530222951669480 [Eh]
	 SCS Total Energy          =    -440.7685055472092017 [Eh]
	-----------------------------------------------------------

  Dipole Moment: [D]
     X:    -0.6867      Y:    -3.8861      Z:     0.1226     Total:     3.9482

*** Psi4 exiting successfully. Buy a developer a beer!
