                               Psi4 1.3.2 release

  ==> Input File <==

--------------------------------------------------------------------------
#psi4
#
memory 32 gb

molecule  {
0 1
  O        0.2506850     2.2433030    -0.0000120
  N       -0.1535360    -0.0391100    -0.0000040
  C       -1.6091660     0.2193680    -0.0000060
  C       -2.2505560    -0.3204400     1.2726240
  C       -2.2505640    -0.3204870    -1.2726120
  C        0.7061140     1.0894960    -0.0000070
  C        0.3060351    -1.3272883    -0.0499950
  C        2.1126960     0.7529310    -0.0000050
  C        1.6422530    -1.6174930     0.0000090
  C        2.5632190    -0.5392750     0.0000030
  H       -1.6749870     1.3090010    -0.0000250
  H       -3.3054200    -0.0314760     1.3049310
  H       -2.2011690    -1.4127350     1.3198810
  H       -1.7528960     0.0901600     2.1548740
  H       -1.7529050     0.0900740    -2.1548810
  H       -3.3054260    -0.0315150    -1.3049260
  H       -2.2011880    -1.4127830    -1.3198260
  H       -0.4545900    -2.1014670     0.0000100
  H        2.7949640     1.5970390    -0.0000090
  H        1.9701580    -2.6507840     0.0000170
  H        3.6325460    -0.7390360     0.0000060
units angstrom
no_reorient  #important for SAPT in psi4, default
symmetry c1  #important for SAPT in psi4, default
}

set PROPERTIES_ORIGIN ["COM"]
properties('MP2/aug-cc-pvtz', properties = ['dipole'])
--------------------------------------------------------------------------

    Molecular point group: c1
  Charge       = 0
  Multiplicity = 1
  Basis Set: AUG-CC-PVTZ
    Blend: AUG-CC-PVTZ
  Basis Set: (AUG-CC-PVTZ AUX)
    Blend: AUG-CC-PVTZ-JKFIT

    Orbital Energies [Eh]
    ---------------------

    Doubly Occupied:

       1A    -20.505451     2A    -15.621428     3A    -11.349949
       4A    -11.305767     5A    -11.274090     6A    -11.268963
       7A    -11.238671     8A    -11.235425     9A    -11.228768
      10A    -11.228622    11A     -1.366953    12A     -1.277357
      13A     -1.122510    14A     -1.051192    15A     -1.022424
      16A     -0.950596    17A     -0.893236    18A     -0.855683
      19A     -0.803712    20A     -0.711325    21A     -0.699339
      22A     -0.655401    23A     -0.640864    24A     -0.627969
      25A     -0.612918    26A     -0.604154    27A     -0.564404
      28A     -0.562044    29A     -0.547875    30A     -0.543843
      31A     -0.524256    32A     -0.504534    33A     -0.486729
      34A     -0.473665    35A     -0.417747    36A     -0.406568
      37A     -0.307161

  @DF-RHF Final Energy:  -438.81711854232464

   => Energetics <=

    Nuclear Repulsion Energy =            527.8866509818699342
    One-Electron Energy =               -1642.4243539065623736
    Two-Electron Energy =                 675.7205843823678606
    Total Energy =                       -438.8171185423245788
  Basis Set: (AUG-CC-PVTZ AUX)
    Blend: AUG-CC-PVTZ-RI
    Molecular point group: c1

    Geometry (in Angstrom), charge = 0, multiplicity = 1:

       Center              X                  Y                   Z               Mass
    ------------   -----------------  -----------------  -----------------  -----------------
         O            0.190979987591     2.205074076855     0.004365339911    15.994914619570
         N           -0.213241012409    -0.077338923145     0.004373339911    14.003074004430
         C           -1.668871012409     0.181139076855     0.004371339911    12.000000000000
         C           -2.310261012409    -0.358668923145     1.277001339911    12.000000000000
         C           -2.310269012409    -0.358715923145    -1.268234660089    12.000000000000
         C            0.646408987591     1.051267076855     0.004370339911    12.000000000000
         C            0.246330087591    -1.365517223145    -0.045617660089    12.000000000000
         C            2.052990987591     0.714702076855     0.004372339911    12.000000000000
         C            1.582547987591    -1.655721923145     0.004386339911    12.000000000000
         C            2.503513987591    -0.577503923145     0.004380339911    12.000000000000
         H           -1.734692012409     1.270772076855     0.004352339911     1.007825032230
         H           -3.365125012409    -0.069704923145     1.309308339911     1.007825032230
         H           -2.260874012409    -1.450963923145     1.324258339911     1.007825032230
         H           -1.812601012409     0.051931076855     2.159251339911     1.007825032230
         H           -1.812610012409     0.051845076855    -2.150503660089     1.007825032230
         H           -3.365131012409    -0.069743923145    -1.300548660089     1.007825032230
         H           -2.260893012409    -1.451011923145    -1.315448660089     1.007825032230
         H           -0.514295012409    -2.139695923145     0.004387339911     1.007825032230
         H            2.735258987591     1.558810076855     0.004368339911     1.007825032230
         H            1.910452987591    -2.689012923145     0.004394339911     1.007825032230
         H            3.572840987591    -0.777264923145     0.004383339911     1.007825032230

  Basis Set: AUG-CC-PVTZ
    Blend: AUG-CC-PVTZ
  Basis Set: (AUG-CC-PVTZ AUX)
    Blend: AUG-CC-PVTZ-JKFIT
	 Reference Energy          =    -438.8171185423246357 [Eh]
	 Singles Energy            =      -0.0000000000000000 [Eh]
	 Same-Spin Energy          =      -0.4680269712690367 [Eh]
	 Opposite-Spin Energy      =      -1.4974131164665083 [Eh]
	 Correlation Energy        =      -1.9654400877355451 [Eh]
	 Total Energy              =    -440.7825586300601799 [Eh]

	 ================> DF-SCS-MP2 Energies <==================
	-----------------------------------------------------------
	 SCS Same-Spin Scale       =       0.3333333333333333 [-]
	 SCS Opposite-Spin Scale   =       1.2000000000000000 [-]
	 SCS Same-Spin Energy      =      -0.1560089904230122 [Eh]
	 SCS Opposite-Spin Energy  =      -1.7968957397598100 [Eh]
	 SCS Correlation Energy    =      -1.9529047301828222 [Eh]
	 SCS Total Energy          =    -440.7700232725074443 [Eh]
	-----------------------------------------------------------

  Dipole Moment: [D]
     X:    -0.6567      Y:    -3.8669      Z:     0.0146     Total:     3.9223

*** Psi4 exiting successfully. Buy a developer a beer!
