                               Psi4 1.3.2 release

  ==> Input File <==

--------------------------------------------------------------------------
#psi4
#
memory 32 gb

molecule  {
0 1
  O        0.2506850     2.2433030    -0.0000120
  N       -0.1535360    -0.0391100    -0.0000040
  C       -1.6091660     0.2193680    -0.0000060
  C       -2.2505560    -0.3204400     1.2726240
  C       -2.2505640    -0.3204870    -1.2726120
  C        0.7061140     1.0894960    -0.0000070
  C        0.3060350    -1.3272880     0.0000050
  C        2.1126958     0.7529319     0.2499950
  C        1.6422530    -1.6174930     0.0000090
  C        2.5632190    -0.5392750     0.0000030
  H       -1.6749870     1.3090010    -0.0000250
  H       -3.3054200    -0.0314760     1.3049310
  H       -2.2011690    -1.4127350     1.3198810
  H       -1.7528960     0.0901600     2.1548740
  H       -1.7529050     0.0900740    -2.1548810
  H       -3.3054260    -0.0315150    -1.3049260
  H       -2.2011880    -1.4127830    -1.3198260
  H       -0.4545900    -2.1014670     0.0000100
  H        2.7949640     1.5970390    -0.0000090
  H        1.9701580    -2.6507840     0.0000170
  H        3.6325460    -0.7390360     0.0000060
units angstrom
no_reorient  #important for SAPT in psi4, default
symmetry c1  #important for SAPT in psi4, default
}

set PROPERTIES_ORIGIN ["COM"]
properties('MP2/aug-cc-pvtz', properties = ['dipole'])
--------------------------------------------------------------------------

    Molecular point group: c1
  Charge       = 0
  Multiplicity = 1
  Basis Set: AUG-CC-PVTZ
    Blend: AUG-CC-PVTZ
  Basis Set: (AUG-CC-PVTZ AUX)
    Blend: AUG-CC-PVTZ-JKFIT

    Orbital Energies [Eh]
    ---------------------

    Doubly Occupied:

       1A    -20.506723     2A    -15.622064     3A    -11.351962
       4A    -11.309131     5A    -11.274798     6A    -11.274727
       7A    -11.238926     8A    -11.238698     9A    -11.229493
      10A    -11.229169    11A     -1.367256    12A     -1.278466
      13A     -1.120846    14A     -1.050870    15A     -1.020213
      16A     -0.951257    17A     -0.891779    18A     -0.853990
      19A     -0.803117    20A     -0.711033    21A     -0.696574
      22A     -0.653859    23A     -0.637188    24A     -0.628819
      25A     -0.613216    26A     -0.601545    27A     -0.564263
      28A     -0.562535    29A     -0.548295    30A     -0.538965
      31A     -0.522699    32A     -0.504913    33A     -0.485952
      34A     -0.473303    35A     -0.416386    36A     -0.404526
      37A     -0.308411

  @DF-RHF Final Energy:  -438.80089659319799

   => Energetics <=

    Nuclear Repulsion Energy =            527.2073552584836307
    One-Electron Energy =               -1641.0445699938491089
    Two-Electron Energy =                 675.0363181421674881
    Total Energy =                       -438.8008965931979901
  Basis Set: (AUG-CC-PVTZ AUX)
    Blend: AUG-CC-PVTZ-RI
    Molecular point group: c1

    Geometry (in Angstrom), charge = 0, multiplicity = 1:

       Center              X                  Y                   Z               Mass
    ------------   -----------------  -----------------  -----------------  -----------------
         O            0.190980013852     2.205073971810    -0.021895918295    15.994914619570
         N           -0.213240986148    -0.077339028190    -0.021887918295    14.003074004430
         C           -1.668870986148     0.181138971810    -0.021889918295    12.000000000000
         C           -2.310260986148    -0.358669028190     1.250740081705    12.000000000000
         C           -2.310268986148    -0.358716028190    -1.294495918295    12.000000000000
         C            0.646409013852     1.051266971810    -0.021890918295    12.000000000000
         C            0.246330013852    -1.365517028190    -0.021878918295    12.000000000000
         C            2.052990813852     0.714702871810     0.228111081705    12.000000000000
         C            1.582548013852    -1.655722028190    -0.021874918295    12.000000000000
         C            2.503514013852    -0.577504028190    -0.021880918295    12.000000000000
         H           -1.734691986148     1.270771971810    -0.021908918295     1.007825032230
         H           -3.365124986148    -0.069705028190     1.283047081705     1.007825032230
         H           -2.260873986148    -1.450964028190     1.297997081705     1.007825032230
         H           -1.812600986148     0.051930971810     2.132990081705     1.007825032230
         H           -1.812609986148     0.051844971810    -2.176764918295     1.007825032230
         H           -3.365130986148    -0.069744028190    -1.326809918295     1.007825032230
         H           -2.260892986148    -1.451012028190    -1.341709918295     1.007825032230
         H           -0.514294986148    -2.139696028190    -0.021873918295     1.007825032230
         H            2.735259013852     1.558809971810    -0.021892918295     1.007825032230
         H            1.910453013852    -2.689013028190    -0.021866918295     1.007825032230
         H            3.572841013852    -0.777265028190    -0.021877918295     1.007825032230

  Basis Set: AUG-CC-PVTZ
    Blend: AUG-CC-PVTZ
  Basis Set: (AUG-CC-PVTZ AUX)
    Blend: AUG-CC-PVTZ-JKFIT
	 Reference Energy          =    -438.8008965931979901 [Eh]
	 Singles Energy            =      -0.0000000000000000 [Eh]
	 Same-Spin Energy          =      -0.4685705483918515 [Eh]
	 Opposite-Spin Energy      =      -1.4991683595269238 [Eh]
	 Correlation Energy        =      -1.9677389079187755 [Eh]
	 Total Energy              =    -440.7686355011167620 [Eh]

	 ================> DF-SCS-MP2 Energies <==================
	-----------------------------------------------------------
	 SCS Same-Spin Scale       =       0.3333333333333333 [-]
	 SCS Opposite-Spin Scale   =       1.2000000000000000 [-]
	 SCS Same-Spin Energy      =      -0.1561901827972838 [Eh]
	 SCS Opposite-Spin Energy  =      -1.7990020314323085 [Eh]
	 SCS Correlation Energy    =      -1.9551922142295923 [Eh]
	 SCS Total Energy          =    -440.7560888074276022 [Eh]
	-----------------------------------------------------------

  Dipole Moment: [D]
     X:    -0.7838      Y:    -3.9190      Z:    -0.1455     Total:     3.9992

*** Psi4 exiting successfully. Buy a developer a beer!
