                               Psi4 1.4a3.dev225

  ==> Input File <==

--------------------------------------------------------------------------
#psi4
#
memory 32 gb

molecule  {
0 1
  O       -0.1791250    -0.4779340     0.0014420
  O        1.2676250     1.2989270     0.0090110
  N        2.0163350    -0.8804990    -0.0657410
  C       -1.2686920     0.4722670    -0.0022460
  C       -2.5451940    -0.3377090     0.0025190
  C        1.0558770     0.0965110    -0.0009640
  H       -1.1847720     1.1155630     0.8776850
  H       -1.1852960     1.1054120    -0.8894660
  H       -3.4102260     0.3314020    -0.0008760
  H       -2.5967230    -0.9775020    -0.8809700
  H       -2.5969010    -0.9678970     0.8929970
  H        1.7497370    -1.8166910     0.2040380
  H        2.8574576    -0.6107854     0.1532376
units angstrom
no_reorient  #important for SAPT in psi4, default
symmetry c1  #important for SAPT in psi4, default
}

set PROPERTIES_ORIGIN ["COM"]
properties('MP2/aug-cc-pvtz', properties = ['dipole'])
--------------------------------------------------------------------------

    Molecular point group: c1
  Charge       = 0
  Multiplicity = 1
  Basis Set: AUG-CC-PVTZ
    Blend: AUG-CC-PVTZ
  Basis Set: (AUG-CC-PVTZ AUX)
    Blend: AUG-CC-PVTZ-JKFIT

    Orbital Energies [Eh]
    ---------------------

    Doubly Occupied:

       1A    -20.602002     2A    -20.531426     3A    -15.580015
       4A    -11.406470     5A    -11.288444     6A    -11.225140
       7A     -1.458022     8A     -1.352078     9A     -1.232780
      10A     -1.036862    11A     -0.881233    12A     -0.805391
      13A     -0.748454    14A     -0.717851    15A     -0.683908
      16A     -0.647985    17A     -0.599368    18A     -0.581658
      19A     -0.547140    20A     -0.522561    21A     -0.514463
      22A     -0.463500    23A     -0.458492    24A     -0.433608

  @DF-RHF Final Energy:  -322.00542956261478

   => Energetics <=

    Nuclear Repulsion Energy =            246.6850035375043149
    One-Electron Energy =                -928.7431640588932851
    Two-Electron Energy =                 360.0527309587742479
    Total Energy =                       -322.0054295626147791
  Basis Set: (AUG-CC-PVTZ AUX)
    Blend: AUG-CC-PVTZ-RI
    Molecular point group: c1

    Geometry (in Angstrom), charge = 0, multiplicity = 1:

       Center              X                  Y                   Z               Mass
    ------------   -----------------  -----------------  -----------------  -----------------
         O           -0.247994864726    -0.497475266563     0.005959095664    15.994914619570
         O            1.198755135274     1.279385733437     0.013528095664    15.994914619570
         N            1.947465135274    -0.900040266563    -0.061223904336    14.003074004430
         C           -1.337561864726     0.452725733437     0.002271095664    12.000000000000
         C           -2.614063864726    -0.357250266563     0.007036095664    12.000000000000
         C            0.987007135274     0.076969733437     0.003553095664    12.000000000000
         H           -1.253641864726     1.096021733437     0.882202095664     1.007825032230
         H           -1.254165864726     1.085870733437    -0.884948904336     1.007825032230
         H           -3.479095864726     0.311860733437     0.003641095664     1.007825032230
         H           -2.665592864726    -0.997043266563    -0.876452904336     1.007825032230
         H           -2.665770864726    -0.987438266563     0.897514095664     1.007825032230
         H            1.680867135274    -1.836232266563     0.208555095664     1.007825032230
         H            2.788587735274    -0.630326666563     0.157754695664     1.007825032230

  Basis Set: AUG-CC-PVTZ
    Blend: AUG-CC-PVTZ
  Basis Set: (AUG-CC-PVTZ AUX)
    Blend: AUG-CC-PVTZ-JKFIT
	 Reference Energy          =    -322.0054295626147791 [Eh]
	 Singles Energy            =      -0.0000000000000000 [Eh]
	 Same-Spin Energy          =      -0.3128246982376731 [Eh]
	 Opposite-Spin Energy      =      -0.9922329139365558 [Eh]
	 Correlation Energy        =      -1.3050576121742288 [Eh]
	 Total Energy              =    -323.3104871747889888 [Eh]

	 ================> DF-SCS-MP2 Energies <==================
	-----------------------------------------------------------
	 SCS Same-Spin Scale       =       0.3333333333333333 [-]
	 SCS Opposite-Spin Scale   =       1.2000000000000000 [-]
	 SCS Same-Spin Energy      =      -0.1042748994125577 [Eh]
	 SCS Opposite-Spin Energy  =      -1.1906794967238670 [Eh]
	 SCS Correlation Energy    =      -1.2949543961364247 [Eh]
	 SCS Total Energy          =    -323.3003839587511834 [Eh]
	-----------------------------------------------------------

  Dipole Moment: [D]
     X:    -0.7143      Y:    -2.2172      Z:     0.6979     Total:     2.4318

*** Psi4 exiting successfully. Buy a developer a beer!
