                               Psi4 1.4a3.dev225

  ==> Input File <==

--------------------------------------------------------------------------
#psi4
#
memory 32 gb

molecule  {
0 1
  O       -0.1791250    -0.4779340     0.0014420
  O        1.2676250     1.2989270     0.0090110
  N        2.0163350    -0.8804990    -0.0657410
  C       -1.4194240     0.6037189    -0.0027562
  C       -2.5451940    -0.3377090     0.0025190
  C        1.0558770     0.0965110    -0.0009640
  H       -1.1847720     1.1155630     0.8776850
  H       -1.1852960     1.1054120    -0.8894660
  H       -3.4102260     0.3314020    -0.0008760
  H       -2.5967230    -0.9775020    -0.8809700
  H       -2.5969010    -0.9678970     0.8929970
  H        1.7497370    -1.8166910     0.2040380
  H        2.9498840    -0.5811480     0.1773000
units angstrom
no_reorient  #important for SAPT in psi4, default
symmetry c1  #important for SAPT in psi4, default
}

set PROPERTIES_ORIGIN ["COM"]
properties('MP2/aug-cc-pvtz', properties = ['dipole'])
--------------------------------------------------------------------------

    Molecular point group: c1
  Charge       = 0
  Multiplicity = 1
  Basis Set: AUG-CC-PVTZ
    Blend: AUG-CC-PVTZ
  Basis Set: (AUG-CC-PVTZ AUX)
    Blend: AUG-CC-PVTZ-JKFIT

    Orbital Energies [Eh]
    ---------------------

    Doubly Occupied:

       1A    -20.573684     2A    -20.516978     3A    -15.577588
       4A    -11.389551     5A    -11.301665     6A    -11.234322
       7A     -1.421585     8A     -1.318912     9A     -1.201242
      10A     -1.056976    11A     -0.872174    12A     -0.792638
      13A     -0.723420    14A     -0.684371    15A     -0.680543
      16A     -0.625564    17A     -0.602469    18A     -0.588797
      19A     -0.547064    20A     -0.532294    21A     -0.498186
      22A     -0.459928    23A     -0.443198    24A     -0.421429

  @DF-RHF Final Energy:  -321.98506858211374

   => Energetics <=

    Nuclear Repulsion Energy =            243.4007272100249111
    One-Electron Energy =                -922.6424412845392453
    Two-Electron Energy =                 357.2566454924005939
    Total Energy =                       -321.9850685821137404
  Basis Set: (AUG-CC-PVTZ AUX)
    Blend: AUG-CC-PVTZ-RI
    Molecular point group: c1

    Geometry (in Angstrom), charge = 0, multiplicity = 1:

       Center              X                  Y                   Z               Mass
    ------------   -----------------  -----------------  -----------------  -----------------
         O           -0.228728395460    -0.515525059003     0.005755516083    15.994914619570
         O            1.218021604540     1.261335940997     0.013324516083    15.994914619570
         N            1.966731604540    -0.918090059003    -0.061427483917    14.003074004430
         C           -1.469027395460     0.566127840997     0.001557316083    12.000000000000
         C           -2.594797395460    -0.375300059003     0.006832516083    12.000000000000
         C            1.006273604540     0.058919940997     0.003349516083    12.000000000000
         H           -1.234375395460     1.077971940997     0.881998516083     1.007825032230
         H           -1.234899395460     1.067820940997    -0.885152483917     1.007825032230
         H           -3.459829395460     0.293810940997     0.003437516083     1.007825032230
         H           -2.646326395460    -1.015093059003    -0.876656483917     1.007825032230
         H           -2.646504395460    -1.005488059003     0.897310516083     1.007825032230
         H            1.700133604540    -1.854282059003     0.208351516083     1.007825032230
         H            2.900280604540    -0.618739059003     0.181613516083     1.007825032230

  Basis Set: AUG-CC-PVTZ
    Blend: AUG-CC-PVTZ
  Basis Set: (AUG-CC-PVTZ AUX)
    Blend: AUG-CC-PVTZ-JKFIT
	 Reference Energy          =    -321.9850685821137404 [Eh]
	 Singles Energy            =      -0.0000000000000000 [Eh]
	 Same-Spin Energy          =      -0.3143064391158503 [Eh]
	 Opposite-Spin Energy      =      -0.9964797191782143 [Eh]
	 Correlation Energy        =      -1.3107861582940645 [Eh]
	 Total Energy              =    -323.2958547404078331 [Eh]

	 ================> DF-SCS-MP2 Energies <==================
	-----------------------------------------------------------
	 SCS Same-Spin Scale       =       0.3333333333333333 [-]
	 SCS Opposite-Spin Scale   =       1.2000000000000000 [-]
	 SCS Same-Spin Energy      =      -0.1047688130386168 [Eh]
	 SCS Opposite-Spin Energy  =      -1.1957756630138572 [Eh]
	 SCS Correlation Energy    =      -1.3005444760524740 [Eh]
	 SCS Total Energy          =    -323.2856130581662342 [Eh]
	-----------------------------------------------------------

  Dipole Moment: [D]
     X:    -1.4602      Y:    -1.9440      Z:     0.7135     Total:     2.5338

*** Psi4 exiting successfully. Buy a developer a beer!
