                               Psi4 1.4a3.dev225

  ==> Input File <==

--------------------------------------------------------------------------
#psi4
#
memory 32 gb

molecule  {
0 1
  O       -0.1791250    -0.4779340     0.0014420
  O        1.2676250     1.2989270     0.0090110
  N        2.0163350    -0.8804990    -0.0657410
  C       -1.2686920     0.4722670    -0.0022460
  C       -2.5451940    -0.3377090     0.0025190
  C        1.0558770     0.0965110    -0.0009640
  H       -1.1847720     1.1155630     0.8776850
  H       -1.1852960     1.1054120    -0.8894660
  H       -3.4102260     0.3314020    -0.0008760
  H       -2.5967230    -0.9775020    -0.8809700
  H       -2.5969010    -0.9678970     0.8929970
  H        1.7497370    -1.8166910     0.2040380
  H        2.9683693    -0.5752205     0.1821125
units angstrom
no_reorient  #important for SAPT in psi4, default
symmetry c1  #important for SAPT in psi4, default
}

set PROPERTIES_ORIGIN ["COM"]
properties('MP2/aug-cc-pvtz', properties = ['dipole'])
--------------------------------------------------------------------------

    Molecular point group: c1
  Charge       = 0
  Multiplicity = 1
  Basis Set: AUG-CC-PVTZ
    Blend: AUG-CC-PVTZ
  Basis Set: (AUG-CC-PVTZ AUX)
    Blend: AUG-CC-PVTZ-JKFIT

    Orbital Energies [Eh]
    ---------------------

    Doubly Occupied:

       1A    -20.601548     2A    -20.529930     3A    -15.591040
       4A    -11.405483     5A    -11.288081     6A    -11.224826
       7A     -1.456808     8A     -1.350614     9A     -1.214290
      10A     -1.034895    11A     -0.874396    12A     -0.799161
      13A     -0.744078    14A     -0.697488    15A     -0.683098
      16A     -0.641098    17A     -0.598369    18A     -0.580582
      19A     -0.545962    20A     -0.521737    21A     -0.514022
      22A     -0.462877    23A     -0.457391    24A     -0.430585

  @DF-RHF Final Energy:  -322.01171499468239

   => Energetics <=

    Nuclear Repulsion Energy =            245.9974278749962764
    One-Electron Energy =                -927.5215694245549685
    Two-Electron Energy =                 359.5124265548762423
    Total Energy =                       -322.0117149946823929
  Basis Set: (AUG-CC-PVTZ AUX)
    Blend: AUG-CC-PVTZ-RI
    Molecular point group: c1

    Geometry (in Angstrom), charge = 0, multiplicity = 1:

       Center              X                  Y                   Z               Mass
    ------------   -----------------  -----------------  -----------------  -----------------
         O           -0.249250142680    -0.497877783474     0.005632294926    15.994914619570
         O            1.197499857320     1.278983216526     0.013201294926    15.994914619570
         N            1.946209857320    -0.900442783474    -0.061550705074    14.003074004430
         C           -1.338817142680     0.452323216526     0.001944294926    12.000000000000
         C           -2.615319142680    -0.357652783474     0.006709294926    12.000000000000
         C            0.985751857320     0.076567216526     0.003226294926    12.000000000000
         H           -1.254897142680     1.095619216526     0.881875294926     1.007825032230
         H           -1.255421142680     1.085468216526    -0.885275705074     1.007825032230
         H           -3.480351142680     0.311458216526     0.003314294926     1.007825032230
         H           -2.666848142680    -0.997445783474    -0.876779705074     1.007825032230
         H           -2.667026142680    -0.987840783474     0.897187294926     1.007825032230
         H            1.679611857320    -1.836634783474     0.208228294926     1.007825032230
         H            2.898244157320    -0.595164283474     0.186302794926     1.007825032230

  Basis Set: AUG-CC-PVTZ
    Blend: AUG-CC-PVTZ
  Basis Set: (AUG-CC-PVTZ AUX)
    Blend: AUG-CC-PVTZ-JKFIT
	 Reference Energy          =    -322.0117149946823929 [Eh]
	 Singles Energy            =      -0.0000000000000000 [Eh]
	 Same-Spin Energy          =      -0.3134211555706806 [Eh]
	 Opposite-Spin Energy      =      -0.9938236362651779 [Eh]
	 Correlation Energy        =      -1.3072447918358585 [Eh]
	 Total Energy              =    -323.3189597865182350 [Eh]

	 ================> DF-SCS-MP2 Energies <==================
	-----------------------------------------------------------
	 SCS Same-Spin Scale       =       0.3333333333333333 [-]
	 SCS Opposite-Spin Scale   =       1.2000000000000000 [-]
	 SCS Same-Spin Energy      =      -0.1044737185235602 [Eh]
	 SCS Opposite-Spin Energy  =      -1.1925883635182135 [Eh]
	 SCS Correlation Energy    =      -1.2970620820417738 [Eh]
	 SCS Total Energy          =    -323.3087770767241409 [Eh]
	-----------------------------------------------------------

  Dipole Moment: [D]
     X:    -0.5927      Y:    -2.1933      Z:     0.7192     Total:     2.3831

*** Psi4 exiting successfully. Buy a developer a beer!
