                               Psi4 1.4a3.dev225

  ==> Input File <==

--------------------------------------------------------------------------
#psi4
#
memory 32 gb

molecule  {
0 1
  O       -0.1791250    -0.4779340     0.0014420
  O        1.2676250     1.2989270     0.0090110
  N        2.0163350    -0.8804990    -0.0657410
  C       -1.2686920     0.4722670    -0.0022460
  C       -2.5451940    -0.3377090     0.0025190
  C        1.0558770     0.0965110    -0.0009640
  H       -1.1847720     1.1155630     0.8776850
  H       -1.1852960     1.1054120    -0.8894660
  H       -3.4102260     0.3314020    -0.0008760
  H       -2.5967230    -0.9775020    -0.8809700
  H       -2.5969010    -0.9678970     0.8929970
  H        1.7233439    -1.9093737     0.2307460
  H        2.9498840    -0.5811480     0.1773000
units angstrom
no_reorient  #important for SAPT in psi4, default
symmetry c1  #important for SAPT in psi4, default
}

set PROPERTIES_ORIGIN ["COM"]
properties('MP2/aug-cc-pvtz', properties = ['dipole'])
--------------------------------------------------------------------------

    Molecular point group: c1
  Charge       = 0
  Multiplicity = 1
  Basis Set: AUG-CC-PVTZ
    Blend: AUG-CC-PVTZ
  Basis Set: (AUG-CC-PVTZ AUX)
    Blend: AUG-CC-PVTZ-JKFIT

    Orbital Energies [Eh]
    ---------------------

    Doubly Occupied:

       1A    -20.600816     2A    -20.529934     3A    -15.597179
       4A    -11.405139     5A    -11.287663     6A    -11.224673
       7A     -1.455994     8A     -1.350369     9A     -1.204923
      10A     -1.034372    11A     -0.873596    12A     -0.796691
      13A     -0.727617    14A     -0.696541    15A     -0.682643
      16A     -0.633467    17A     -0.597900    18A     -0.580120
      19A     -0.545606    20A     -0.521305    21A     -0.513709
      22A     -0.462376    23A     -0.456245    24A     -0.429098

  @DF-RHF Final Energy:  -322.00229140365599

   => Energetics <=

    Nuclear Repulsion Energy =            245.6239656257427555
    One-Electron Energy =                -926.8365603496330323
    Two-Electron Energy =                 359.2103033202343454
    Total Energy =                       -322.0022914036559882
  Basis Set: (AUG-CC-PVTZ AUX)
    Blend: AUG-CC-PVTZ-RI
    Molecular point group: c1

    Geometry (in Angstrom), charge = 0, multiplicity = 1:

       Center              X                  Y                   Z               Mass
    ------------   -----------------  -----------------  -----------------  -----------------
         O           -0.248742217311    -0.496761731605     0.005384485737    15.994914619570
         O            1.198007782689     1.280099268395     0.012953485737    15.994914619570
         N            1.946717782689    -0.899326731605    -0.061798514263    14.003074004430
         C           -1.338309217311     0.453439268395     0.001696485737    12.000000000000
         C           -2.614811217311    -0.356536731605     0.006461485737    12.000000000000
         C            0.986259782689     0.077683268395     0.002978485737    12.000000000000
         H           -1.254389217311     1.096735268395     0.881627485737     1.007825032230
         H           -1.254913217311     1.086584268395    -0.885523514263     1.007825032230
         H           -3.479843217311     0.312574268395     0.003066485737     1.007825032230
         H           -2.666340217311    -0.996329731605    -0.877027514263     1.007825032230
         H           -2.666518217311    -0.986724731605     0.896939485737     1.007825032230
         H            1.653726682689    -1.928201431605     0.234688485737     1.007825032230
         H            2.880266782689    -0.599975731605     0.181242485737     1.007825032230

  Basis Set: AUG-CC-PVTZ
    Blend: AUG-CC-PVTZ
  Basis Set: (AUG-CC-PVTZ AUX)
    Blend: AUG-CC-PVTZ-JKFIT
	 Reference Energy          =    -322.0022914036559882 [Eh]
	 Singles Energy            =      -0.0000000000000000 [Eh]
	 Same-Spin Energy          =      -0.3139154599390720 [Eh]
	 Opposite-Spin Energy      =      -0.9952631340255311 [Eh]
	 Correlation Energy        =      -1.3091785939646030 [Eh]
	 Total Energy              =    -323.3114699976205770 [Eh]

	 ================> DF-SCS-MP2 Energies <==================
	-----------------------------------------------------------
	 SCS Same-Spin Scale       =       0.3333333333333333 [-]
	 SCS Opposite-Spin Scale   =       1.2000000000000000 [-]
	 SCS Same-Spin Energy      =      -0.1046384866463573 [Eh]
	 SCS Opposite-Spin Energy  =      -1.1943157608306374 [Eh]
	 SCS Correlation Energy    =      -1.2989542474769946 [Eh]
	 SCS Total Energy          =    -323.3012456511330015 [Eh]
	-----------------------------------------------------------

  Dipole Moment: [D]
     X:    -0.6323      Y:    -2.2864      Z:     0.7368     Total:     2.4840

*** Psi4 exiting successfully. Buy a developer a beer!
