                               Psi4 1.4a3.dev225

  ==> Input File <==

--------------------------------------------------------------------------
#psi4
#
memory 32 gb

molecule  {
0 1
  O       -0.2364585    -0.5311242     0.1309901
  O        1.2676250     1.2989270     0.0090110
  N        2.0163350    -0.8804990    -0.0657410
  C       -1.2686920     0.4722670    -0.0022460
  C       -2.5451940    -0.3377090     0.0025190
  C        1.0558770     0.0965110    -0.0009640
  H       -1.1847720     1.1155630     0.8776850
  H       -1.1852960     1.1054120    -0.8894660
  H       -3.4102260     0.3314020    -0.0008760
  H       -2.5967230    -0.9775020    -0.8809700
  H       -2.5969010    -0.9678970     0.8929970
  H        1.7497370    -1.8166910     0.2040380
  H        2.9498840    -0.5811480     0.1773000
units angstrom
no_reorient  #important for SAPT in psi4, default
symmetry c1  #important for SAPT in psi4, default
}

set PROPERTIES_ORIGIN ["COM"]
properties('MP2/aug-cc-pvtz', properties = ['dipole'])
--------------------------------------------------------------------------

    Molecular point group: c1
  Charge       = 0
  Multiplicity = 1
  Basis Set: AUG-CC-PVTZ
    Blend: AUG-CC-PVTZ
  Basis Set: (AUG-CC-PVTZ AUX)
    Blend: AUG-CC-PVTZ-JKFIT

    Orbital Energies [Eh]
    ---------------------

    Doubly Occupied:

       1A    -20.600605     2A    -20.543121     3A    -15.595404
       4A    -11.415741     5A    -11.282731     6A    -11.219449
       7A     -1.438037     8A     -1.352567     9A     -1.221034
      10A     -1.024797    11A     -0.861793    12A     -0.805101
      13A     -0.744419    14A     -0.695206    15A     -0.672887
      16A     -0.644874    17A     -0.597873    18A     -0.579181
      19A     -0.537724    20A     -0.521087    21A     -0.512242
      22A     -0.462336    23A     -0.460839    24A     -0.435464

  @DF-RHF Final Energy:  -321.99873197489796

   => Energetics <=

    Nuclear Repulsion Energy =            244.4984929875439263
    One-Electron Energy =                -924.5454277490152890
    Two-Electron Energy =                 358.0482027865733698
    Total Energy =                       -321.9987319748979644
  Basis Set: (AUG-CC-PVTZ AUX)
    Blend: AUG-CC-PVTZ-RI
    Molecular point group: c1

    Geometry (in Angstrom), charge = 0, multiplicity = 1:

       Center              X                  Y                   Z               Mass
    ------------   -----------------  -----------------  -----------------  -----------------
         O           -0.296076076379    -0.541446771499     0.111965183972    15.994914619570
         O            1.208007423621     1.288604428501    -0.010013916028    15.994914619570
         N            1.956717423621    -0.890821571499    -0.084765916028    14.003074004430
         C           -1.328309576379     0.461944428501    -0.021270916028    12.000000000000
         C           -2.604811576379    -0.348031571499    -0.016505916028    12.000000000000
         C            0.996259423621     0.086188428501    -0.019988916028    12.000000000000
         H           -1.244389576379     1.105240428501     0.858660083972     1.007825032230
         H           -1.244913576379     1.095089428501    -0.908490916028     1.007825032230
         H           -3.469843576379     0.321079428501    -0.019900916028     1.007825032230
         H           -2.656340576379    -0.987824571499    -0.899994916028     1.007825032230
         H           -2.656518576379    -0.978219571499     0.873972083972     1.007825032230
         H            1.690119423621    -1.827013571499     0.185013083972     1.007825032230
         H            2.890266423621    -0.591470571499     0.158275083972     1.007825032230

  Basis Set: AUG-CC-PVTZ
    Blend: AUG-CC-PVTZ
  Basis Set: (AUG-CC-PVTZ AUX)
    Blend: AUG-CC-PVTZ-JKFIT
	 Reference Energy          =    -321.9987319748979644 [Eh]
	 Singles Energy            =      -0.0000000000000000 [Eh]
	 Same-Spin Energy          =      -0.3148726624484830 [Eh]
	 Opposite-Spin Energy      =      -0.9977175249939250 [Eh]
	 Correlation Energy        =      -1.3125901874424080 [Eh]
	 Total Energy              =    -323.3113221623403888 [Eh]

	 ================> DF-SCS-MP2 Energies <==================
	-----------------------------------------------------------
	 SCS Same-Spin Scale       =       0.3333333333333333 [-]
	 SCS Opposite-Spin Scale   =       1.2000000000000000 [-]
	 SCS Same-Spin Energy      =      -0.1049575541494943 [Eh]
	 SCS Opposite-Spin Energy  =      -1.1972610299927100 [Eh]
	 SCS Correlation Energy    =      -1.3022185841422043 [Eh]
	 SCS Total Energy          =    -323.3009505590401886 [Eh]
	-----------------------------------------------------------

  Dipole Moment: [D]
     X:    -0.0846      Y:    -2.0160      Z:     0.5406     Total:     2.0889

*** Psi4 exiting successfully. Buy a developer a beer!
