                               Psi4 1.4a3.dev225

  ==> Input File <==

--------------------------------------------------------------------------
#psi4
#
memory 32 gb

molecule  {
0 1
  O       -0.1791250    -0.4779340     0.0014420
  O        1.2676250     1.2989270     0.0090110
  N        2.0163350    -0.8804990    -0.0657410
  C       -1.2686920     0.4722670    -0.0022460
  C       -2.5451940    -0.3377090     0.0025190
  C        1.0558770     0.0965110    -0.0009640
  H       -1.1847720     1.1155630     0.8776850
  H       -1.1852960     1.1054120    -0.8894660
  H       -3.4102260     0.3314020    -0.0008760
  H       -2.5967230    -0.9775020    -0.8809700
  H       -2.5969010    -0.9678970     0.8929970
  H        1.6867650    -1.8045437     0.1747495
  H        2.9498840    -0.5811480     0.1773000
units angstrom
no_reorient  #important for SAPT in psi4, default
symmetry c1  #important for SAPT in psi4, default
}

set PROPERTIES_ORIGIN ["COM"]
properties('MP2/aug-cc-pvtz', properties = ['dipole'])
--------------------------------------------------------------------------

    Molecular point group: c1
  Charge       = 0
  Multiplicity = 1
  Basis Set: AUG-CC-PVTZ
    Blend: AUG-CC-PVTZ
  Basis Set: (AUG-CC-PVTZ AUX)
    Blend: AUG-CC-PVTZ-JKFIT

    Orbital Energies [Eh]
    ---------------------

    Doubly Occupied:

       1A    -20.602001     2A    -20.529269     3A    -15.589293
       4A    -11.404338     5A    -11.288448     6A    -11.225143
       7A     -1.457256     8A     -1.350503     9A     -1.217297
      10A     -1.035317    11A     -0.874710    12A     -0.798287
      13A     -0.744261    14A     -0.704005    15A     -0.683546
      16A     -0.643550    17A     -0.598510    18A     -0.580770
      19A     -0.546604    20A     -0.521931    21A     -0.514434
      22A     -0.463122    23A     -0.456468    24A     -0.430488

  @DF-RHF Final Energy:  -322.01228261380516

   => Energetics <=

    Nuclear Repulsion Energy =            246.2121698818707216
    One-Electron Energy =                -927.9297968803923595
    Two-Electron Energy =                 359.7053443847164544
    Total Energy =                       -322.0122826138051551
  Basis Set: (AUG-CC-PVTZ AUX)
    Blend: AUG-CC-PVTZ-RI
    Molecular point group: c1

    Geometry (in Angstrom), charge = 0, multiplicity = 1:

       Center              X                  Y                   Z               Mass
    ------------   -----------------  -----------------  -----------------  -----------------
         O           -0.248328224137    -0.497948178012     0.006018243690    15.994914619570
         O            1.198421775863     1.278912821988     0.013587243690    15.994914619570
         N            1.947131775863    -0.900513178012    -0.061164756310    14.003074004430
         C           -1.337895224137     0.452252821988     0.002330243690    12.000000000000
         C           -2.614397224137    -0.357723178012     0.007095243690    12.000000000000
         C            0.986673775863     0.076496821988     0.003612243690    12.000000000000
         H           -1.253975224137     1.095548821988     0.882261243690     1.007825032230
         H           -1.254499224137     1.085397821988    -0.884889756310     1.007825032230
         H           -3.479429224137     0.311387821988     0.003700243690     1.007825032230
         H           -2.665926224137    -0.997516178012    -0.876393756310     1.007825032230
         H           -2.666104224137    -0.987911178012     0.897573243690     1.007825032230
         H            1.617561775863    -1.824557878012     0.179325743690     1.007825032230
         H            2.880680775863    -0.601162178012     0.181876243690     1.007825032230

  Basis Set: AUG-CC-PVTZ
    Blend: AUG-CC-PVTZ
  Basis Set: (AUG-CC-PVTZ AUX)
    Blend: AUG-CC-PVTZ-JKFIT
	 Reference Energy          =    -322.0122826138051551 [Eh]
	 Singles Energy            =      -0.0000000000000000 [Eh]
	 Same-Spin Energy          =      -0.3133645056423043 [Eh]
	 Opposite-Spin Energy      =      -0.9935308613726074 [Eh]
	 Correlation Energy        =      -1.3068953670149117 [Eh]
	 Total Energy              =    -323.3191779808200863 [Eh]

	 ================> DF-SCS-MP2 Energies <==================
	-----------------------------------------------------------
	 SCS Same-Spin Scale       =       0.3333333333333333 [-]
	 SCS Opposite-Spin Scale   =       1.2000000000000000 [-]
	 SCS Same-Spin Energy      =      -0.1044548352141014 [Eh]
	 SCS Opposite-Spin Energy  =      -1.1922370336471289 [Eh]
	 SCS Correlation Energy    =      -1.2966918688612303 [Eh]
	 SCS Total Energy          =    -323.3089744826663718 [Eh]
	-----------------------------------------------------------

  Dipole Moment: [D]
     X:    -0.6562      Y:    -2.1961      Z:     0.6758     Total:     2.3896

*** Psi4 exiting successfully. Buy a developer a beer!
