                               Psi4 1.4a3.dev225

  ==> Input File <==

--------------------------------------------------------------------------
#psi4
#
memory 32 gb

molecule  {
0 1
  O       -0.1475011    -0.4366494    -0.0850336
  O        1.2676250     1.2989270     0.0090110
  N        2.0163350    -0.8804990    -0.0657410
  C       -1.2686920     0.4722670    -0.0022460
  C       -2.5451940    -0.3377090     0.0025190
  C        1.0558770     0.0965110    -0.0009640
  H       -1.1847720     1.1155630     0.8776850
  H       -1.1852960     1.1054120    -0.8894660
  H       -3.4102260     0.3314020    -0.0008760
  H       -2.5967230    -0.9775020    -0.8809700
  H       -2.5969010    -0.9678970     0.8929970
  H        1.7497370    -1.8166910     0.2040380
  H        2.9498840    -0.5811480     0.1773000
units angstrom
no_reorient  #important for SAPT in psi4, default
symmetry c1  #important for SAPT in psi4, default
}

set PROPERTIES_ORIGIN ["COM"]
properties('MP2/aug-cc-pvtz', properties = ['dipole'])
--------------------------------------------------------------------------

    Molecular point group: c1
  Charge       = 0
  Multiplicity = 1
  Basis Set: AUG-CC-PVTZ
    Blend: AUG-CC-PVTZ
  Basis Set: (AUG-CC-PVTZ AUX)
    Blend: AUG-CC-PVTZ-JKFIT

    Orbital Energies [Eh]
    ---------------------

    Doubly Occupied:

       1A    -20.601218     2A    -20.521988     3A    -15.586442
       4A    -11.399417     5A    -11.291373     6A    -11.228123
       7A     -1.470788     8A     -1.347294     9A     -1.214978
      10A     -1.041230    11A     -0.884055    12A     -0.797016
      13A     -0.745421    14A     -0.704247    15A     -0.689276
      16A     -0.641522    17A     -0.600192    18A     -0.580149
      19A     -0.552419    20A     -0.522105    21A     -0.513724
      22A     -0.461009    23A     -0.453723    24A     -0.428504

  @DF-RHF Final Energy:  -322.01354904660269

   => Energetics <=

    Nuclear Repulsion Energy =            247.0301040285637839
    One-Electron Energy =                -929.5348821721920558
    Two-Electron Energy =                 360.4912290970256095
    Total Energy =                       -322.0135490466026909
  Basis Set: (AUG-CC-PVTZ AUX)
    Blend: AUG-CC-PVTZ-RI
    Molecular point group: c1

    Geometry (in Angstrom), charge = 0, multiplicity = 1:

       Center              X                  Y                   Z               Mass
    ------------   -----------------  -----------------  -----------------  -----------------
         O           -0.223097375007    -0.463941716086    -0.065255925139    15.994914619570
         O            1.192028724993     1.271634683914     0.028788674861    15.994914619570
         N            1.940738724993    -0.907791316086    -0.045963325139    14.003074004430
         C           -1.344288275007     0.444974683914     0.017531674861    12.000000000000
         C           -2.620790275007    -0.365001316086     0.022296674861    12.000000000000
         C            0.980280724993     0.069218683914     0.018813674861    12.000000000000
         H           -1.260368275007     1.088270683914     0.897462674861     1.007825032230
         H           -1.260892275007     1.078119683914    -0.869688325139     1.007825032230
         H           -3.485822275007     0.304109683914     0.018901674861     1.007825032230
         H           -2.672319275007    -1.004794316086    -0.861192325139     1.007825032230
         H           -2.672497275007    -0.995189316086     0.912774674861     1.007825032230
         H            1.674140724993    -1.843983316086     0.223815674861     1.007825032230
         H            2.874287724993    -0.608440316086     0.197077674861     1.007825032230

  Basis Set: AUG-CC-PVTZ
    Blend: AUG-CC-PVTZ
  Basis Set: (AUG-CC-PVTZ AUX)
    Blend: AUG-CC-PVTZ-JKFIT
	 Reference Energy          =    -322.0135490466026909 [Eh]
	 Singles Energy            =      -0.0000000000000000 [Eh]
	 Same-Spin Energy          =      -0.3126288969540342 [Eh]
	 Opposite-Spin Energy      =      -0.9915839835810691 [Eh]
	 Correlation Energy        =      -1.3042128805351032 [Eh]
	 Total Energy              =    -323.3177619271377807 [Eh]

	 ================> DF-SCS-MP2 Energies <==================
	-----------------------------------------------------------
	 SCS Same-Spin Scale       =       0.3333333333333333 [-]
	 SCS Opposite-Spin Scale   =       1.2000000000000000 [-]
	 SCS Same-Spin Energy      =      -0.1042096323180114 [Eh]
	 SCS Opposite-Spin Energy  =      -1.1899007802972830 [Eh]
	 SCS Correlation Energy    =      -1.2941104126152942 [Eh]
	 SCS Total Energy          =    -323.3076594592179731 [Eh]
	-----------------------------------------------------------

  Dipole Moment: [D]
     X:    -0.9043      Y:    -2.3244      Z:     0.8183     Total:     2.6249

*** Psi4 exiting successfully. Buy a developer a beer!
