                               Psi4 1.4a3.dev225

  ==> Input File <==

--------------------------------------------------------------------------
#psi4
#
memory 32 gb

molecule  {
0 1
  O       -0.1791250    -0.4779340     0.0014420
  O        1.2676250     1.2989270     0.0090110
  N        2.0163350    -0.8804990    -0.0657410
  C       -1.2686920     0.4722670    -0.0022460
  C       -2.5451940    -0.3377090     0.0025190
  C        1.0558770     0.0965110    -0.0009640
  H       -1.1847720     1.1155630     0.8776850
  H       -1.1852960     1.1054120    -0.8894660
  H       -3.3706769     0.3008104    -0.0007208
  H       -2.5967230    -0.9775020    -0.8809700
  H       -2.5969010    -0.9678970     0.8929970
  H        1.7497370    -1.8166910     0.2040380
  H        2.9498840    -0.5811480     0.1773000
units angstrom
no_reorient  #important for SAPT in psi4, default
symmetry c1  #important for SAPT in psi4, default
}

set PROPERTIES_ORIGIN ["COM"]
properties('MP2/aug-cc-pvtz', properties = ['dipole'])
--------------------------------------------------------------------------

    Molecular point group: c1
  Charge       = 0
  Multiplicity = 1
  Basis Set: AUG-CC-PVTZ
    Blend: AUG-CC-PVTZ
  Basis Set: (AUG-CC-PVTZ AUX)
    Blend: AUG-CC-PVTZ-JKFIT

    Orbital Energies [Eh]
    ---------------------

    Doubly Occupied:

       1A    -20.601252     2A    -20.529952     3A    -15.589148
       4A    -11.405349     5A    -11.287713     6A    -11.218643
       7A     -1.456666     8A     -1.350566     9A     -1.216690
      10A     -1.037505    11A     -0.878688    12A     -0.799888
      13A     -0.744696    14A     -0.701093    15A     -0.682920
      16A     -0.642924    17A     -0.598136    18A     -0.581452
      19A     -0.555025    20A     -0.521356    21A     -0.513575
      22A     -0.462686    23A     -0.457449    24A     -0.430878

  @DF-RHF Final Energy:  -322.01166371196069

   => Energetics <=

    Nuclear Repulsion Energy =            246.3240279539094502
    One-Electron Energy =                -928.1428849880044254
    Two-Electron Energy =                 359.8071933221343102
    Total Energy =                       -322.0116637119606935
  Basis Set: (AUG-CC-PVTZ AUX)
    Blend: AUG-CC-PVTZ-RI
    Molecular point group: c1

    Geometry (in Angstrom), charge = 0, multiplicity = 1:

       Center              X                  Y                   Z               Mass
    ------------   -----------------  -----------------  -----------------  -----------------
         O           -0.249488538843    -0.497464467105     0.005685005380    15.994914619570
         O            1.197261461157     1.279396532895     0.013254005380    15.994914619570
         N            1.945971461157    -0.900029467105    -0.061497994620    14.003074004430
         C           -1.339055538843     0.452736532895     0.001997005380    12.000000000000
         C           -2.615557538843    -0.357239467105     0.006762005380    12.000000000000
         C            0.985513461157     0.076980532895     0.003279005380    12.000000000000
         H           -1.255135538843     1.096032532895     0.881928005380     1.007825032230
         H           -1.255659538843     1.085881532895    -0.885222994620     1.007825032230
         H           -3.441040438843     0.281279932895     0.003522205380     1.007825032230
         H           -2.667086538843    -0.997032467105    -0.876726994620     1.007825032230
         H           -2.667264538843    -0.987427467105     0.897240005380     1.007825032230
         H            1.679373461157    -1.836221467105     0.208281005380     1.007825032230
         H            2.879520461157    -0.600678467105     0.181543005380     1.007825032230

  Basis Set: AUG-CC-PVTZ
    Blend: AUG-CC-PVTZ
  Basis Set: (AUG-CC-PVTZ AUX)
    Blend: AUG-CC-PVTZ-JKFIT
	 Reference Energy          =    -322.0116637119606935 [Eh]
	 Singles Energy            =      -0.0000000000000000 [Eh]
	 Same-Spin Energy          =      -0.3133534291662558 [Eh]
	 Opposite-Spin Energy      =      -0.9932812541830284 [Eh]
	 Correlation Energy        =      -1.3066346833492841 [Eh]
	 Total Energy              =    -323.3182983953099665 [Eh]

	 ================> DF-SCS-MP2 Energies <==================
	-----------------------------------------------------------
	 SCS Same-Spin Scale       =       0.3333333333333333 [-]
	 SCS Opposite-Spin Scale   =       1.2000000000000000 [-]
	 SCS Same-Spin Energy      =      -0.1044511430554186 [Eh]
	 SCS Opposite-Spin Energy  =      -1.1919375050196339 [Eh]
	 SCS Correlation Energy    =      -1.2963886480750526 [Eh]
	 SCS Total Energy          =    -323.3080523600357310 [Eh]
	-----------------------------------------------------------

  Dipole Moment: [D]
     X:    -0.6369      Y:    -2.1872      Z:     0.7153     Total:     2.3877

*** Psi4 exiting successfully. Buy a developer a beer!
