                               Psi4 1.4a3.dev225

  ==> Input File <==

--------------------------------------------------------------------------
#psi4
#
memory 32 gb

molecule  {
0 1
  O       -0.1791250    -0.4779340     0.0014420
  O        1.2676250     1.2989270     0.0090110
  N        2.0163350    -0.8804990    -0.0657410
  C       -1.2686920     0.4722670    -0.0022460
  C       -2.5451940    -0.3377090     0.0025190
  C        1.0645484     0.1457516    -0.0005555
  H       -1.1847720     1.1155630     0.8776850
  H       -1.1852960     1.1054120    -0.8894660
  H       -3.4102260     0.3314020    -0.0008760
  H       -2.5967230    -0.9775020    -0.8809700
  H       -2.5969010    -0.9678970     0.8929970
  H        1.7497370    -1.8166910     0.2040380
  H        2.9498840    -0.5811480     0.1773000
units angstrom
no_reorient  #important for SAPT in psi4, default
symmetry c1  #important for SAPT in psi4, default
}

set PROPERTIES_ORIGIN ["COM"]
properties('MP2/aug-cc-pvtz', properties = ['dipole'])
--------------------------------------------------------------------------

    Molecular point group: c1
  Charge       = 0
  Multiplicity = 1
  Basis Set: AUG-CC-PVTZ
    Blend: AUG-CC-PVTZ
  Basis Set: (AUG-CC-PVTZ AUX)
    Blend: AUG-CC-PVTZ-JKFIT

    Orbital Energies [Eh]
    ---------------------

    Doubly Occupied:

       1A    -20.595083     2A    -20.543794     3A    -15.583321
       4A    -11.404170     5A    -11.285211     6A    -11.223083
       7A     -1.463933     8A     -1.371521     9A     -1.204764
      10A     -1.030148    11A     -0.868173    12A     -0.795759
      13A     -0.741283    14A     -0.696594    15A     -0.680683
      16A     -0.652720    17A     -0.602463    18A     -0.582658
      19A     -0.543337    20A     -0.524004    21A     -0.514225
      22A     -0.467352    23A     -0.464046    24A     -0.431857

  @DF-RHF Final Energy:  -322.00981085359865

   => Energetics <=

    Nuclear Repulsion Energy =            246.1933447776096102
    One-Electron Energy =                -927.8659476506185229
    Two-Electron Energy =                 359.6627920194102899
    Total Energy =                       -322.0098108535986512
  Basis Set: (AUG-CC-PVTZ AUX)
    Blend: AUG-CC-PVTZ-RI
    Molecular point group: c1

    Geometry (in Angstrom), charge = 0, multiplicity = 1:

       Center              X                  Y                   Z               Mass
    ------------   -----------------  -----------------  -----------------  -----------------
         O           -0.250209481018    -0.504446324364     0.005631712743    15.994914619570
         O            1.196540518982     1.272414675636     0.013200712743    15.994914619570
         N            1.945250518982    -0.907011324364    -0.061551287257    14.003074004430
         C           -1.339776481018     0.445754675636     0.001943712743    12.000000000000
         C           -2.616278481018    -0.364221324364     0.006708712743    12.000000000000
         C            0.993463918982     0.119239275636     0.003634212743    12.000000000000
         H           -1.255856481018     1.089050675636     0.881874712743     1.007825032230
         H           -1.256380481018     1.078899675636    -0.885276287257     1.007825032230
         H           -3.481310481018     0.304889675636     0.003313712743     1.007825032230
         H           -2.667807481018    -1.004014324364    -0.876780287257     1.007825032230
         H           -2.667985481018    -0.994409324364     0.897186712743     1.007825032230
         H            1.678652518982    -1.843203324364     0.208227712743     1.007825032230
         H            2.878799518982    -0.607660324364     0.181489712743     1.007825032230

  Basis Set: AUG-CC-PVTZ
    Blend: AUG-CC-PVTZ
  Basis Set: (AUG-CC-PVTZ AUX)
    Blend: AUG-CC-PVTZ-JKFIT
	 Reference Energy          =    -322.0098108535986512 [Eh]
	 Singles Energy            =      -0.0000000000000000 [Eh]
	 Same-Spin Energy          =      -0.3128445228148421 [Eh]
	 Opposite-Spin Energy      =      -0.9929524830080186 [Eh]
	 Correlation Energy        =      -1.3057970058228607 [Eh]
	 Total Energy              =    -323.3156078594215046 [Eh]

	 ================> DF-SCS-MP2 Energies <==================
	-----------------------------------------------------------
	 SCS Same-Spin Scale       =       0.3333333333333333 [-]
	 SCS Opposite-Spin Scale   =       1.2000000000000000 [-]
	 SCS Same-Spin Energy      =      -0.1042815076049474 [Eh]
	 SCS Opposite-Spin Energy  =      -1.1915429796096224 [Eh]
	 SCS Correlation Energy    =      -1.2958244872145697 [Eh]
	 SCS Total Energy          =    -323.3056353408132395 [Eh]
	-----------------------------------------------------------

  Dipole Moment: [D]
     X:    -0.4997      Y:    -1.7632      Z:     0.7242     Total:     1.9705

*** Psi4 exiting successfully. Buy a developer a beer!
