                               Psi4 1.4a3.dev225

  ==> Input File <==

--------------------------------------------------------------------------
#psi4
#
memory 32 gb

molecule  {
0 1
  O       -0.1791250    -0.4779340     0.0014420
  O        1.2676250     1.2989270     0.0090110
  N        2.0163350    -0.8804990    -0.0657410
  C       -1.2686920     0.4722670    -0.0022460
  C       -2.5451940    -0.3377090     0.0025190
  C        1.0558770     0.0965110    -0.0009640
  H       -1.1847720     1.1155630     0.8776850
  H       -1.1852960     1.1054120    -0.8894660
  H       -3.2520297     0.2090356    -0.0002551
  H       -2.5967230    -0.9775020    -0.8809700
  H       -2.5969010    -0.9678970     0.8929970
  H        1.7497370    -1.8166910     0.2040380
  H        2.9498840    -0.5811480     0.1773000
units angstrom
no_reorient  #important for SAPT in psi4, default
symmetry c1  #important for SAPT in psi4, default
}

set PROPERTIES_ORIGIN ["COM"]
properties('MP2/aug-cc-pvtz', properties = ['dipole'])
--------------------------------------------------------------------------

    Molecular point group: c1
  Charge       = 0
  Multiplicity = 1
  Basis Set: AUG-CC-PVTZ
    Blend: AUG-CC-PVTZ
  Basis Set: (AUG-CC-PVTZ AUX)
    Blend: AUG-CC-PVTZ-JKFIT

    Orbital Energies [Eh]
    ---------------------

    Doubly Occupied:

       1A    -20.600489     2A    -20.529475     3A    -15.588702
       4A    -11.404707     5A    -11.286811     6A    -11.199876
       7A     -1.455961     8A     -1.349967     9A     -1.216233
      10A     -1.048610    11A     -0.891873    12A     -0.799779
      13A     -0.745246    14A     -0.702364    15A     -0.682255
      16A     -0.645031    17A     -0.597466    18A     -0.591481
      19A     -0.571567    20A     -0.520353    21A     -0.512464
      22A     -0.462089    23A     -0.457168    24A     -0.430476

  @DF-RHF Final Energy:  -321.97839094666085

   => Energetics <=

    Nuclear Repulsion Energy =            247.0885779633433117
    One-Electron Energy =                -929.5530483770180581
    Two-Electron Energy =                 360.4860794670138375
    Total Energy =                       -321.9783909466608520
  Basis Set: (AUG-CC-PVTZ AUX)
    Blend: AUG-CC-PVTZ-RI
    Molecular point group: c1

    Geometry (in Angstrom), charge = 0, multiplicity = 1:

       Center              X                  Y                   Z               Mass
    ------------   -----------------  -----------------  -----------------  -----------------
         O           -0.250831365745    -0.496425777020     0.005679734674    15.994914619570
         O            1.195918634255     1.280435222980     0.013248734674    15.994914619570
         N            1.944628634255    -0.898990777020    -0.061503265326    14.003074004430
         C           -1.340398365745     0.453775222980     0.001991734674    12.000000000000
         C           -2.616900365745    -0.356200777020     0.006756734674    12.000000000000
         C            0.984170634255     0.078019222980     0.003273734674    12.000000000000
         H           -1.256478365745     1.097071222980     0.881922734674     1.007825032230
         H           -1.257002365745     1.086920222980    -0.885228265326     1.007825032230
         H           -3.323736065745     0.190543822980     0.003982634674     1.007825032230
         H           -2.668429365745    -0.995993777020    -0.876732265326     1.007825032230
         H           -2.668607365745    -0.986388777020     0.897234734674     1.007825032230
         H            1.678030634255    -1.835182777020     0.208275734674     1.007825032230
         H            2.878177634255    -0.599639777020     0.181537734674     1.007825032230

  Basis Set: AUG-CC-PVTZ
    Blend: AUG-CC-PVTZ
  Basis Set: (AUG-CC-PVTZ AUX)
    Blend: AUG-CC-PVTZ-JKFIT
	 Reference Energy          =    -321.9783909466608520 [Eh]
	 Singles Energy            =      -0.0000000000000000 [Eh]
	 Same-Spin Energy          =      -0.3135414994513117 [Eh]
	 Opposite-Spin Energy      =      -0.9930450172822091 [Eh]
	 Correlation Energy        =      -1.3065865167335207 [Eh]
	 Total Energy              =    -323.2849774633943980 [Eh]

	 ================> DF-SCS-MP2 Energies <==================
	-----------------------------------------------------------
	 SCS Same-Spin Scale       =       0.3333333333333333 [-]
	 SCS Opposite-Spin Scale   =       1.2000000000000000 [-]
	 SCS Same-Spin Energy      =      -0.1045138331504372 [Eh]
	 SCS Opposite-Spin Energy  =      -1.1916540207386508 [Eh]
	 SCS Correlation Energy    =      -1.2961678538890880 [Eh]
	 SCS Total Energy          =    -323.2745588005499258 [Eh]
	-----------------------------------------------------------

  Dipole Moment: [D]
     X:    -0.6874      Y:    -2.1660      Z:     0.7153     Total:     2.3824

*** Psi4 exiting successfully. Buy a developer a beer!
