                               Psi4 1.4a3.dev225

  ==> Input File <==

--------------------------------------------------------------------------
#psi4
#
memory 32 gb

molecule  {
0 1
  O       -0.1791250    -0.4779340     0.0014420
  O        1.2676250     1.2989270     0.0090110
  N        2.0163350    -0.8804990    -0.0657410
  C       -1.2686920     0.4722670    -0.0022460
  C       -2.5451940    -0.3377090     0.0025190
  C        1.0558770     0.0965110    -0.0009640
  H       -1.1847720     1.1155630     0.8776850
  H       -1.1852960     1.1054120    -0.8894660
  H       -3.4102260     0.3314020    -0.0008760
  H       -2.5967230    -0.9775020    -0.8809700
  H       -2.5969010    -0.9678970     0.8929970
  H        1.7497370    -1.8166910     0.2040380
  H        2.9036708    -0.5959667     0.1652688
units angstrom
no_reorient  #important for SAPT in psi4, default
symmetry c1  #important for SAPT in psi4, default
}

set PROPERTIES_ORIGIN ["COM"]
properties('MP2/aug-cc-pvtz', properties = ['dipole'])
--------------------------------------------------------------------------

    Molecular point group: c1
  Charge       = 0
  Multiplicity = 1
  Basis Set: AUG-CC-PVTZ
    Blend: AUG-CC-PVTZ
  Basis Set: (AUG-CC-PVTZ AUX)
    Blend: AUG-CC-PVTZ-JKFIT

    Orbital Energies [Eh]
    ---------------------

    Doubly Occupied:

       1A    -20.601796     2A    -20.530794     3A    -15.584867
       4A    -11.406044     5A    -11.288284     6A    -11.225004
       7A     -1.457479     8A     -1.351438     9A     -1.224223
      10A     -1.035981    11A     -0.877981    12A     -0.802491
      13A     -0.746292    14A     -0.709584    15A     -0.683594
      16A     -0.645623    17A     -0.598946    18A     -0.581225
      19A     -0.546686    20A     -0.522206    21A     -0.514271
      22A     -0.463231    23A     -0.458029    24A     -0.432310

  @DF-RHF Final Energy:  -322.01198279222552

   => Energetics <=

    Nuclear Repulsion Energy =            246.3829970551646511
    One-Electron Energy =                -928.2132038387568400
    Two-Electron Energy =                 359.8182239913666649
    Total Energy =                       -322.0119827922255240
  Basis Set: (AUG-CC-PVTZ AUX)
    Blend: AUG-CC-PVTZ-RI
    Molecular point group: c1

    Geometry (in Angstrom), charge = 0, multiplicity = 1:

       Center              X                  Y                   Z               Mass
    ------------   -----------------  -----------------  -----------------  -----------------
         O           -0.248517897112    -0.497642981848     0.005822928784    15.994914619570
         O            1.198232102888     1.279218018152     0.013391928784    15.994914619570
         N            1.946942102888    -0.900207981848    -0.061360071216    14.003074004430
         C           -1.338084897112     0.452558018152     0.002134928784    12.000000000000
         C           -2.614586897112    -0.357417981848     0.006899928784    12.000000000000
         C            0.986484102888     0.076802018152     0.003416928784    12.000000000000
         H           -1.254164897112     1.095854018152     0.882065928784     1.007825032230
         H           -1.254688897112     1.085703018152    -0.885085071216     1.007825032230
         H           -3.479618897112     0.311693018152     0.003504928784     1.007825032230
         H           -2.666115897112    -0.997210981848    -0.876589071216     1.007825032230
         H           -2.666293897112    -0.987605981848     0.897377928784     1.007825032230
         H            1.680344102888    -1.836399981848     0.208418928784     1.007825032230
         H            2.834277902888    -0.615675681848     0.169649728784     1.007825032230

  Basis Set: AUG-CC-PVTZ
    Blend: AUG-CC-PVTZ
  Basis Set: (AUG-CC-PVTZ AUX)
    Blend: AUG-CC-PVTZ-JKFIT
	 Reference Energy          =    -322.0119827922255240 [Eh]
	 Singles Energy            =      -0.0000000000000000 [Eh]
	 Same-Spin Energy          =      -0.3130588945398213 [Eh]
	 Opposite-Spin Energy      =      -0.9928320812453897 [Eh]
	 Correlation Energy        =      -1.3058909757852111 [Eh]
	 Total Energy              =    -323.3178737680107133 [Eh]

	 ================> DF-SCS-MP2 Energies <==================
	-----------------------------------------------------------
	 SCS Same-Spin Scale       =       0.3333333333333333 [-]
	 SCS Opposite-Spin Scale   =       1.2000000000000000 [-]
	 SCS Same-Spin Energy      =      -0.1043529648466071 [Eh]
	 SCS Opposite-Spin Energy  =      -1.1913984974944676 [Eh]
	 SCS Correlation Energy    =      -1.2957514623410746 [Eh]
	 SCS Total Energy          =    -323.3077342545665829 [Eh]
	-----------------------------------------------------------

  Dipole Moment: [D]
     X:    -0.6636      Y:    -2.2080      Z:     0.7063     Total:     2.4113

*** Psi4 exiting successfully. Buy a developer a beer!
