                               Psi4 1.4a3.dev225

  ==> Input File <==

--------------------------------------------------------------------------
#psi4
#
memory 32 gb

molecule  {
0 1
  O       -0.1466270    -0.4393304     0.0012357
  O        1.2676250     1.2989270     0.0090110
  N        2.0163350    -0.8804990    -0.0657410
  C       -1.2686920     0.4722670    -0.0022460
  C       -2.5451940    -0.3377090     0.0025190
  C        1.0558770     0.0965110    -0.0009640
  H       -1.1847720     1.1155630     0.8776850
  H       -1.1852960     1.1054120    -0.8894660
  H       -3.4102260     0.3314020    -0.0008760
  H       -2.5967230    -0.9775020    -0.8809700
  H       -2.5969010    -0.9678970     0.8929970
  H        1.7497370    -1.8166910     0.2040380
  H        2.9498840    -0.5811480     0.1773000
units angstrom
no_reorient  #important for SAPT in psi4, default
symmetry c1  #important for SAPT in psi4, default
}

set PROPERTIES_ORIGIN ["COM"]
properties('MP2/aug-cc-pvtz', properties = ['dipole'])
--------------------------------------------------------------------------

    Molecular point group: c1
  Charge       = 0
  Multiplicity = 1
  Basis Set: AUG-CC-PVTZ
    Blend: AUG-CC-PVTZ
  Basis Set: (AUG-CC-PVTZ AUX)
    Blend: AUG-CC-PVTZ-JKFIT

    Orbital Energies [Eh]
    ---------------------

    Doubly Occupied:

       1A    -20.601778     2A    -20.521583     3A    -15.585902
       4A    -11.399227     5A    -11.291783     6A    -11.228330
       7A     -1.471806     8A     -1.347370     9A     -1.214659
      10A     -1.041705    11A     -0.884356    12A     -0.797245
      13A     -0.745549    14A     -0.704760    15A     -0.689699
      16A     -0.641060    17A     -0.601581    18A     -0.579513
      19A     -0.552648    20A     -0.522183    21A     -0.513649
      22A     -0.462182    23A     -0.453454    24A     -0.428249

  @DF-RHF Final Energy:  -322.01485332719585

   => Energetics <=

    Nuclear Repulsion Energy =            247.0820552139481379
    One-Electron Energy =                -929.6332770466087823
    Two-Electron Energy =                 360.5363685054647931
    Total Energy =                       -322.0148533271958513
  Basis Set: (AUG-CC-PVTZ AUX)
    Blend: AUG-CC-PVTZ-RI
    Molecular point group: c1

    Geometry (in Angstrom), charge = 0, multiplicity = 1:

       Center              X                  Y                   Z               Mass
    ------------   -----------------  -----------------  -----------------  -----------------
         O           -0.222380282524    -0.466141149729     0.005517517906    15.994914619570
         O            1.191871717476     1.272116250271     0.013292817906    15.994914619570
         N            1.940581717476    -0.907309749729    -0.061459182094    14.003074004430
         C           -1.344445282524     0.445456250271     0.002035817906    12.000000000000
         C           -2.620947282524    -0.364519749729     0.006800817906    12.000000000000
         C            0.980123717476     0.069700250271     0.003317817906    12.000000000000
         H           -1.260525282524     1.088752250271     0.881966817906     1.007825032230
         H           -1.261049282524     1.078601250271    -0.885184182094     1.007825032230
         H           -3.485979282524     0.304591250271     0.003405817906     1.007825032230
         H           -2.672476282524    -1.004312749729    -0.876688182094     1.007825032230
         H           -2.672654282524    -0.994707749729     0.897278817906     1.007825032230
         H            1.673983717476    -1.843501749729     0.208319817906     1.007825032230
         H            2.874130717476    -0.607958749729     0.181581817906     1.007825032230

  Basis Set: AUG-CC-PVTZ
    Blend: AUG-CC-PVTZ
  Basis Set: (AUG-CC-PVTZ AUX)
    Blend: AUG-CC-PVTZ-JKFIT
	 Reference Energy          =    -322.0148533271958513 [Eh]
	 Singles Energy            =      -0.0000000000000000 [Eh]
	 Same-Spin Energy          =      -0.3125405186718334 [Eh]
	 Opposite-Spin Energy      =      -0.9913599280699716 [Eh]
	 Correlation Energy        =      -1.3039004467418049 [Eh]
	 Total Energy              =    -323.3187537739376580 [Eh]

	 ================> DF-SCS-MP2 Energies <==================
	-----------------------------------------------------------
	 SCS Same-Spin Scale       =       0.3333333333333333 [-]
	 SCS Opposite-Spin Scale   =       1.2000000000000000 [-]
	 SCS Same-Spin Energy      =      -0.1041801728906111 [Eh]
	 SCS Opposite-Spin Energy  =      -1.1896319136839659 [Eh]
	 SCS Correlation Energy    =      -1.2938120865745770 [Eh]
	 SCS Total Energy          =    -323.3086654137704272 [Eh]
	-----------------------------------------------------------

  Dipole Moment: [D]
     X:    -0.9305      Y:    -2.3206      Z:     0.7190     Total:     2.6016

*** Psi4 exiting successfully. Buy a developer a beer!
