                               Psi4 1.4a3.dev225

  ==> Input File <==

--------------------------------------------------------------------------
#psi4
#
memory 32 gb

molecule  {
0 1
  O       -0.1791250    -0.4779340     0.0014420
  O        1.2676250     1.2989270     0.0090110
  N        2.0163350    -0.8804990    -0.0657410
  C       -1.2686920     0.4722670    -0.0022460
  C       -2.5451940    -0.3377090     0.0025190
  C        1.0558770     0.0965110    -0.0009640
  H       -1.1847720     1.1155630     0.8776850
  H       -1.1852960     1.1054120    -0.8894660
  H       -3.4102260     0.3314020    -0.0008760
  H       -2.5967230    -0.9775020    -0.8809700
  H       -2.5969010    -0.9678970     0.8929970
  H        1.7656951    -1.8190170     0.2111602
  H        2.9498840    -0.5811480     0.1773000
units angstrom
no_reorient  #important for SAPT in psi4, default
symmetry c1  #important for SAPT in psi4, default
}

set PROPERTIES_ORIGIN ["COM"]
properties('MP2/aug-cc-pvtz', properties = ['dipole'])
--------------------------------------------------------------------------

    Molecular point group: c1
  Charge       = 0
  Multiplicity = 1
  Basis Set: AUG-CC-PVTZ
    Blend: AUG-CC-PVTZ
  Basis Set: (AUG-CC-PVTZ AUX)
    Blend: AUG-CC-PVTZ-JKFIT

    Orbital Energies [Eh]
    ---------------------

    Doubly Occupied:

       1A    -20.601533     2A    -20.530401     3A    -15.589355
       4A    -11.405975     5A    -11.288068     6A    -11.224814
       7A     -1.456941     8A     -1.350932     9A     -1.216832
      10A     -1.035166    11A     -0.875507    12A     -0.800510
      13A     -0.744732    14A     -0.700081    15A     -0.683191
      16A     -0.642230    17A     -0.598542    18A     -0.580782
      19A     -0.546080    20A     -0.521855    21A     -0.514015
      22A     -0.462959    23A     -0.457834    24A     -0.431205

  @DF-RHF Final Energy:  -322.01263056077249

   => Energetics <=

    Nuclear Repulsion Energy =            246.0778117307155526
    One-Electron Energy =                -927.6618109088115034
    Two-Electron Energy =                 359.5713686173234578
    Total Energy =                       -322.0126305607724930
  Basis Set: (AUG-CC-PVTZ AUX)
    Blend: AUG-CC-PVTZ-RI
    Molecular point group: c1

    Geometry (in Angstrom), charge = 0, multiplicity = 1:

       Center              X                  Y                   Z               Mass
    ------------   -----------------  -----------------  -----------------  -----------------
         O           -0.249221540301    -0.497784371899     0.005606154172    15.994914619570
         O            1.197528459699     1.279076628101     0.013175154172    15.994914619570
         N            1.946238459699    -0.900349371899    -0.061576845828    14.003074004430
         C           -1.338788540301     0.452416628101     0.001918154172    12.000000000000
         C           -2.615290540301    -0.357559371899     0.006683154172    12.000000000000
         C            0.985780459699     0.076660628101     0.003200154172    12.000000000000
         H           -1.254868540301     1.095712628101     0.881849154172     1.007825032230
         H           -1.255392540301     1.085561628101    -0.885301845828     1.007825032230
         H           -3.480322540301     0.311551628101     0.003288154172     1.007825032230
         H           -2.666819540301    -0.997352371899    -0.876805845828     1.007825032230
         H           -2.666997540301    -0.987747371899     0.897161154172     1.007825032230
         H            1.695598559699    -1.838867371899     0.215324354172     1.007825032230
         H            2.879787459699    -0.600998371899     0.181464154172     1.007825032230

  Basis Set: AUG-CC-PVTZ
    Blend: AUG-CC-PVTZ
  Basis Set: (AUG-CC-PVTZ AUX)
    Blend: AUG-CC-PVTZ-JKFIT
	 Reference Energy          =    -322.0126305607724930 [Eh]
	 Singles Energy            =      -0.0000000000000000 [Eh]
	 Same-Spin Energy          =      -0.3133108895861625 [Eh]
	 Opposite-Spin Energy      =      -0.9935348109082665 [Eh]
	 Correlation Energy        =      -1.3068457004944289 [Eh]
	 Total Energy              =    -323.3194762612669138 [Eh]

	 ================> DF-SCS-MP2 Energies <==================
	-----------------------------------------------------------
	 SCS Same-Spin Scale       =       0.3333333333333333 [-]
	 SCS Opposite-Spin Scale   =       1.2000000000000000 [-]
	 SCS Same-Spin Energy      =      -0.1044369631953875 [Eh]
	 SCS Opposite-Spin Energy  =      -1.1922417730899197 [Eh]
	 SCS Correlation Energy    =      -1.2966787362853072 [Eh]
	 SCS Total Energy          =    -323.3093092970577800 [Eh]
	-----------------------------------------------------------

  Dipole Moment: [D]
     X:    -0.6021      Y:    -2.1971      Z:     0.7251     Total:     2.3907

*** Psi4 exiting successfully. Buy a developer a beer!
