                               Psi4 1.4a3.dev225

  ==> Input File <==

--------------------------------------------------------------------------
#psi4
#
memory 32 gb

molecule  {
0 1
  O       -0.1791250    -0.4779340     0.0014420
  O        1.2676250     1.2989270     0.0090110
  N        2.0163350    -0.8804990    -0.0657410
  C       -1.2686920     0.4722670    -0.0022460
  C       -2.5451940    -0.3377090     0.0025190
  C        1.0558770     0.0965110    -0.0009640
  H       -1.1847720     1.1155630     0.8776850
  H       -1.1852960     1.1054120    -0.8894660
  H       -3.4102260     0.3314020    -0.0008760
  H       -2.5872858    -0.8603277    -0.7191642
  H       -2.5969010    -0.9678970     0.8929970
  H        1.7497370    -1.8166910     0.2040380
  H        2.9498840    -0.5811480     0.1773000
units angstrom
no_reorient  #important for SAPT in psi4, default
symmetry c1  #important for SAPT in psi4, default
}

set PROPERTIES_ORIGIN ["COM"]
properties('MP2/aug-cc-pvtz', properties = ['dipole'])
--------------------------------------------------------------------------

    Molecular point group: c1
  Charge       = 0
  Multiplicity = 1
  Basis Set: AUG-CC-PVTZ
    Blend: AUG-CC-PVTZ
  Basis Set: (AUG-CC-PVTZ AUX)
    Blend: AUG-CC-PVTZ-JKFIT

    Orbital Energies [Eh]
    ---------------------

    Doubly Occupied:

       1A    -20.601342     2A    -20.529929     3A    -15.589218
       4A    -11.405423     5A    -11.286406     6A    -11.200189
       7A     -1.456722     8A     -1.350603     9A     -1.216782
      10A     -1.048096    11A     -0.890843    12A     -0.802565
      13A     -0.744366    14A     -0.701563    15A     -0.686947
      16A     -0.643184    17A     -0.611618    18A     -0.588063
      19A     -0.547306    20A     -0.532740    21A     -0.514220
      22A     -0.463690    23A     -0.457303    24A     -0.430901

  @DF-RHF Final Energy:  -321.97795919085826

   => Energetics <=

    Nuclear Repulsion Energy =            247.0326119756255707
    One-Electron Energy =                -929.4211038867124444
    Two-Electron Energy =                 360.4105327202286730
    Total Energy =                       -321.9779591908582574
  Basis Set: (AUG-CC-PVTZ AUX)
    Blend: AUG-CC-PVTZ-RI
    Molecular point group: c1

    Geometry (in Angstrom), charge = 0, multiplicity = 1:

       Center              X                  Y                   Z               Mass
    ------------   -----------------  -----------------  -----------------  -----------------
         O           -0.249147737970    -0.499136854027     0.003855474010    15.994914619570
         O            1.197602262030     1.277724145973     0.011424474010    15.994914619570
         N            1.946312262030    -0.901701854027    -0.063327525990    14.003074004430
         C           -1.338714737970     0.451064145973     0.000167474010    12.000000000000
         C           -2.615216737970    -0.358911854027     0.004932474010    12.000000000000
         C            0.985854262030     0.075308145973     0.001449474010    12.000000000000
         H           -1.254794737970     1.094360145973     0.880098474010     1.007825032230
         H           -1.255318737970     1.084209145973    -0.887052525990     1.007825032230
         H           -3.480248737970     0.310199145973     0.001537474010     1.007825032230
         H           -2.657308537970    -0.881530554027    -0.716750725990     1.007825032230
         H           -2.666923737970    -0.989099854027     0.895410474010     1.007825032230
         H            1.679714262030    -1.837893854027     0.206451474010     1.007825032230
         H            2.879861262030    -0.602350854027     0.179713474010     1.007825032230

  Basis Set: AUG-CC-PVTZ
    Blend: AUG-CC-PVTZ
  Basis Set: (AUG-CC-PVTZ AUX)
    Blend: AUG-CC-PVTZ-JKFIT
	 Reference Energy          =    -321.9779591908582574 [Eh]
	 Singles Energy            =      -0.0000000000000000 [Eh]
	 Same-Spin Energy          =      -0.3135325378697298 [Eh]
	 Opposite-Spin Energy      =      -0.9930617827279773 [Eh]
	 Correlation Energy        =      -1.3065943205977071 [Eh]
	 Total Energy              =    -323.2845535114559539 [Eh]

	 ================> DF-SCS-MP2 Energies <==================
	-----------------------------------------------------------
	 SCS Same-Spin Scale       =       0.3333333333333333 [-]
	 SCS Opposite-Spin Scale   =       1.2000000000000000 [-]
	 SCS Same-Spin Energy      =      -0.1045108459565766 [Eh]
	 SCS Opposite-Spin Energy  =      -1.1916741392735728 [Eh]
	 SCS Correlation Energy    =      -1.2961849852301495 [Eh]
	 SCS Total Energy          =    -323.2741441760883845 [Eh]
	-----------------------------------------------------------

  Dipole Moment: [D]
     X:    -0.6426      Y:    -2.2414      Z:     0.6648     Total:     2.4247

*** Psi4 exiting successfully. Buy a developer a beer!
