                               Psi4 1.4a3.dev225

  ==> Input File <==

--------------------------------------------------------------------------
#psi4
#
memory 32 gb

molecule  {
0 1
  O       -0.1791250    -0.4779340     0.0014420
  O        1.2676250     1.2989270     0.0090110
  N        2.0163350    -0.8804990    -0.0657410
  C       -1.2686920     0.4722670    -0.0022460
  C       -2.5451940    -0.3377090     0.0025190
  C        1.0558770     0.0965110    -0.0009640
  H       -1.1847720     1.1155630     0.8776850
  H       -1.1852960     1.1054120    -0.8894660
  H       -3.4102260     0.3314020    -0.0008760
  H       -2.5967230    -0.9775020    -0.8809700
  H       -2.5969010    -0.9678970     0.8929970
  H        1.7180693    -1.8111843     0.1895493
  H        2.9498840    -0.5811480     0.1773000
units angstrom
no_reorient  #important for SAPT in psi4, default
symmetry c1  #important for SAPT in psi4, default
}

set PROPERTIES_ORIGIN ["COM"]
properties('MP2/aug-cc-pvtz', properties = ['dipole'])
--------------------------------------------------------------------------

    Molecular point group: c1
  Charge       = 0
  Multiplicity = 1
  Basis Set: AUG-CC-PVTZ
    Blend: AUG-CC-PVTZ
  Basis Set: (AUG-CC-PVTZ AUX)
    Blend: AUG-CC-PVTZ-JKFIT

    Orbital Energies [Eh]
    ---------------------

    Doubly Occupied:

       1A    -20.601795     2A    -20.529721     3A    -15.589337
       4A    -11.404980     5A    -11.288285     6A    -11.225005
       7A     -1.457108     8A     -1.350667     9A     -1.217082
      10A     -1.035244    11A     -0.874986    12A     -0.799123
      13A     -0.744446    14A     -0.702489    15A     -0.683392
      16A     -0.643131    17A     -0.598518    18A     -0.580763
      19A     -0.546390    20A     -0.521896    21A     -0.514254
      22A     -0.463033    23A     -0.457030    24A     -0.430783

  @DF-RHF Final Energy:  -322.01263188483080

   => Energetics <=

    Nuclear Repulsion Energy =            246.1567426265750385
    One-Electron Energy =                -927.8198326786513235
    Two-Electron Energy =                 359.6504581672455174
    Total Energy =                       -322.0126318848307960
  Basis Set: (AUG-CC-PVTZ AUX)
    Blend: AUG-CC-PVTZ-RI
    Molecular point group: c1

    Geometry (in Angstrom), charge = 0, multiplicity = 1:

       Center              X                  Y                   Z               Mass
    ------------   -----------------  -----------------  -----------------  -----------------
         O           -0.248682520371    -0.497873020938     0.005850742311    15.994914619570
         O            1.198067479629     1.278987979062     0.013419742311    15.994914619570
         N            1.946777479629    -0.900438020938    -0.061332257689    14.003074004430
         C           -1.338249520371     0.452327979062     0.002162742311    12.000000000000
         C           -2.614751520371    -0.357648020938     0.006927742311    12.000000000000
         C            0.986319479629     0.076571979062     0.003444742311    12.000000000000
         H           -1.254329520371     1.095623979062     0.882093742311     1.007825032230
         H           -1.254853520371     1.085472979062    -0.885057257689     1.007825032230
         H           -3.479783520371     0.311462979062     0.003532742311     1.007825032230
         H           -2.666280520371    -0.997441020938    -0.876561257689     1.007825032230
         H           -2.666458520371    -0.987836020938     0.897405742311     1.007825032230
         H            1.648511779629    -1.831123320938     0.193958042311     1.007825032230
         H            2.880326479629    -0.601087020938     0.181708742311     1.007825032230

  Basis Set: AUG-CC-PVTZ
    Blend: AUG-CC-PVTZ
  Basis Set: (AUG-CC-PVTZ AUX)
    Blend: AUG-CC-PVTZ-JKFIT
	 Reference Energy          =    -322.0126318848307960 [Eh]
	 Singles Energy            =      -0.0000000000000000 [Eh]
	 Same-Spin Energy          =      -0.3133325879540073 [Eh]
	 Opposite-Spin Energy      =      -0.9935170002701476 [Eh]
	 Correlation Energy        =      -1.3068495882241549 [Eh]
	 Total Energy              =    -323.3194814730549638 [Eh]

	 ================> DF-SCS-MP2 Energies <==================
	-----------------------------------------------------------
	 SCS Same-Spin Scale       =       0.3333333333333333 [-]
	 SCS Opposite-Spin Scale   =       1.2000000000000000 [-]
	 SCS Same-Spin Energy      =      -0.1044441959846691 [Eh]
	 SCS Opposite-Spin Energy  =      -1.1922204003241770 [Eh]
	 SCS Correlation Energy    =      -1.2966645963088461 [Eh]
	 SCS Total Energy          =    -323.3092964811396541 [Eh]
	-----------------------------------------------------------

  Dipole Moment: [D]
     X:    -0.6345      Y:    -2.1978      Z:     0.6957     Total:     2.3910

*** Psi4 exiting successfully. Buy a developer a beer!
