                               Psi4 1.4a3.dev225

  ==> Input File <==

--------------------------------------------------------------------------
#psi4
#
memory 32 gb

molecule  {
0 1
  O       -0.1791250    -0.4779340     0.0014420
  O        1.2676250     1.2989270     0.0090110
  N        2.0163350    -0.8804990    -0.0657410
  C       -1.2686920     0.4722670    -0.0022460
  C       -2.5451940    -0.3377090     0.0025190
  C        1.0558770     0.0965110    -0.0009640
  H       -1.1847720     1.1155630     0.8776850
  H       -1.1852960     1.1054120    -0.8894660
  H       -3.4893242     0.3925852    -0.0011864
  H       -2.5967230    -0.9775020    -0.8809700
  H       -2.5969010    -0.9678970     0.8929970
  H        1.7497370    -1.8166910     0.2040380
  H        2.9498840    -0.5811480     0.1773000
units angstrom
no_reorient  #important for SAPT in psi4, default
symmetry c1  #important for SAPT in psi4, default
}

set PROPERTIES_ORIGIN ["COM"]
properties('MP2/aug-cc-pvtz', properties = ['dipole'])
--------------------------------------------------------------------------

    Molecular point group: c1
  Charge       = 0
  Multiplicity = 1
  Basis Set: AUG-CC-PVTZ
    Blend: AUG-CC-PVTZ
  Basis Set: (AUG-CC-PVTZ AUX)
    Blend: AUG-CC-PVTZ-JKFIT

    Orbital Energies [Eh]
    ---------------------

    Doubly Occupied:

       1A    -20.602504     2A    -20.530718     3A    -15.589857
       4A    -11.406334     5A    -11.289167     6A    -11.236874
       7A     -1.457770     8A     -1.351510     9A     -1.217433
      10A     -1.032088    11A     -0.870119    12A     -0.800496
      13A     -0.744701    14A     -0.700808    15A     -0.684094
      16A     -0.642229    17A     -0.599544    18A     -0.580678
      19A     -0.527382    20A     -0.523139    21A     -0.515035
      22A     -0.463693    23A     -0.457813    24A     -0.431526

  @DF-RHF Final Energy:  -322.00625445679765

   => Energetics <=

    Nuclear Repulsion Energy =            245.7024658948911906
    One-Electron Energy =                -926.9064188500897217
    Two-Electron Energy =                 359.1976984984008254
    Total Energy =                       -322.0062544567976488
  Basis Set: (AUG-CC-PVTZ AUX)
    Blend: AUG-CC-PVTZ-RI
    Molecular point group: c1

    Geometry (in Angstrom), charge = 0, multiplicity = 1:

       Center              X                  Y                   Z               Mass
    ------------   -----------------  -----------------  -----------------  -----------------
         O           -0.248145710810    -0.498503157191     0.005690274954    15.994914619570
         O            1.198604289190     1.278357842809     0.013259274954    15.994914619570
         N            1.947314289190    -0.901068157191    -0.061492725046    14.003074004430
         C           -1.337712710810     0.451697842809     0.002002274954    12.000000000000
         C           -2.614214710810    -0.358278157191     0.006767274954    12.000000000000
         C            0.986856289190     0.075941842809     0.003284274954    12.000000000000
         H           -1.253792710810     1.094993842809     0.881933274954     1.007825032230
         H           -1.254316710810     1.084842842809    -0.885217725046     1.007825032230
         H           -3.558344910810     0.372016042809     0.003061874954     1.007825032230
         H           -2.665743710810    -0.998071157191    -0.876721725046     1.007825032230
         H           -2.665921710810    -0.988466157191     0.897245274954     1.007825032230
         H            1.680716289190    -1.837260157191     0.208286274954     1.007825032230
         H            2.880863289190    -0.601717157191     0.181548274954     1.007825032230

  Basis Set: AUG-CC-PVTZ
    Blend: AUG-CC-PVTZ
  Basis Set: (AUG-CC-PVTZ AUX)
    Blend: AUG-CC-PVTZ-JKFIT
	 Reference Energy          =    -322.0062544567976488 [Eh]
	 Singles Energy            =      -0.0000000000000000 [Eh]
	 Same-Spin Energy          =      -0.3132470913122253 [Eh]
	 Opposite-Spin Energy      =      -0.9941667407235364 [Eh]
	 Correlation Energy        =      -1.3074138320357616 [Eh]
	 Total Energy              =    -323.3136682888334121 [Eh]

	 ================> DF-SCS-MP2 Energies <==================
	-----------------------------------------------------------
	 SCS Same-Spin Scale       =       0.3333333333333333 [-]
	 SCS Opposite-Spin Scale   =       1.2000000000000000 [-]
	 SCS Same-Spin Energy      =      -0.1044156971040751 [Eh]
	 SCS Opposite-Spin Energy  =      -1.1930000888682437 [Eh]
	 SCS Correlation Energy    =      -1.2974157859723188 [Eh]
	 SCS Total Energy          =    -323.3036702427699538 [Eh]
	-----------------------------------------------------------

  Dipole Moment: [D]
     X:    -0.5548      Y:    -2.2235      Z:     0.7154     Total:     2.4008

*** Psi4 exiting successfully. Buy a developer a beer!
