                               Psi4 1.4a3.dev225

  ==> Input File <==

--------------------------------------------------------------------------
#psi4
#
memory 32 gb

molecule  {
0 1
  O       -0.1791250    -0.4779340     0.0014420
  O        1.2676250     1.2989270     0.0090110
  N        2.0163350    -0.8804990    -0.0657410
  C       -1.2686920     0.4722670    -0.0022460
  C       -2.5451940    -0.3377090     0.0025190
  C        1.0558770     0.0965110    -0.0009640
  H       -1.1847720     1.1155630     0.8776850
  H       -1.1852960     1.1054120    -0.8894660
  H       -3.4102260     0.3314020    -0.0008760
  H       -2.5967230    -0.9775020    -0.8809700
  H       -2.6063700    -1.0833016     1.0560679
  H        1.7497370    -1.8166910     0.2040380
  H        2.9498840    -0.5811480     0.1773000
units angstrom
no_reorient  #important for SAPT in psi4, default
symmetry c1  #important for SAPT in psi4, default
}

set PROPERTIES_ORIGIN ["COM"]
properties('MP2/aug-cc-pvtz', properties = ['dipole'])
--------------------------------------------------------------------------

    Molecular point group: c1
  Charge       = 0
  Multiplicity = 1
  Basis Set: AUG-CC-PVTZ
    Blend: AUG-CC-PVTZ
  Basis Set: (AUG-CC-PVTZ AUX)
    Blend: AUG-CC-PVTZ-JKFIT

    Orbital Energies [Eh]
    ---------------------

    Doubly Occupied:

       1A    -20.602343     2A    -20.530752     3A    -15.589700
       4A    -11.406191     5A    -11.291083     6A    -11.247983
       7A     -1.457680     8A     -1.351478     9A     -1.217293
      10A     -1.031003    11A     -0.867885    12A     -0.798816
      13A     -0.745242    14A     -0.700820    15A     -0.682744
      16A     -0.643054    17A     -0.591553    18A     -0.579556
      19A     -0.547381    20A     -0.518188    21A     -0.495444
      22A     -0.461346    23A     -0.457547    24A     -0.431311

  @DF-RHF Final Energy:  -321.99277626744498

   => Energetics <=

    Nuclear Repulsion Energy =            245.3856572892120198
    One-Electron Energy =                -926.2640782746296964
    Two-Electron Energy =                 358.8856447179727525
    Total Energy =                       -321.9927762674449809
  Basis Set: (AUG-CC-PVTZ AUX)
    Blend: AUG-CC-PVTZ-RI
    Molecular point group: c1

    Geometry (in Angstrom), charge = 0, multiplicity = 1:

       Center              X                  Y                   Z               Mass
    ------------   -----------------  -----------------  -----------------  -----------------
         O           -0.248933761121    -0.496504569375     0.003841155844    15.994914619570
         O            1.197816238879     1.280356430625     0.011410155844    15.994914619570
         N            1.946526238879    -0.899069569375    -0.063341844156    14.003074004430
         C           -1.338500761121     0.453696430625     0.000153155844    12.000000000000
         C           -2.615002761121    -0.356279569375     0.004918155844    12.000000000000
         C            0.986068238879     0.077940430625     0.001435155844    12.000000000000
         H           -1.254580761121     1.096992430625     0.880084155844     1.007825032230
         H           -1.255104761121     1.086841430625    -0.887066844156     1.007825032230
         H           -3.480034761121     0.312831430625     0.001523155844     1.007825032230
         H           -2.666531761121    -0.996072569375    -0.878570844156     1.007825032230
         H           -2.676178761121    -1.101872169375     1.058467055844     1.007825032230
         H            1.679928238879    -1.835261569375     0.206437155844     1.007825032230
         H            2.880075238879    -0.599718569375     0.179699155844     1.007825032230

  Basis Set: AUG-CC-PVTZ
    Blend: AUG-CC-PVTZ
  Basis Set: (AUG-CC-PVTZ AUX)
    Blend: AUG-CC-PVTZ-JKFIT
	 Reference Energy          =    -321.9927762674449809 [Eh]
	 Singles Energy            =      -0.0000000000000000 [Eh]
	 Same-Spin Energy          =      -0.3131954153076731 [Eh]
	 Opposite-Spin Energy      =      -0.9949525497211034 [Eh]
	 Correlation Energy        =      -1.3081479650287764 [Eh]
	 Total Energy              =    -323.3009242324737329 [Eh]

	 ================> DF-SCS-MP2 Energies <==================
	-----------------------------------------------------------
	 SCS Same-Spin Scale       =       0.3333333333333333 [-]
	 SCS Opposite-Spin Scale   =       1.2000000000000000 [-]
	 SCS Same-Spin Energy      =      -0.1043984717692244 [Eh]
	 SCS Opposite-Spin Energy  =      -1.1939430596653240 [Eh]
	 SCS Correlation Energy    =      -1.2983415314345483 [Eh]
	 SCS Total Energy          =    -323.2911177988795544 [Eh]
	-----------------------------------------------------------

  Dipole Moment: [D]
     X:    -0.5647      Y:    -2.1173      Z:     0.6175     Total:     2.2767

*** Psi4 exiting successfully. Buy a developer a beer!
