                               Psi4 1.4a3.dev225

  ==> Input File <==

--------------------------------------------------------------------------
#psi4
#
memory 32 gb

molecule  {
0 1
  O       -0.1791250    -0.4779340     0.0014420
  O        1.2676250     1.2989270     0.0090110
  N        2.0163350    -0.8804990    -0.0657410
  C       -1.2686920     0.4722670    -0.0022460
  C       -2.5451940    -0.3377090     0.0025190
  C        1.0905625     0.2934735     0.0006700
  H       -1.1847720     1.1155630     0.8776850
  H       -1.1852960     1.1054120    -0.8894660
  H       -3.4102260     0.3314020    -0.0008760
  H       -2.5967230    -0.9775020    -0.8809700
  H       -2.5969010    -0.9678970     0.8929970
  H        1.7497370    -1.8166910     0.2040380
  H        2.9498840    -0.5811480     0.1773000
units angstrom
no_reorient  #important for SAPT in psi4, default
symmetry c1  #important for SAPT in psi4, default
}

set PROPERTIES_ORIGIN ["COM"]
properties('MP2/aug-cc-pvtz', properties = ['dipole'])
--------------------------------------------------------------------------

    Molecular point group: c1
  Charge       = 0
  Multiplicity = 1
  Basis Set: AUG-CC-PVTZ
    Blend: AUG-CC-PVTZ
  Basis Set: (AUG-CC-PVTZ AUX)
    Blend: AUG-CC-PVTZ-JKFIT

    Orbital Energies [Eh]
    ---------------------

    Doubly Occupied:

       1A    -20.584888     2A    -20.572255     3A    -15.565004
       4A    -11.396324     5A    -11.276324     6A    -11.217146
       7A     -1.576865     8A     -1.361737     9A     -1.166138
      10A     -1.015806    11A     -0.848592    12A     -0.786569
      13A     -0.753396    14A     -0.726123    15A     -0.700655
      16A     -0.659712    17A     -0.634106    18A     -0.574324
      19A     -0.545555    20A     -0.527206    21A     -0.512600
      22A     -0.465452    23A     -0.454531    24A     -0.415875

  @DF-RHF Final Energy:  -321.92306162784035

   => Energetics <=

    Nuclear Repulsion Energy =            246.9871835011609278
    One-Electron Energy =                -929.1461218595783293
    Two-Electron Energy =                 360.2358767305769902
    Total Energy =                       -321.9230616278403545
  Basis Set: (AUG-CC-PVTZ AUX)
    Blend: AUG-CC-PVTZ-RI
    Molecular point group: c1

    Geometry (in Angstrom), charge = 0, multiplicity = 1:

       Center              X                  Y                   Z               Mass
    ------------   -----------------  -----------------  -----------------  -----------------
         O           -0.253715122102    -0.524353219529     0.005466565260    15.994914619570
         O            1.193034877898     1.252507780471     0.013035565260    15.994914619570
         N            1.941744877898    -0.926918219529    -0.061716434740    14.003074004430
         C           -1.343282122102     0.425847780471     0.001778565260    12.000000000000
         C           -2.619784122102    -0.384128219529     0.006543565260    12.000000000000
         C            1.015972377898     0.247054280471     0.004694565260    12.000000000000
         H           -1.259362122102     1.069143780471     0.881709565260     1.007825032230
         H           -1.259886122102     1.058992780471    -0.885441434740     1.007825032230
         H           -3.484816122102     0.284982780471     0.003148565260     1.007825032230
         H           -2.671313122102    -1.023921219529    -0.876945434740     1.007825032230
         H           -2.671491122102    -1.014316219529     0.897021565260     1.007825032230
         H            1.675146877898    -1.863110219529     0.208062565260     1.007825032230
         H            2.875293877898    -0.627567219529     0.181324565260     1.007825032230

  Basis Set: AUG-CC-PVTZ
    Blend: AUG-CC-PVTZ
  Basis Set: (AUG-CC-PVTZ AUX)
    Blend: AUG-CC-PVTZ-JKFIT
	 Reference Energy          =    -321.9230616278403545 [Eh]
	 Singles Energy            =      -0.0000000000000000 [Eh]
	 Same-Spin Energy          =      -0.3114938783128326 [Eh]
	 Opposite-Spin Energy      =      -0.9914044898502388 [Eh]
	 Correlation Energy        =      -1.3028983681630715 [Eh]
	 Total Energy              =    -323.2259599960034393 [Eh]

	 ================> DF-SCS-MP2 Energies <==================
	-----------------------------------------------------------
	 SCS Same-Spin Scale       =       0.3333333333333333 [-]
	 SCS Opposite-Spin Scale   =       1.2000000000000000 [-]
	 SCS Same-Spin Energy      =      -0.1038312927709442 [Eh]
	 SCS Opposite-Spin Energy  =      -1.1896853878202864 [Eh]
	 SCS Correlation Energy    =      -1.2935166805912306 [Eh]
	 SCS Total Energy          =    -323.2165783084315649 [Eh]
	-----------------------------------------------------------

  Dipole Moment: [D]
     X:    -0.1442      Y:    -0.3694      Z:     0.7452     Total:     0.8442

*** Psi4 exiting successfully. Buy a developer a beer!
