                               Psi4 1.4a3.dev225

  ==> Input File <==

--------------------------------------------------------------------------
#psi4
#
memory 32 gb

molecule  {
0 1
  O       -0.1791250    -0.4779340     0.0014420
  O        1.2676250     1.2989270     0.0090110
  N        2.0163350    -0.8804990    -0.0657410
  C       -1.2686920     0.4722670    -0.0022460
  C       -2.5451940    -0.3377090     0.0025190
  C        1.1562331     0.1877406    -0.0480480
  H       -1.1847720     1.1155630     0.8776850
  H       -1.1852960     1.1054120    -0.8894660
  H       -3.4102260     0.3314020    -0.0008760
  H       -2.5967230    -0.9775020    -0.8809700
  H       -2.5969010    -0.9678970     0.8929970
  H        1.7497370    -1.8166910     0.2040380
  H        2.9498840    -0.5811480     0.1773000
units angstrom
no_reorient  #important for SAPT in psi4, default
symmetry c1  #important for SAPT in psi4, default
}

set PROPERTIES_ORIGIN ["COM"]
properties('MP2/aug-cc-pvtz', properties = ['dipole'])
--------------------------------------------------------------------------

    Molecular point group: c1
  Charge       = 0
  Multiplicity = 1
  Basis Set: AUG-CC-PVTZ
    Blend: AUG-CC-PVTZ
  Basis Set: (AUG-CC-PVTZ AUX)
    Blend: AUG-CC-PVTZ-JKFIT

    Orbital Energies [Eh]
    ---------------------

    Doubly Occupied:

       1A    -20.566806     2A    -20.560848     3A    -15.591944
       4A    -11.403812     5A    -11.271779     6A    -11.214285
       7A     -1.489855     8A     -1.347867     9A     -1.222007
      10A     -1.013035    11A     -0.852148    12A     -0.797135
      13A     -0.748568    14A     -0.706422    15A     -0.669694
      16A     -0.656780    17A     -0.613139    18A     -0.575918
      19A     -0.534861    20A     -0.519303    21A     -0.508862
      22A     -0.462630    23A     -0.453259    24A     -0.433793

  @DF-RHF Final Energy:  -321.98739288613774

   => Energetics <=

    Nuclear Repulsion Energy =            245.8221641339183634
    One-Electron Energy =                -927.1896115052101095
    Two-Electron Energy =                 359.3800544851540053
    Total Energy =                       -321.9873928861377408
  Basis Set: (AUG-CC-PVTZ AUX)
    Blend: AUG-CC-PVTZ-RI
    Molecular point group: c1

    Geometry (in Angstrom), charge = 0, multiplicity = 1:

       Center              X                  Y                   Z               Mass
    ------------   -----------------  -----------------  -----------------  -----------------
         O           -0.262564844111    -0.510104731283     0.012031767296    15.994914619570
         O            1.184185155889     1.266756268717     0.019600767296    15.994914619570
         N            1.932895155889    -0.912669731283    -0.055151232704    14.003074004430
         C           -1.352131844111     0.440096268717     0.008343767296    12.000000000000
         C           -2.628633844111    -0.369879731283     0.013108767296    12.000000000000
         C            1.072793255889     0.155569868717    -0.037458232704    12.000000000000
         H           -1.268211844111     1.083392268717     0.888274767296     1.007825032230
         H           -1.268735844111     1.073241268717    -0.878876232704     1.007825032230
         H           -3.493665844111     0.299231268717     0.009713767296     1.007825032230
         H           -2.680162844111    -1.009672731283    -0.870380232704     1.007825032230
         H           -2.680340844111    -1.000067731283     0.903586767296     1.007825032230
         H            1.666297155889    -1.848861731283     0.214627767296     1.007825032230
         H            2.866444155889    -0.613318731283     0.187889767296     1.007825032230

  Basis Set: AUG-CC-PVTZ
    Blend: AUG-CC-PVTZ
  Basis Set: (AUG-CC-PVTZ AUX)
    Blend: AUG-CC-PVTZ-JKFIT
	 Reference Energy          =    -321.9873928861377408 [Eh]
	 Singles Energy            =      -0.0000000000000000 [Eh]
	 Same-Spin Energy          =      -0.3131744083760734 [Eh]
	 Opposite-Spin Energy      =      -0.9937385857901895 [Eh]
	 Correlation Energy        =      -1.3069129941662627 [Eh]
	 Total Energy              =    -323.2943058803040230 [Eh]

	 ================> DF-SCS-MP2 Energies <==================
	-----------------------------------------------------------
	 SCS Same-Spin Scale       =       0.3333333333333333 [-]
	 SCS Opposite-Spin Scale   =       1.2000000000000000 [-]
	 SCS Same-Spin Energy      =      -0.1043914694586911 [Eh]
	 SCS Opposite-Spin Energy  =      -1.1924863029482273 [Eh]
	 SCS Correlation Energy    =      -1.2968777724069185 [Eh]
	 SCS Total Energy          =    -323.2842706585446422 [Eh]
	-----------------------------------------------------------

  Dipole Moment: [D]
     X:     0.5156      Y:    -1.4756      Z:     0.6419     Total:     1.6897

*** Psi4 exiting successfully. Buy a developer a beer!
