                               Psi4 1.4a3.dev225

  ==> Input File <==

--------------------------------------------------------------------------
#psi4
#
memory 32 gb

molecule  {
0 1
  O       -0.1791250    -0.4779340     0.0014420
  O        1.2676250     1.2989270     0.0090110
  N        2.0163350    -0.8804990    -0.0657410
  C       -1.2686920     0.4722670    -0.0022460
  C       -2.5451940    -0.3377090     0.0025190
  C        1.0558770     0.0965110    -0.0009640
  H       -1.1847720     1.1155630     0.8776850
  H       -1.1852960     1.1054120    -0.8894660
  H       -3.4102260     0.3314020    -0.0008760
  H       -2.5967230    -0.9775020    -0.8809700
  H       -2.5969010    -0.9678970     0.8929970
  H        1.7817295    -1.8210571     0.2181980
  H        2.9498840    -0.5811480     0.1773000
units angstrom
no_reorient  #important for SAPT in psi4, default
symmetry c1  #important for SAPT in psi4, default
}

set PROPERTIES_ORIGIN ["COM"]
properties('MP2/aug-cc-pvtz', properties = ['dipole'])
--------------------------------------------------------------------------

    Molecular point group: c1
  Charge       = 0
  Multiplicity = 1
  Basis Set: AUG-CC-PVTZ
    Blend: AUG-CC-PVTZ
  Basis Set: (AUG-CC-PVTZ AUX)
    Blend: AUG-CC-PVTZ-JKFIT

    Orbital Energies [Eh]
    ---------------------

    Doubly Occupied:

       1A    -20.601458     2A    -20.530627     3A    -15.589349
       4A    -11.406313     5A    -11.288002     6A    -11.224754
       7A     -1.456899     8A     -1.351025     9A     -1.216768
      10A     -1.035147    11A     -0.875709    12A     -0.801002
      13A     -0.744827    14A     -0.699258    15A     -0.683131
      16A     -0.641850    17A     -0.598552    18A     -0.580795
      19A     -0.545979    20A     -0.521845    21A     -0.513943
      22A     -0.462952    23A     -0.458088    24A     -0.431341

  @DF-RHF Final Energy:  -322.01249067059587

   => Energetics <=

    Nuclear Repulsion Energy =            246.0526106613759794
    One-Electron Energy =                -927.6109778852761565
    Two-Electron Energy =                 359.5458765533043106
    Total Energy =                       -322.0124906705958665
  Basis Set: (AUG-CC-PVTZ AUX)
    Blend: AUG-CC-PVTZ-RI
    Molecular point group: c1

    Geometry (in Angstrom), charge = 0, multiplicity = 1:

       Center              X                  Y                   Z               Mass
    ------------   -----------------  -----------------  -----------------  -----------------
         O           -0.249403014652    -0.497761282427     0.005526501663    15.994914619570
         O            1.197346985348     1.279099717573     0.013095501663    15.994914619570
         N            1.946056985348    -0.900326282427    -0.061656498337    14.003074004430
         C           -1.338970014652     0.452439717573     0.001838501663    12.000000000000
         C           -2.615472014652    -0.357536282427     0.006603501663    12.000000000000
         C            0.985598985348     0.076683717573     0.003120501663    12.000000000000
         H           -1.255050014652     1.095735717573     0.881769501663     1.007825032230
         H           -1.255574014652     1.085584717573    -0.885381498337     1.007825032230
         H           -3.480504014652     0.311574717573     0.003208501663     1.007825032230
         H           -2.667001014652    -0.997329282427    -0.876885498337     1.007825032230
         H           -2.667179014652    -0.987724282427     0.897081501663     1.007825032230
         H            1.711451485348    -1.840884382427     0.222282501663     1.007825032230
         H            2.879605985348    -0.600975282427     0.181384501663     1.007825032230

  Basis Set: AUG-CC-PVTZ
    Blend: AUG-CC-PVTZ
  Basis Set: (AUG-CC-PVTZ AUX)
    Blend: AUG-CC-PVTZ-JKFIT
	 Reference Energy          =    -322.0124906705958665 [Eh]
	 Singles Energy            =      -0.0000000000000000 [Eh]
	 Same-Spin Energy          =      -0.3133104996819517 [Eh]
	 Opposite-Spin Energy      =      -0.9935509824452404 [Eh]
	 Correlation Energy        =      -1.3068614821271922 [Eh]
	 Total Energy              =    -323.3193521527230700 [Eh]

	 ================> DF-SCS-MP2 Energies <==================
	-----------------------------------------------------------
	 SCS Same-Spin Scale       =       0.3333333333333333 [-]
	 SCS Opposite-Spin Scale   =       1.2000000000000000 [-]
	 SCS Same-Spin Energy      =      -0.1044368332273172 [Eh]
	 SCS Opposite-Spin Energy  =      -1.1922611789342885 [Eh]
	 SCS Correlation Energy    =      -1.2966980121616059 [Eh]
	 SCS Total Energy          =    -323.3091886827574513 [Eh]
	-----------------------------------------------------------

  Dipole Moment: [D]
     X:    -0.5913      Y:    -2.1960      Z:     0.7348     Total:     2.3900

*** Psi4 exiting successfully. Buy a developer a beer!
