                               Psi4 1.4a3.dev225

  ==> Input File <==

--------------------------------------------------------------------------
#psi4
#
memory 32 gb

molecule  {
0 1
  O       -0.1791250    -0.4779340     0.0014420
  O        1.2676250     1.2989270     0.0090110
  N        2.0163350    -0.8804990    -0.0657410
  C       -1.2686920     0.4722670    -0.0022460
  C       -2.5451940    -0.3377090     0.0025190
  C        1.0558770     0.0965110    -0.0009640
  H       -1.1847720     1.1155630     0.8776850
  H       -1.1852960     1.1054120    -0.8894660
  H       -3.4260456     0.3436386    -0.0009381
  H       -2.5967230    -0.9775020    -0.8809700
  H       -2.5969010    -0.9678970     0.8929970
  H        1.7497370    -1.8166910     0.2040380
  H        2.9498840    -0.5811480     0.1773000
units angstrom
no_reorient  #important for SAPT in psi4, default
symmetry c1  #important for SAPT in psi4, default
}

set PROPERTIES_ORIGIN ["COM"]
properties('MP2/aug-cc-pvtz', properties = ['dipole'])
--------------------------------------------------------------------------

    Molecular point group: c1
  Charge       = 0
  Multiplicity = 1
  Basis Set: AUG-CC-PVTZ
    Blend: AUG-CC-PVTZ
  Basis Set: (AUG-CC-PVTZ AUX)
    Blend: AUG-CC-PVTZ-JKFIT

    Orbital Energies [Eh]
    ---------------------

    Doubly Occupied:

       1A    -20.601775     2A    -20.530273     3A    -15.589446
       4A    -11.405766     5A    -11.288323     6A    -11.227330
       7A     -1.457132     8A     -1.350963     9A     -1.217001
      10A     -1.034416    11A     -0.874119    12A     -0.800105
      13A     -0.744629    14A     -0.700847    15A     -0.683403
      16A     -0.642465    17A     -0.598712    18A     -0.580652
      19A     -0.542468    20A     -0.522096    21A     -0.514309
      22A     -0.463104    23A     -0.457622    24A     -0.431150

  @DF-RHF Final Energy:  -322.01220139547507

   => Energetics <=

    Nuclear Repulsion Energy =            246.0193334260700624
    One-Electron Energy =                -927.5468582449841506
    Two-Electron Energy =                 359.5153234234390425
    Total Energy =                       -322.0122013954750742
  Basis Set: (AUG-CC-PVTZ AUX)
    Blend: AUG-CC-PVTZ-RI
    Molecular point group: c1

    Geometry (in Angstrom), charge = 0, multiplicity = 1:

       Center              X                  Y                   Z               Mass
    ------------   -----------------  -----------------  -----------------  -----------------
         O           -0.248861886214    -0.497949188692     0.005687464741    15.994914619570
         O            1.197888113786     1.278911811308     0.013256464741    15.994914619570
         N            1.946598113786    -0.900514188692    -0.061495535259    14.003074004430
         C           -1.338428886214     0.452251811308     0.001999464741    12.000000000000
         C           -2.614930886214    -0.357724188692     0.006764464741    12.000000000000
         C            0.986140113786     0.076495811308     0.003281464741    12.000000000000
         H           -1.254508886214     1.095547811308     0.881930464741     1.007825032230
         H           -1.255032886214     1.085396811308    -0.885220535259     1.007825032230
         H           -3.495782486214     0.323623411308     0.003307364741     1.007825032230
         H           -2.666459886214    -0.997517188692    -0.876724535259     1.007825032230
         H           -2.666637886214    -0.987912188692     0.897242464741     1.007825032230
         H            1.680000113786    -1.836706188692     0.208283464741     1.007825032230
         H            2.880147113786    -0.601163188692     0.181545464741     1.007825032230

  Basis Set: AUG-CC-PVTZ
    Blend: AUG-CC-PVTZ
  Basis Set: (AUG-CC-PVTZ AUX)
    Blend: AUG-CC-PVTZ-JKFIT
	 Reference Energy          =    -322.0122013954750742 [Eh]
	 Singles Energy            =      -0.0000000000000000 [Eh]
	 Same-Spin Energy          =      -0.3133007389294906 [Eh]
	 Opposite-Spin Energy      =      -0.9936375408140108 [Eh]
	 Correlation Energy        =      -1.3069382797435014 [Eh]
	 Total Energy              =    -323.3191396752185938 [Eh]

	 ================> DF-SCS-MP2 Energies <==================
	-----------------------------------------------------------
	 SCS Same-Spin Scale       =       0.3333333333333333 [-]
	 SCS Opposite-Spin Scale   =       1.2000000000000000 [-]
	 SCS Same-Spin Energy      =      -0.1044335796431635 [Eh]
	 SCS Opposite-Spin Energy  =      -1.1923650489768129 [Eh]
	 SCS Correlation Energy    =      -1.2967986286199764 [Eh]
	 SCS Total Energy          =    -323.3090000240950417 [Eh]
	-----------------------------------------------------------

  Dipole Moment: [D]
     X:    -0.6024      Y:    -2.2024      Z:     0.7154     Total:     2.3927

*** Psi4 exiting successfully. Buy a developer a beer!
