                               Psi4 1.4a3.dev225

  ==> Input File <==

--------------------------------------------------------------------------
#psi4
#
memory 32 gb

molecule  {
0 1
  O       -0.1791250    -0.4779340     0.0014420
  O        1.2676250     1.2989270     0.0090110
  N        2.0163350    -0.8804990    -0.0657410
  C       -1.2686920     0.4722670    -0.0022460
  C       -2.5451940    -0.3377090     0.0025190
  C        1.0558770     0.0965110    -0.0009640
  H       -1.1847720     1.1155630     0.8776850
  H       -1.1852960     1.1054120    -0.8894660
  H       -3.4102260     0.3314020    -0.0008760
  H       -2.5967230    -0.9775020    -0.8809700
  H       -2.6016355    -1.0255993     0.9745324
  H        1.7497370    -1.8166910     0.2040380
  H        2.9498840    -0.5811480     0.1773000
units angstrom
no_reorient  #important for SAPT in psi4, default
symmetry c1  #important for SAPT in psi4, default
}

set PROPERTIES_ORIGIN ["COM"]
properties('MP2/aug-cc-pvtz', properties = ['dipole'])
--------------------------------------------------------------------------

    Molecular point group: c1
  Charge       = 0
  Multiplicity = 1
  Basis Set: AUG-CC-PVTZ
    Blend: AUG-CC-PVTZ
  Basis Set: (AUG-CC-PVTZ AUX)
    Blend: AUG-CC-PVTZ-JKFIT

    Orbital Energies [Eh]
    ---------------------

    Doubly Occupied:

       1A    -20.601914     2A    -20.530418     3A    -15.589498
       4A    -11.405868     5A    -11.289464     6A    -11.236798
       7A     -1.457276     8A     -1.351106     9A     -1.217063
      10A     -1.032309    11A     -0.870725    12A     -0.799214
      13A     -0.744892    14A     -0.700723    15A     -0.682821
      16A     -0.642720    17A     -0.593659    18A     -0.580195
      19A     -0.546276    20A     -0.517209    21A     -0.508238
      22A     -0.462474    23A     -0.457686    24A     -0.431181

  @DF-RHF Final Energy:  -322.00629382868658

   => Energetics <=

    Nuclear Repulsion Energy =            245.7244097906280160
    One-Electron Energy =                -926.9619543345547754
    Two-Electron Energy =                 359.2312507152402077
    Total Energy =                       -322.0062938286865801
  Basis Set: (AUG-CC-PVTZ AUX)
    Blend: AUG-CC-PVTZ-RI
    Molecular point group: c1

    Geometry (in Angstrom), charge = 0, multiplicity = 1:

       Center              X                  Y                   Z               Mass
    ------------   -----------------  -----------------  -----------------  -----------------
         O           -0.248987345310    -0.497157633254     0.004763959440    15.994914619570
         O            1.197762654690     1.279703366746     0.012332959440    15.994914619570
         N            1.946472654690    -0.899722633254    -0.062419040560    14.003074004430
         C           -1.338554345310     0.453043366746     0.001075959440    12.000000000000
         C           -2.615056345310    -0.356932633254     0.005840959440    12.000000000000
         C            0.986014654690     0.077287366746     0.002357959440    12.000000000000
         H           -1.254634345310     1.096339366746     0.881006959440     1.007825032230
         H           -1.255158345310     1.086188366746    -0.886144040560     1.007825032230
         H           -3.480088345310     0.312178366746     0.002445959440     1.007825032230
         H           -2.666585345310    -0.996725633254    -0.877648040560     1.007825032230
         H           -2.671497845310    -1.044822933254     0.977854359440     1.007825032230
         H            1.679874654690    -1.835914633254     0.207359959440     1.007825032230
         H            2.880021654690    -0.600371633254     0.180621959440     1.007825032230

  Basis Set: AUG-CC-PVTZ
    Blend: AUG-CC-PVTZ
  Basis Set: (AUG-CC-PVTZ AUX)
    Blend: AUG-CC-PVTZ-JKFIT
	 Reference Energy          =    -322.0062938286865801 [Eh]
	 Singles Energy            =      -0.0000000000000000 [Eh]
	 Same-Spin Energy          =      -0.3132569578311124 [Eh]
	 Opposite-Spin Energy      =      -0.9941631106011469 [Eh]
	 Correlation Energy        =      -1.3074200684322594 [Eh]
	 Total Energy              =    -323.3137138971188165 [Eh]

	 ================> DF-SCS-MP2 Energies <==================
	-----------------------------------------------------------
	 SCS Same-Spin Scale       =       0.3333333333333333 [-]
	 SCS Opposite-Spin Scale   =       1.2000000000000000 [-]
	 SCS Same-Spin Energy      =      -0.1044189859437041 [Eh]
	 SCS Opposite-Spin Energy  =      -1.1929957327213763 [Eh]
	 SCS Correlation Energy    =      -1.2974147186650804 [Eh]
	 SCS Total Energy          =    -323.3037085473516754 [Eh]
	-----------------------------------------------------------

  Dipole Moment: [D]
     X:    -0.5912      Y:    -2.1617      Z:     0.6715     Total:     2.3395

*** Psi4 exiting successfully. Buy a developer a beer!
