                               Psi4 1.4a3.dev225

  ==> Input File <==

--------------------------------------------------------------------------
#psi4
#
memory 32 gb

molecule  {
0 1
  O       -0.1791250    -0.4779340     0.0014420
  O        1.2676250     1.2989270     0.0090110
  N        2.0163350    -0.8804990    -0.0657410
  C       -1.2412014     0.4272249    -0.0020088
  C       -2.5451940    -0.3377090     0.0025190
  C        1.0558770     0.0965110    -0.0009640
  H       -1.1847720     1.1155630     0.8776850
  H       -1.1852960     1.1054120    -0.8894660
  H       -3.4102260     0.3314020    -0.0008760
  H       -2.5967230    -0.9775020    -0.8809700
  H       -2.5969010    -0.9678970     0.8929970
  H        1.7497370    -1.8166910     0.2040380
  H        2.9498840    -0.5811480     0.1773000
units angstrom
no_reorient  #important for SAPT in psi4, default
symmetry c1  #important for SAPT in psi4, default
}

set PROPERTIES_ORIGIN ["COM"]
properties('MP2/aug-cc-pvtz', properties = ['dipole'])
--------------------------------------------------------------------------

    Molecular point group: c1
  Charge       = 0
  Multiplicity = 1
  Basis Set: AUG-CC-PVTZ
    Blend: AUG-CC-PVTZ
  Basis Set: (AUG-CC-PVTZ AUX)
    Blend: AUG-CC-PVTZ-JKFIT

    Orbital Energies [Eh]
    ---------------------

    Doubly Occupied:

       1A    -20.606944     2A    -20.533363     3A    -15.592107
       4A    -11.409605     5A    -11.287851     6A    -11.223218
       7A     -1.469156     8A     -1.358838     9A     -1.220719
      10A     -1.033511    11A     -0.880697    12A     -0.798295
      13A     -0.750195    14A     -0.705401    15A     -0.686890
      16A     -0.647269    17A     -0.596877    18A     -0.586798
      19A     -0.552234    20A     -0.522028    21A     -0.504841
      22A     -0.461100    23A     -0.454627    24A     -0.432537

  @DF-RHF Final Energy:  -322.01057290337070

   => Energetics <=

    Nuclear Repulsion Energy =            246.8588697292031213
    One-Electron Energy =                -929.1086774552578618
    Two-Electron Energy =                 360.2392348226840681
    Total Energy =                       -322.0105729033707007
  Basis Set: (AUG-CC-PVTZ AUX)
    Blend: AUG-CC-PVTZ-RI
    Molecular point group: c1

    Geometry (in Angstrom), charge = 0, multiplicity = 1:

       Center              X                  Y                   Z               Mass
    ------------   -----------------  -----------------  -----------------  -----------------
         O           -0.252745542642    -0.491740856692     0.005654797006    15.994914619570
         O            1.194004457358     1.285120143308     0.013223797006    15.994914619570
         N            1.942714457358    -0.894305856692    -0.061528202994    14.003074004430
         C           -1.314821942642     0.413418043308     0.002203997006    12.000000000000
         C           -2.618814542642    -0.351515856692     0.006731797006    12.000000000000
         C            0.982256457358     0.082704143308     0.003248797006    12.000000000000
         H           -1.258392542642     1.101756143308     0.881897797006     1.007825032230
         H           -1.258916542642     1.091605143308    -0.885253202994     1.007825032230
         H           -3.483846542642     0.317595143308     0.003336797006     1.007825032230
         H           -2.670343542642    -0.991308856692    -0.876757202994     1.007825032230
         H           -2.670521542642    -0.981703856692     0.897209797006     1.007825032230
         H            1.676116457358    -1.830497856692     0.208250797006     1.007825032230
         H            2.876263457358    -0.594954856692     0.181512797006     1.007825032230

  Basis Set: AUG-CC-PVTZ
    Blend: AUG-CC-PVTZ
  Basis Set: (AUG-CC-PVTZ AUX)
    Blend: AUG-CC-PVTZ-JKFIT
	 Reference Energy          =    -322.0105729033707007 [Eh]
	 Singles Energy            =      -0.0000000000000000 [Eh]
	 Same-Spin Energy          =      -0.3134208434005217 [Eh]
	 Opposite-Spin Energy      =      -0.9932248169534894 [Eh]
	 Correlation Energy        =      -1.3066456603540111 [Eh]
	 Total Energy              =    -323.3172185637247367 [Eh]

	 ================> DF-SCS-MP2 Energies <==================
	-----------------------------------------------------------
	 SCS Same-Spin Scale       =       0.3333333333333333 [-]
	 SCS Opposite-Spin Scale   =       1.2000000000000000 [-]
	 SCS Same-Spin Energy      =      -0.1044736144668406 [Eh]
	 SCS Opposite-Spin Energy  =      -1.1918697803441873 [Eh]
	 SCS Correlation Energy    =      -1.2963433948110279 [Eh]
	 SCS Total Energy          =    -323.3069162981817044 [Eh]
	-----------------------------------------------------------

  Dipole Moment: [D]
     X:    -0.4191      Y:    -2.2902      Z:     0.7158     Total:     2.4358

*** Psi4 exiting successfully. Buy a developer a beer!
