                               Psi4 1.4a3.dev225

  ==> Input File <==

--------------------------------------------------------------------------
#psi4
#
memory 32 gb

molecule  {
0 1
  O       -0.1791250    -0.4779340     0.0014420
  O        1.2676250     1.2989270     0.0090110
  N        2.0163350    -0.8804990    -0.0657410
  C       -1.2686920     0.4722670    -0.0022460
  C       -2.5451940    -0.3377090     0.0025190
  C        1.0385342    -0.0019703    -0.0017810
  H       -1.1847720     1.1155630     0.8776850
  H       -1.1852960     1.1054120    -0.8894660
  H       -3.4102260     0.3314020    -0.0008760
  H       -2.5967230    -0.9775020    -0.8809700
  H       -2.5969010    -0.9678970     0.8929970
  H        1.7497370    -1.8166910     0.2040380
  H        2.9498840    -0.5811480     0.1773000
units angstrom
no_reorient  #important for SAPT in psi4, default
symmetry c1  #important for SAPT in psi4, default
}

set PROPERTIES_ORIGIN ["COM"]
properties('MP2/aug-cc-pvtz', properties = ['dipole'])
--------------------------------------------------------------------------

    Molecular point group: c1
  Charge       = 0
  Multiplicity = 1
  Basis Set: AUG-CC-PVTZ
    Blend: AUG-CC-PVTZ
  Basis Set: (AUG-CC-PVTZ AUX)
    Blend: AUG-CC-PVTZ-JKFIT

    Orbital Energies [Eh]
    ---------------------

    Doubly Occupied:

       1A    -20.613176     2A    -20.503309     3A    -15.600985
       4A    -11.406028     5A    -11.293899     6A    -11.228207
       7A     -1.471840     8A     -1.301918     9A     -1.229507
      10A     -1.045602    11A     -0.889503    12A     -0.808406
      13A     -0.756010    14A     -0.720017    15A     -0.691494
      16A     -0.633479    17A     -0.599690    18A     -0.561525
      19A     -0.552946    20A     -0.522509    21A     -0.511616
      22A     -0.466401    23A     -0.429717    24A     -0.412365

  @DF-RHF Final Energy:  -321.99430985935442

   => Energetics <=

    Nuclear Repulsion Energy =            246.1055635222217006
    One-Electron Energy =                -927.6994549155230061
    Two-Electron Energy =                 359.5995815339468891
    Total Energy =                       -321.9943098593544164
  Basis Set: (AUG-CC-PVTZ AUX)
    Blend: AUG-CC-PVTZ-RI
    Molecular point group: c1

    Geometry (in Angstrom), charge = 0, multiplicity = 1:

       Center              X                  Y                   Z               Mass
    ------------   -----------------  -----------------  -----------------  -----------------
         O           -0.246703826459    -0.484539429198     0.005796860227    15.994914619570
         O            1.200046173541     1.292321570802     0.013365860227    15.994914619570
         N            1.948756173541    -0.887104429198    -0.061386139773    14.003074004430
         C           -1.336270826459     0.465661570802     0.002108860227    12.000000000000
         C           -2.612772826459    -0.344314429198     0.006873860227    12.000000000000
         C            0.970955373541    -0.008575729198     0.002573860227    12.000000000000
         H           -1.252350826459     1.108957570802     0.882039860227     1.007825032230
         H           -1.252874826459     1.098806570802    -0.885111139773     1.007825032230
         H           -3.477804826459     0.324796570802     0.003478860227     1.007825032230
         H           -2.664301826459    -0.984107429198    -0.876615139773     1.007825032230
         H           -2.664479826459    -0.974502429198     0.897351860227     1.007825032230
         H            1.682158173541    -1.823296429198     0.208392860227     1.007825032230
         H            2.882305173541    -0.587753429198     0.181654860227     1.007825032230

  Basis Set: AUG-CC-PVTZ
    Blend: AUG-CC-PVTZ
  Basis Set: (AUG-CC-PVTZ AUX)
    Blend: AUG-CC-PVTZ-JKFIT
	 Reference Energy          =    -321.9943098593544164 [Eh]
	 Singles Energy            =      -0.0000000000000000 [Eh]
	 Same-Spin Energy          =      -0.3141867131208402 [Eh]
	 Opposite-Spin Energy      =      -0.9947056095171141 [Eh]
	 Correlation Energy        =      -1.3088923226379543 [Eh]
	 Total Energy              =    -323.3032021819923898 [Eh]

	 ================> DF-SCS-MP2 Energies <==================
	-----------------------------------------------------------
	 SCS Same-Spin Scale       =       0.3333333333333333 [-]
	 SCS Opposite-Spin Scale   =       1.2000000000000000 [-]
	 SCS Same-Spin Energy      =      -0.1047289043736134 [Eh]
	 SCS Opposite-Spin Energy  =      -1.1936467314205368 [Eh]
	 SCS Correlation Energy    =      -1.2983756357941503 [Eh]
	 SCS Total Energy          =    -323.2926854951485893 [Eh]
	-----------------------------------------------------------

  Dipole Moment: [D]
     X:    -0.8344      Y:    -3.0245      Z:     0.6952     Total:     3.2136

*** Psi4 exiting successfully. Buy a developer a beer!
