                               Psi4 1.4a3.dev225

  ==> Input File <==

--------------------------------------------------------------------------
#psi4
#
memory 32 gb

molecule  {
0 1
  O       -0.1791250    -0.4779340     0.0014420
  O        1.2676250     1.2989270     0.0090110
  N        2.0163350    -0.8804990    -0.0657410
  C       -1.2547501     0.4498659    -0.0021281
  C       -2.5451940    -0.3377090     0.0025190
  C        1.0558770     0.0965110    -0.0009640
  H       -1.1847720     1.1155630     0.8776850
  H       -1.1852960     1.1054120    -0.8894660
  H       -3.4102260     0.3314020    -0.0008760
  H       -2.5967230    -0.9775020    -0.8809700
  H       -2.5969010    -0.9678970     0.8929970
  H        1.7497370    -1.8166910     0.2040380
  H        2.9498840    -0.5811480     0.1773000
units angstrom
no_reorient  #important for SAPT in psi4, default
symmetry c1  #important for SAPT in psi4, default
}

set PROPERTIES_ORIGIN ["COM"]
properties('MP2/aug-cc-pvtz', properties = ['dipole'])
--------------------------------------------------------------------------

    Molecular point group: c1
  Charge       = 0
  Multiplicity = 1
  Basis Set: AUG-CC-PVTZ
    Blend: AUG-CC-PVTZ
  Basis Set: (AUG-CC-PVTZ AUX)
    Blend: AUG-CC-PVTZ-JKFIT

    Orbital Energies [Eh]
    ---------------------

    Doubly Occupied:

       1A    -20.604333     2A    -20.531762     3A    -15.590732
       4A    -11.407618     5A    -11.287847     6A    -11.223991
       7A     -1.462832     8A     -1.354853     9A     -1.218812
      10A     -1.034257    11A     -0.877680    12A     -0.799323
      13A     -0.747413    14A     -0.703164    15A     -0.684819
      16A     -0.644910    17A     -0.597458    18A     -0.583705
      19A     -0.549505    20A     -0.521657    21A     -0.509624
      22A     -0.460021    23A     -0.458519    24A     -0.431911

  @DF-RHF Final Energy:  -322.01231200522483

   => Energetics <=

    Nuclear Repulsion Energy =            246.4793413970359666
    One-Electron Energy =                -928.4098105357883242
    Two-Electron Energy =                 359.9181571335275862
    Total Energy =                       -322.0123120052248282
  Basis Set: (AUG-CC-PVTZ AUX)
    Blend: AUG-CC-PVTZ-RI
    Molecular point group: c1

    Geometry (in Angstrom), charge = 0, multiplicity = 1:

       Center              X                  Y                   Z               Mass
    ------------   -----------------  -----------------  -----------------  -----------------
         O           -0.250919729742    -0.494791941287     0.005670873787    15.994914619570
         O            1.195830270258     1.282069058713     0.013239873787    15.994914619570
         N            1.944540270258    -0.897356941287    -0.061512126213    14.003074004430
         C           -1.326544829742     0.433007958713     0.002100773787    12.000000000000
         C           -2.616988729742    -0.354566941287     0.006747873787    12.000000000000
         C            0.984082270258     0.079653058713     0.003264873787    12.000000000000
         H           -1.256566729742     1.098705058713     0.881913873787     1.007825032230
         H           -1.257090729742     1.088554058713    -0.885237126213     1.007825032230
         H           -3.482020729742     0.314544058713     0.003352873787     1.007825032230
         H           -2.668517729742    -0.994359941287    -0.876741126213     1.007825032230
         H           -2.668695729742    -0.984754941287     0.897225873787     1.007825032230
         H            1.677942270258    -1.833548941287     0.208266873787     1.007825032230
         H            2.878089270258    -0.598005941287     0.181528873787     1.007825032230

  Basis Set: AUG-CC-PVTZ
    Blend: AUG-CC-PVTZ
  Basis Set: (AUG-CC-PVTZ AUX)
    Blend: AUG-CC-PVTZ-JKFIT
	 Reference Energy          =    -322.0123120052248282 [Eh]
	 Singles Energy            =      -0.0000000000000000 [Eh]
	 Same-Spin Energy          =      -0.3133487633138833 [Eh]
	 Opposite-Spin Energy      =      -0.9933388691848937 [Eh]
	 Correlation Energy        =      -1.3066876324987771 [Eh]
	 Total Energy              =    -323.3189996377236071 [Eh]

	 ================> DF-SCS-MP2 Energies <==================
	-----------------------------------------------------------
	 SCS Same-Spin Scale       =       0.3333333333333333 [-]
	 SCS Opposite-Spin Scale   =       1.2000000000000000 [-]
	 SCS Same-Spin Energy      =      -0.1044495877712944 [Eh]
	 SCS Opposite-Spin Energy  =      -1.1920066430218723 [Eh]
	 SCS Correlation Energy    =      -1.2964562307931666 [Eh]
	 SCS Total Energy          =    -323.3087682360180111 [Eh]
	-----------------------------------------------------------

  Dipole Moment: [D]
     X:    -0.5164      Y:    -2.2427      Z:     0.7156     Total:     2.4101

*** Psi4 exiting successfully. Buy a developer a beer!
