                               Psi4 1.4a3.dev225

  ==> Input File <==

--------------------------------------------------------------------------
#psi4
#
memory 32 gb

molecule  {
0 1
  O       -0.1791250    -0.4779340     0.0014420
  O        1.2676250     1.2989270     0.0090110
  N        2.0163350    -0.8804990    -0.0657410
  C       -1.2686920     0.4722670    -0.0022460
  C       -2.6296299    -0.3912859     0.0028342
  C        1.0558770     0.0965110    -0.0009640
  H       -1.1847720     1.1155630     0.8776850
  H       -1.1852960     1.1054120    -0.8894660
  H       -3.4102260     0.3314020    -0.0008760
  H       -2.5967230    -0.9775020    -0.8809700
  H       -2.5969010    -0.9678970     0.8929970
  H        1.7497370    -1.8166910     0.2040380
  H        2.9498840    -0.5811480     0.1773000
units angstrom
no_reorient  #important for SAPT in psi4, default
symmetry c1  #important for SAPT in psi4, default
}

set PROPERTIES_ORIGIN ["COM"]
properties('MP2/aug-cc-pvtz', properties = ['dipole'])
--------------------------------------------------------------------------

    Molecular point group: c1
  Charge       = 0
  Multiplicity = 1
  Basis Set: AUG-CC-PVTZ
    Blend: AUG-CC-PVTZ
  Basis Set: (AUG-CC-PVTZ AUX)
    Blend: AUG-CC-PVTZ-JKFIT

    Orbital Energies [Eh]
    ---------------------

    Doubly Occupied:

       1A    -20.601507     2A    -20.529941     3A    -15.589202
       4A    -11.405398     5A    -11.291360     6A    -11.223065
       7A     -1.456173     8A     -1.350018     9A     -1.216462
      10A     -1.020429    11A     -0.882241    12A     -0.798693
      13A     -0.743576    14A     -0.699741    15A     -0.680539
      16A     -0.641699    17A     -0.601025    18A     -0.582521
      19A     -0.555012    20A     -0.535481    21A     -0.487242
      22A     -0.464042    23A     -0.457238    24A     -0.430989

  @DF-RHF Final Energy:  -322.00493001707991

   => Energetics <=

    Nuclear Repulsion Energy =            244.7318484802950422
    One-Electron Energy =                -924.9863691521763940
    Two-Electron Energy =                 358.2495906548014091
    Total Energy =                       -322.0049300170799143
  Basis Set: (AUG-CC-PVTZ AUX)
    Blend: AUG-CC-PVTZ-RI
    Molecular point group: c1

    Geometry (in Angstrom), charge = 0, multiplicity = 1:

       Center              X                  Y                   Z               Mass
    ------------   -----------------  -----------------  -----------------  -----------------
         O           -0.237662409391    -0.490590713289     0.005644285783    15.994914619570
         O            1.209087590609     1.286270286711     0.013213285783    15.994914619570
         N            1.957797590609    -0.893155713289    -0.061538714217    14.003074004430
         C           -1.327229409391     0.459610286711     0.001956285783    12.000000000000
         C           -2.688167309391    -0.403942613289     0.007036485783    12.000000000000
         C            0.997339590609     0.083854286711     0.003238285783    12.000000000000
         H           -1.243309409391     1.102906286711     0.881887285783     1.007825032230
         H           -1.243833409391     1.092755286711    -0.885263714217     1.007825032230
         H           -3.468763409391     0.318745286711     0.003326285783     1.007825032230
         H           -2.655260409391    -0.990158713289    -0.876767714217     1.007825032230
         H           -2.655438409391    -0.980553713289     0.897199285783     1.007825032230
         H            1.691199590609    -1.829347713289     0.208240285783     1.007825032230
         H            2.891346590609    -0.593804713289     0.181502285783     1.007825032230

  Basis Set: AUG-CC-PVTZ
    Blend: AUG-CC-PVTZ
  Basis Set: (AUG-CC-PVTZ AUX)
    Blend: AUG-CC-PVTZ-JKFIT
	 Reference Energy          =    -322.0049300170799143 [Eh]
	 Singles Energy            =      -0.0000000000000000 [Eh]
	 Same-Spin Energy          =      -0.3130191851343676 [Eh]
	 Opposite-Spin Energy      =      -0.9936703914713141 [Eh]
	 Correlation Energy        =      -1.3066895766056816 [Eh]
	 Total Energy              =    -323.3116195936855775 [Eh]

	 ================> DF-SCS-MP2 Energies <==================
	-----------------------------------------------------------
	 SCS Same-Spin Scale       =       0.3333333333333333 [-]
	 SCS Opposite-Spin Scale   =       1.2000000000000000 [-]
	 SCS Same-Spin Energy      =      -0.1043397283781225 [Eh]
	 SCS Opposite-Spin Energy  =      -1.1924044697655769 [Eh]
	 SCS Correlation Energy    =      -1.2967441981436993 [Eh]
	 SCS Total Energy          =    -323.3016742152236134 [Eh]
	-----------------------------------------------------------

  Dipole Moment: [D]
     X:    -0.5743      Y:    -2.1911      Z:     0.7157     Total:     2.3755

*** Psi4 exiting successfully. Buy a developer a beer!
