                               Psi4 1.4a3.dev225

  ==> Input File <==

--------------------------------------------------------------------------
#psi4
#
memory 32 gb

molecule  {
0 1
  O       -0.1791250    -0.4779340     0.0014420
  O        1.2676250     1.2989270     0.0090110
  N        2.0163350    -0.8804990    -0.0657410
  C       -1.2686920     0.4722670    -0.0022460
  C       -2.5451940    -0.3377090     0.0025190
  C        1.0593456     0.1162073    -0.0008006
  H       -1.1847720     1.1155630     0.8776850
  H       -1.1852960     1.1054120    -0.8894660
  H       -3.4102260     0.3314020    -0.0008760
  H       -2.5967230    -0.9775020    -0.8809700
  H       -2.5969010    -0.9678970     0.8929970
  H        1.7497370    -1.8166910     0.2040380
  H        2.9498840    -0.5811480     0.1773000
units angstrom
no_reorient  #important for SAPT in psi4, default
symmetry c1  #important for SAPT in psi4, default
}

set PROPERTIES_ORIGIN ["COM"]
properties('MP2/aug-cc-pvtz', properties = ['dipole'])
--------------------------------------------------------------------------

    Molecular point group: c1
  Charge       = 0
  Multiplicity = 1
  Basis Set: AUG-CC-PVTZ
    Blend: AUG-CC-PVTZ
  Basis Set: (AUG-CC-PVTZ AUX)
    Blend: AUG-CC-PVTZ-JKFIT

    Orbital Energies [Eh]
    ---------------------

    Doubly Occupied:

       1A    -20.599064     2A    -20.535617     3A    -15.586954
       4A    -11.405147     5A    -11.286969     6A    -11.224169
       7A     -1.457741     8A     -1.360591     9A     -1.212209
      10A     -1.033157    11A     -0.872449    12A     -0.798334
      13A     -0.743041    14A     -0.698433    15A     -0.682034
      16A     -0.646619    17A     -0.599603    18A     -0.582043
      19A     -0.544922    20A     -0.522567    21A     -0.514096
      22A     -0.463357    23A     -0.462007    24A     -0.432078

  @DF-RHF Final Energy:  -322.01267990345394

   => Energetics <=

    Nuclear Repulsion Energy =            246.1310193482316890
    One-Electron Energy =                -927.7609990347169742
    Two-Electron Energy =                 359.6172997830313420
    Total Energy =                       -322.0126799034539431
  Basis Set: (AUG-CC-PVTZ AUX)
    Blend: AUG-CC-PVTZ-RI
    Molecular point group: c1

    Geometry (in Angstrom), charge = 0, multiplicity = 1:

       Center              X                  Y                   Z               Mass
    ------------   -----------------  -----------------  -----------------  -----------------
         O           -0.249508355497    -0.500464956111     0.005664742240    15.994914619570
         O            1.197241644503     1.276396043889     0.013233742240    15.994914619570
         N            1.945951644503    -0.903029956111    -0.061518257760    14.003074004430
         C           -1.339075355497     0.449736043889     0.001976742240    12.000000000000
         C           -2.615577355497    -0.360239956111     0.006741742240    12.000000000000
         C            0.988962244503     0.093676343889     0.003422142240    12.000000000000
         H           -1.255155355497     1.093032043889     0.881907742240     1.007825032230
         H           -1.255679355497     1.082881043889    -0.885243257760     1.007825032230
         H           -3.480609355497     0.308871043889     0.003346742240     1.007825032230
         H           -2.667106355497    -1.000032956111    -0.876747257760     1.007825032230
         H           -2.667284355497    -0.990427956111     0.897219742240     1.007825032230
         H            1.679353644503    -1.839221956111     0.208260742240     1.007825032230
         H            2.879500644503    -0.603678956111     0.181522742240     1.007825032230

  Basis Set: AUG-CC-PVTZ
    Blend: AUG-CC-PVTZ
  Basis Set: (AUG-CC-PVTZ AUX)
    Blend: AUG-CC-PVTZ-JKFIT
	 Reference Energy          =    -322.0126799034539431 [Eh]
	 Singles Energy            =      -0.0000000000000000 [Eh]
	 Same-Spin Energy          =      -0.3131270160947227 [Eh]
	 Opposite-Spin Energy      =      -0.9932918778477393 [Eh]
	 Correlation Energy        =      -1.3064188939424621 [Eh]
	 Total Energy              =    -323.3190987973964070 [Eh]

	 ================> DF-SCS-MP2 Energies <==================
	-----------------------------------------------------------
	 SCS Same-Spin Scale       =       0.3333333333333333 [-]
	 SCS Opposite-Spin Scale   =       1.2000000000000000 [-]
	 SCS Same-Spin Energy      =      -0.1043756720315742 [Eh]
	 SCS Opposite-Spin Energy  =      -1.1919502534172872 [Eh]
	 SCS Correlation Energy    =      -1.2963259254488615 [Eh]
	 SCS Total Energy          =    -323.3090058289027979 [Eh]
	-----------------------------------------------------------

  Dipole Moment: [D]
     X:    -0.5680      Y:    -2.0259      Z:     0.7190     Total:     2.2235

*** Psi4 exiting successfully. Buy a developer a beer!
