                               Psi4 1.4a3.dev225

  ==> Input File <==

--------------------------------------------------------------------------
#psi4
#
memory 32 gb

molecule  {
0 1
  O       -0.1791250    -0.4779340     0.0014420
  O        1.2676250     1.2989270     0.0090110
  N        2.0163350    -0.8804990    -0.0657410
  C       -1.2686920     0.4722670    -0.0022460
  C       -2.5451940    -0.3377090     0.0025190
  C        1.0558770     0.0965110    -0.0009640
  H       -1.1847720     1.1155630     0.8776850
  H       -1.1852960     1.1054120    -0.8894660
  H       -3.4102260     0.3314020    -0.0008760
  H       -2.5990823    -1.0067956    -0.9214215
  H       -2.5969010    -0.9678970     0.8929970
  H        1.7497370    -1.8166910     0.2040380
  H        2.9498840    -0.5811480     0.1773000
units angstrom
no_reorient  #important for SAPT in psi4, default
symmetry c1  #important for SAPT in psi4, default
}

set PROPERTIES_ORIGIN ["COM"]
properties('MP2/aug-cc-pvtz', properties = ['dipole'])
--------------------------------------------------------------------------

    Molecular point group: c1
  Charge       = 0
  Multiplicity = 1
  Basis Set: AUG-CC-PVTZ
    Blend: AUG-CC-PVTZ
  Basis Set: (AUG-CC-PVTZ AUX)
    Blend: AUG-CC-PVTZ-JKFIT

    Orbital Energies [Eh]
    ---------------------

    Doubly Occupied:

       1A    -20.601746     2A    -20.530283     3A    -15.589419
       4A    -11.405741     5A    -11.288755     6A    -11.230895
       7A     -1.457116     8A     -1.350959     9A     -1.216975
      10A     -1.033512    11A     -0.872773    12A     -0.799583
      13A     -0.744751    14A     -0.700910    15A     -0.682701
      16A     -0.642586    17A     -0.597507    18A     -0.578271
      19A     -0.546409    20A     -0.519351    21A     -0.511928
      22A     -0.462636    23A     -0.457679    24A     -0.431140

  @DF-RHF Final Energy:  -322.01066511487244

   => Energetics <=

    Nuclear Repulsion Energy =            245.9083516808543095
    One-Electron Energy =                -927.3307836123148036
    Two-Electron Energy =                 359.4117668165881128
    Total Energy =                       -322.0106651148724382
  Basis Set: (AUG-CC-PVTZ AUX)
    Blend: AUG-CC-PVTZ-RI
    Molecular point group: c1

    Geometry (in Angstrom), charge = 0, multiplicity = 1:

       Center              X                  Y                   Z               Mass
    ------------   -----------------  -----------------  -----------------  -----------------
         O           -0.249014227381    -0.497479157627     0.006144584444    15.994914619570
         O            1.197735772619     1.279381842373     0.013713584444    15.994914619570
         N            1.946445772619    -0.900044157627    -0.061038415556    14.003074004430
         C           -1.338581227381     0.452721842373     0.002456584444    12.000000000000
         C           -2.615083227381    -0.357254157627     0.007221584444    12.000000000000
         C            0.985987772619     0.076965842373     0.003738584444    12.000000000000
         H           -1.254661227381     1.096017842373     0.882387584444     1.007825032230
         H           -1.255185227381     1.085866842373    -0.884763415556     1.007825032230
         H           -3.480115227381     0.311856842373     0.003826584444     1.007825032230
         H           -2.668971527381    -1.026340757627    -0.916718915556     1.007825032230
         H           -2.666790227381    -0.987442157627     0.897699584444     1.007825032230
         H            1.679847772619    -1.836236157627     0.208740584444     1.007825032230
         H            2.879994772619    -0.600693157627     0.182002584444     1.007825032230

  Basis Set: AUG-CC-PVTZ
    Blend: AUG-CC-PVTZ
  Basis Set: (AUG-CC-PVTZ AUX)
    Blend: AUG-CC-PVTZ-JKFIT
	 Reference Energy          =    -322.0106651148724382 [Eh]
	 Singles Energy            =      -0.0000000000000000 [Eh]
	 Same-Spin Energy          =      -0.3132866255400102 [Eh]
	 Opposite-Spin Energy      =      -0.9938229227956551 [Eh]
	 Correlation Energy        =      -1.3071095483356654 [Eh]
	 Total Energy              =    -323.3177746632081266 [Eh]

	 ================> DF-SCS-MP2 Energies <==================
	-----------------------------------------------------------
	 SCS Same-Spin Scale       =       0.3333333333333333 [-]
	 SCS Opposite-Spin Scale   =       1.2000000000000000 [-]
	 SCS Same-Spin Energy      =      -0.1044288751800034 [Eh]
	 SCS Opposite-Spin Energy  =      -1.1925875073547860 [Eh]
	 SCS Correlation Energy    =      -1.2970163825347893 [Eh]
	 SCS Total Energy          =    -323.3076814974072022 [Eh]
	-----------------------------------------------------------

  Dipole Moment: [D]
     X:    -0.6026      Y:    -2.1811      Z:     0.7350     Total:     2.3792

*** Psi4 exiting successfully. Buy a developer a beer!
