                               Psi4 1.4a3.dev225

  ==> Input File <==

--------------------------------------------------------------------------
#psi4
#
memory 32 gb

molecule  {
0 1
  O       -0.1707149    -0.4680394    -0.0201917
  O        1.2676250     1.2989270     0.0090110
  N        2.0163350    -0.8804990    -0.0657410
  C       -1.2686920     0.4722670    -0.0022460
  C       -2.5451940    -0.3377090     0.0025190
  C        1.0558770     0.0965110    -0.0009640
  H       -1.1847720     1.1155630     0.8776850
  H       -1.1852960     1.1054120    -0.8894660
  H       -3.4102260     0.3314020    -0.0008760
  H       -2.5967230    -0.9775020    -0.8809700
  H       -2.5969010    -0.9678970     0.8929970
  H        1.7497370    -1.8166910     0.2040380
  H        2.9498840    -0.5811480     0.1773000
units angstrom
no_reorient  #important for SAPT in psi4, default
symmetry c1  #important for SAPT in psi4, default
}

set PROPERTIES_ORIGIN ["COM"]
properties('MP2/aug-cc-pvtz', properties = ['dipole'])
--------------------------------------------------------------------------

    Molecular point group: c1
  Charge       = 0
  Multiplicity = 1
  Basis Set: AUG-CC-PVTZ
    Blend: AUG-CC-PVTZ
  Basis Set: (AUG-CC-PVTZ AUX)
    Blend: AUG-CC-PVTZ-JKFIT

    Orbital Energies [Eh]
    ---------------------

    Doubly Occupied:

       1A    -20.601605     2A    -20.528074     3A    -15.588525
       4A    -11.404021     5A    -11.288990     6A    -11.225726
       7A     -1.460474     8A     -1.350081     9A     -1.216354
      10A     -1.036788    11A     -0.877565    12A     -0.799254
      13A     -0.744780    14A     -0.701777    15A     -0.684884
      16A     -0.642240    17A     -0.598884    18A     -0.580741
      19A     -0.547742    20A     -0.522019    21A     -0.514039
      22A     -0.462657    23A     -0.456683    24A     -0.430394

  @DF-RHF Final Energy:  -322.01353799336886

   => Energetics <=

    Nuclear Repulsion Energy =            246.3486043447429950
    One-Electron Energy =                -928.1956918939467869
    Two-Electron Energy =                 359.8335495558349635
    Total Energy =                       -322.0135379933688569
  Basis Set: (AUG-CC-PVTZ AUX)
    Blend: AUG-CC-PVTZ-RI
    Molecular point group: c1

    Geometry (in Angstrom), charge = 0, multiplicity = 1:

       Center              X                  Y                   Z               Mass
    ------------   -----------------  -----------------  -----------------  -----------------
         O           -0.242141467774    -0.489693384144    -0.012061051452    15.994914619570
         O            1.196198432226     1.277273015856     0.017141648548    15.994914619570
         N            1.944908432226    -0.902152984144    -0.057610351452    14.003074004430
         C           -1.340118567774     0.450613015856     0.005884648548    12.000000000000
         C           -2.616620567774    -0.359362984144     0.010649648548    12.000000000000
         C            0.984450432226     0.074857015856     0.007166648548    12.000000000000
         H           -1.256198567774     1.093909015856     0.885815648548     1.007825032230
         H           -1.256722567774     1.083758015856    -0.881335351452     1.007825032230
         H           -3.481652567774     0.309748015856     0.007254648548     1.007825032230
         H           -2.668149567774    -0.999155984144    -0.872839351452     1.007825032230
         H           -2.668327567774    -0.989550984144     0.901127648548     1.007825032230
         H            1.678310432226    -1.838344984144     0.212168648548     1.007825032230
         H            2.878457432226    -0.602801984144     0.185430648548     1.007825032230

  Basis Set: AUG-CC-PVTZ
    Blend: AUG-CC-PVTZ
  Basis Set: (AUG-CC-PVTZ AUX)
    Blend: AUG-CC-PVTZ-JKFIT
	 Reference Energy          =    -322.0135379933688569 [Eh]
	 Singles Energy            =      -0.0000000000000000 [Eh]
	 Same-Spin Energy          =      -0.3131168153929653 [Eh]
	 Opposite-Spin Energy      =      -0.9929737863541304 [Eh]
	 Correlation Energy        =      -1.3060906017470957 [Eh]
	 Total Energy              =    -323.3196285951159439 [Eh]

	 ================> DF-SCS-MP2 Energies <==================
	-----------------------------------------------------------
	 SCS Same-Spin Scale       =       0.3333333333333333 [-]
	 SCS Opposite-Spin Scale   =       1.2000000000000000 [-]
	 SCS Same-Spin Energy      =      -0.1043722717976551 [Eh]
	 SCS Opposite-Spin Energy  =      -1.1915685436249563 [Eh]
	 SCS Correlation Energy    =      -1.2959408154226115 [Eh]
	 SCS Total Energy          =    -323.3094788087914822 [Eh]
	-----------------------------------------------------------

  Dipole Moment: [D]
     X:    -0.6913      Y:    -2.2291      Z:     0.7422     Total:     2.4490

*** Psi4 exiting successfully. Buy a developer a beer!
