                               Psi4 1.4a3.dev225

  ==> Input File <==

--------------------------------------------------------------------------
#psi4
#
memory 32 gb

molecule  {
0 1
  O       -0.1791250    -0.4779340     0.0014420
  O        1.2676250     1.2989270     0.0090110
  N        2.0163350    -0.8804990    -0.0657410
  C       -1.2686920     0.4722670    -0.0022460
  C       -2.5451940    -0.3377090     0.0025190
  C        1.0882118     0.1281621    -0.0166052
  H       -1.1847720     1.1155630     0.8776850
  H       -1.1852960     1.1054120    -0.8894660
  H       -3.4102260     0.3314020    -0.0008760
  H       -2.5967230    -0.9775020    -0.8809700
  H       -2.5969010    -0.9678970     0.8929970
  H        1.7497370    -1.8166910     0.2040380
  H        2.9498840    -0.5811480     0.1773000
units angstrom
no_reorient  #important for SAPT in psi4, default
symmetry c1  #important for SAPT in psi4, default
}

set PROPERTIES_ORIGIN ["COM"]
properties('MP2/aug-cc-pvtz', properties = ['dipole'])
--------------------------------------------------------------------------

    Molecular point group: c1
  Charge       = 0
  Multiplicity = 1
  Basis Set: AUG-CC-PVTZ
    Blend: AUG-CC-PVTZ
  Basis Set: (AUG-CC-PVTZ AUX)
    Blend: AUG-CC-PVTZ-JKFIT

    Orbital Energies [Eh]
    ---------------------

    Doubly Occupied:

       1A    -20.590817     2A    -20.540298     3A    -15.589607
       4A    -11.404729     5A    -11.282796     6A    -11.221490
       7A     -1.455202     8A     -1.360954     9A     -1.218674
      10A     -1.027569    11A     -0.867165    12A     -0.798049
      13A     -0.745919    14A     -0.697389    15A     -0.676703
      16A     -0.648657    17A     -0.600958    18A     -0.581385
      19A     -0.541691    20A     -0.522377    21A     -0.511174
      22A     -0.463290    23A     -0.460053    24A     -0.435445

  @DF-RHF Final Energy:  -322.01041762381112

   => Energetics <=

    Nuclear Repulsion Energy =            245.9901449630448553
    One-Electron Energy =                -927.5163432851418293
    Two-Electron Energy =                 359.5157806982858801
    Total Energy =                       -322.0104176238111222
  Basis Set: (AUG-CC-PVTZ AUX)
    Blend: AUG-CC-PVTZ-RI
    Molecular point group: c1

    Geometry (in Angstrom), charge = 0, multiplicity = 1:

       Center              X                  Y                   Z               Mass
    ------------   -----------------  -----------------  -----------------  -----------------
         O           -0.253398343489    -0.502075976213     0.007794558573    15.994914619570
         O            1.193351656511     1.274785023787     0.015363558573    15.994914619570
         N            1.942061656511    -0.904640976213    -0.059388441427    14.003074004430
         C           -1.342965343489     0.448125023787     0.004106558573    12.000000000000
         C           -2.619467343489    -0.361850976213     0.008871558573    12.000000000000
         C            1.013938456511     0.104020123787    -0.010252641427    12.000000000000
         H           -1.259045343489     1.091421023787     0.884037558573     1.007825032230
         H           -1.259569343489     1.081270023787    -0.883113441427     1.007825032230
         H           -3.484499343489     0.307260023787     0.005476558573     1.007825032230
         H           -2.670996343489    -1.001643976213    -0.874617441427     1.007825032230
         H           -2.671174343489    -0.992038976213     0.899349558573     1.007825032230
         H            1.675463656511    -1.840832976213     0.210390558573     1.007825032230
         H            2.875610656511    -0.605289976213     0.183652558573     1.007825032230

  Basis Set: AUG-CC-PVTZ
    Blend: AUG-CC-PVTZ
  Basis Set: (AUG-CC-PVTZ AUX)
    Blend: AUG-CC-PVTZ-JKFIT
	 Reference Energy          =    -322.0104176238111222 [Eh]
	 Singles Energy            =      -0.0000000000000000 [Eh]
	 Same-Spin Energy          =      -0.3131597043822869 [Eh]
	 Opposite-Spin Energy      =      -0.9933829985267647 [Eh]
	 Correlation Energy        =      -1.3065427029090517 [Eh]
	 Total Energy              =    -323.3169603267201637 [Eh]

	 ================> DF-SCS-MP2 Energies <==================
	-----------------------------------------------------------
	 SCS Same-Spin Scale       =       0.3333333333333333 [-]
	 SCS Opposite-Spin Scale   =       1.2000000000000000 [-]
	 SCS Same-Spin Energy      =      -0.1043865681274290 [Eh]
	 SCS Opposite-Spin Energy  =      -1.1920595982321176 [Eh]
	 SCS Correlation Energy    =      -1.2964461663595466 [Eh]
	 SCS Total Energy          =    -323.3068637901706666 [Eh]
	-----------------------------------------------------------

  Dipole Moment: [D]
     X:    -0.2526      Y:    -1.9555      Z:     0.6947     Total:     2.0905

*** Psi4 exiting successfully. Buy a developer a beer!
