                               Psi4 1.4a3.dev225

  ==> Input File <==

--------------------------------------------------------------------------
#psi4
#
memory 32 gb

molecule  {
0 1
  O       -0.1791250    -0.4779340     0.0014420
  O        1.2676250     1.2989270     0.0090110
  N        2.0163350    -0.8804990    -0.0657410
  C       -1.2686920     0.4722670    -0.0022460
  C       -2.5451940    -0.3377090     0.0025190
  C        1.0558770     0.0965110    -0.0009640
  H       -1.1847720     1.1155630     0.8776850
  H       -1.1852960     1.1054120    -0.8894660
  H       -3.4102260     0.3314020    -0.0008760
  H       -2.5967230    -0.9775020    -0.8809700
  H       -2.5969010    -0.9678970     0.8929970
  H        1.7365404    -1.8630324     0.2173920
  H        2.9498840    -0.5811480     0.1773000
units angstrom
no_reorient  #important for SAPT in psi4, default
symmetry c1  #important for SAPT in psi4, default
}

set PROPERTIES_ORIGIN ["COM"]
properties('MP2/aug-cc-pvtz', properties = ['dipole'])
--------------------------------------------------------------------------

    Molecular point group: c1
  Charge       = 0
  Multiplicity = 1
  Basis Set: AUG-CC-PVTZ
    Blend: AUG-CC-PVTZ
  Basis Set: (AUG-CC-PVTZ AUX)
    Blend: AUG-CC-PVTZ-JKFIT

    Orbital Energies [Eh]
    ---------------------

    Doubly Occupied:

       1A    -20.601212     2A    -20.530031     3A    -15.593464
       4A    -11.405373     5A    -11.287898     6A    -11.224773
       7A     -1.456471     8A     -1.350593     9A     -1.210439
      10A     -1.034763    11A     -0.874376    12A     -0.798109
      13A     -0.735453    14A     -0.698953    15A     -0.682946
      16A     -0.638452    17A     -0.598211    18A     -0.580452
      19A     -0.545903    20A     -0.521580    21A     -0.513900
      22A     -0.462669    23A     -0.456924    24A     -0.430049

  @DF-RHF Final Energy:  -322.00905587456208

   => Energetics <=

    Nuclear Repulsion Energy =            245.8555288700287917
    One-Electron Energy =                -927.2631807604620917
    Two-Electron Energy =                 359.3985960158711919
    Total Energy =                       -322.0090558745620797
  Basis Set: (AUG-CC-PVTZ AUX)
    Blend: AUG-CC-PVTZ-RI
    Molecular point group: c1

    Geometry (in Angstrom), charge = 0, multiplicity = 1:

       Center              X                  Y                   Z               Mass
    ------------   -----------------  -----------------  -----------------  -----------------
         O           -0.248891572839    -0.497286213804     0.005535623821    15.994914619570
         O            1.197858427161     1.279574786196     0.013104623821    15.994914619570
         N            1.946568427161    -0.899851213804    -0.061647376179    14.003074004430
         C           -1.338458572839     0.452914786196     0.001847623821    12.000000000000
         C           -2.614960572839    -0.357061213804     0.006612623821    12.000000000000
         C            0.986110427161     0.077158786196     0.003129623821    12.000000000000
         H           -1.254538572839     1.096210786196     0.881778623821     1.007825032230
         H           -1.255062572839     1.086059786196    -0.885372376179     1.007825032230
         H           -3.479992572839     0.312049786196     0.003217623821     1.007825032230
         H           -2.666489572839    -0.996854213804    -0.876876376179     1.007825032230
         H           -2.666667572839    -0.987249213804     0.897090623821     1.007825032230
         H            1.666773827161    -1.882384613804     0.221485623821     1.007825032230
         H            2.880117427161    -0.600500213804     0.181393623821     1.007825032230

  Basis Set: AUG-CC-PVTZ
    Blend: AUG-CC-PVTZ
  Basis Set: (AUG-CC-PVTZ AUX)
    Blend: AUG-CC-PVTZ-JKFIT
	 Reference Energy          =    -322.0090558745620797 [Eh]
	 Singles Energy            =      -0.0000000000000000 [Eh]
	 Same-Spin Energy          =      -0.3136108231351281 [Eh]
	 Opposite-Spin Energy      =      -0.9943568952581016 [Eh]
	 Correlation Energy        =      -1.3079677183932297 [Eh]
	 Total Energy              =    -323.3170235929553087 [Eh]

	 ================> DF-SCS-MP2 Energies <==================
	-----------------------------------------------------------
	 SCS Same-Spin Scale       =       0.3333333333333333 [-]
	 SCS Opposite-Spin Scale   =       1.2000000000000000 [-]
	 SCS Same-Spin Energy      =      -0.1045369410450427 [Eh]
	 SCS Opposite-Spin Energy  =      -1.1932282743097218 [Eh]
	 SCS Correlation Energy    =      -1.2977652153547645 [Eh]
	 SCS Total Energy          =    -323.3068210899168662 [Eh]
	-----------------------------------------------------------

  Dipole Moment: [D]
     X:    -0.6221      Y:    -2.2426      Z:     0.7259     Total:     2.4379

*** Psi4 exiting successfully. Buy a developer a beer!
