                               Psi4 1.4a3.dev225

  ==> Input File <==

--------------------------------------------------------------------------
#psi4
#
memory 32 gb

molecule  {
0 1
  O       -0.1791250    -0.4779340     0.0014420
  O        1.2676250     1.2989270     0.0090110
  N        2.0163350    -0.8804990    -0.0657410
  C       -1.2686920     0.4722670    -0.0022460
  C       -2.5451940    -0.3377090     0.0025190
  C        1.0558770     0.0965110    -0.0009640
  H       -1.1847720     1.1155630     0.8776850
  H       -1.1852960     1.1054120    -0.8894660
  H       -3.4102260     0.3314020    -0.0008760
  H       -2.6061602    -1.0946763    -1.0427758
  H       -2.5969010    -0.9678970     0.8929970
  H        1.7497370    -1.8166910     0.2040380
  H        2.9498840    -0.5811480     0.1773000
units angstrom
no_reorient  #important for SAPT in psi4, default
symmetry c1  #important for SAPT in psi4, default
}

set PROPERTIES_ORIGIN ["COM"]
properties('MP2/aug-cc-pvtz', properties = ['dipole'])
--------------------------------------------------------------------------

    Molecular point group: c1
  Charge       = 0
  Multiplicity = 1
  Basis Set: AUG-CC-PVTZ
    Blend: AUG-CC-PVTZ
  Basis Set: (AUG-CC-PVTZ AUX)
    Blend: AUG-CC-PVTZ-JKFIT

    Orbital Energies [Eh]
    ---------------------

    Doubly Occupied:

       1A    -20.602332     2A    -20.530745     3A    -15.589697
       4A    -11.406183     5A    -11.291042     6A    -11.247866
       7A     -1.457668     8A     -1.351468     9A     -1.217290
      10A     -1.030959    11A     -0.867850    12A     -0.798848
      13A     -0.745231    14A     -0.701243    15A     -0.681840
      16A     -0.642936    17A     -0.596978    18A     -0.572844
      19A     -0.548194    20A     -0.519571    21A     -0.495209
      22A     -0.460340    23A     -0.457923    24A     -0.431432

  @DF-RHF Final Energy:  -321.99274891700691

   => Energetics <=

    Nuclear Repulsion Energy =            245.3857325344549167
    One-Electron Energy =                -926.2655866958662045
    Two-Electron Energy =                 358.8871052444043244
    Total Energy =                       -321.9927489170069066
  Basis Set: (AUG-CC-PVTZ AUX)
    Blend: AUG-CC-PVTZ-RI
    Molecular point group: c1

    Geometry (in Angstrom), charge = 0, multiplicity = 1:

       Center              X                  Y                   Z               Mass
    ------------   -----------------  -----------------  -----------------  -----------------
         O           -0.248934121028    -0.496484540240     0.007518049799    15.994914619570
         O            1.197815878972     1.280376459760     0.015087049799    15.994914619570
         N            1.946525878972    -0.899049540240    -0.059664950201    14.003074004430
         C           -1.338501121028     0.453716459760     0.003830049799    12.000000000000
         C           -2.615003121028    -0.356259540240     0.008595049799    12.000000000000
         C            0.986067878972     0.077960459760     0.005112049799    12.000000000000
         H           -1.254581121028     1.097012459760     0.883761049799     1.007825032230
         H           -1.255105121028     1.086861459760    -0.883389950201     1.007825032230
         H           -3.480035121028     0.312851459760     0.005200049799     1.007825032230
         H           -2.675969321028    -1.113226840240    -1.036699750201     1.007825032230
         H           -2.666710121028    -0.986447540240     0.899073049799     1.007825032230
         H            1.679927878972    -1.835241540240     0.210114049799     1.007825032230
         H            2.880074878972    -0.599698540240     0.183376049799     1.007825032230

  Basis Set: AUG-CC-PVTZ
    Blend: AUG-CC-PVTZ
  Basis Set: (AUG-CC-PVTZ AUX)
    Blend: AUG-CC-PVTZ-JKFIT
	 Reference Energy          =    -321.9927489170069066 [Eh]
	 Singles Energy            =      -0.0000000000000000 [Eh]
	 Same-Spin Energy          =      -0.3132035297155883 [Eh]
	 Opposite-Spin Energy      =      -0.9949640416568761 [Eh]
	 Correlation Energy        =      -1.3081675713724645 [Eh]
	 Total Energy              =    -323.3009164883793574 [Eh]

	 ================> DF-SCS-MP2 Energies <==================
	-----------------------------------------------------------
	 SCS Same-Spin Scale       =       0.3333333333333333 [-]
	 SCS Opposite-Spin Scale   =       1.2000000000000000 [-]
	 SCS Same-Spin Energy      =      -0.1044011765718628 [Eh]
	 SCS Opposite-Spin Energy  =      -1.1939568499882514 [Eh]
	 SCS Correlation Energy    =      -1.2983580265601142 [Eh]
	 SCS Total Energy          =    -323.2911069435670015 [Eh]
	-----------------------------------------------------------

  Dipole Moment: [D]
     X:    -0.5646      Y:    -2.1184      Z:     0.8090     Total:     2.3369

*** Psi4 exiting successfully. Buy a developer a beer!
