                               Psi4 1.4a3.dev225

  ==> Input File <==

--------------------------------------------------------------------------
#psi4
#
memory 32 gb

molecule  {
0 1
  O       -0.1791250    -0.4779340     0.0014420
  O        1.2676250     1.2989270     0.0090110
  N        2.0163350    -0.8804990    -0.0657410
  C       -1.2686920     0.4722670    -0.0022460
  C       -2.5451940    -0.3377090     0.0025190
  C        1.0558770     0.0965110    -0.0009640
  H       -1.1847720     1.1155630     0.8776850
  H       -1.1852960     1.1054120    -0.8894660
  H       -3.4102260     0.3314020    -0.0008760
  H       -2.5967230    -0.9775020    -0.8809700
  H       -2.5969010    -0.9678970     0.8929970
  H        1.7497370    -1.8166910     0.2040380
  H        2.9313987    -0.5870755     0.1724875
units angstrom
no_reorient  #important for SAPT in psi4, default
symmetry c1  #important for SAPT in psi4, default
}

set PROPERTIES_ORIGIN ["COM"]
properties('MP2/aug-cc-pvtz', properties = ['dipole'])
--------------------------------------------------------------------------

    Molecular point group: c1
  Charge       = 0
  Multiplicity = 1
  Basis Set: AUG-CC-PVTZ
    Blend: AUG-CC-PVTZ
  Basis Set: (AUG-CC-PVTZ AUX)
    Blend: AUG-CC-PVTZ-JKFIT

    Orbital Energies [Eh]
    ---------------------

    Doubly Occupied:

       1A    -20.601684     2A    -20.530421     3A    -15.587606
       4A    -11.405799     5A    -11.288194     6A    -11.224925
       7A     -1.457179     8A     -1.351076     9A     -1.219694
      10A     -1.035495    11A     -0.876320    12A     -0.800965
      13A     -0.745249    14A     -0.704370    15A     -0.683396
      16A     -0.643889    17A     -0.598697    18A     -0.580956
      19A     -0.546391    20A     -0.522001    21A     -0.514162
      22A     -0.463076    23A     -0.457754    24A     -0.431557

  @DF-RHF Final Energy:  -322.01300489121337

   => Energetics <=

    Nuclear Repulsion Energy =            246.2128328819580645
    One-Electron Energy =                -927.9099646484321511
    Two-Electron Energy =                 359.6841268752606879
    Total Energy =                       -322.0130048912133702
  Basis Set: (AUG-CC-PVTZ AUX)
    Blend: AUG-CC-PVTZ-RI
    Molecular point group: c1

    Geometry (in Angstrom), charge = 0, multiplicity = 1:

       Center              X                  Y                   Z               Mass
    ------------   -----------------  -----------------  -----------------  -----------------
         O           -0.248831716318    -0.497743610793     0.005741228883    15.994914619570
         O            1.197918283682     1.279117389207     0.013310228883    15.994914619570
         N            1.946628283682    -0.900308610793    -0.061441771117    14.003074004430
         C           -1.338398716318     0.452457389207     0.002053228883    12.000000000000
         C           -2.614900716318    -0.357518610793     0.006818228883    12.000000000000
         C            0.986170283682     0.076701389207     0.003335228883    12.000000000000
         H           -1.254478716318     1.095753389207     0.881984228883     1.007825032230
         H           -1.255002716318     1.085602389207    -0.885166771117     1.007825032230
         H           -3.479932716318     0.311592389207     0.003423228883     1.007825032230
         H           -2.666429716318    -0.997311610793    -0.876670771117     1.007825032230
         H           -2.666607716318    -0.987706610793     0.897296228883     1.007825032230
         H            1.680030283682    -1.836500610793     0.208337228883     1.007825032230
         H            2.861691983682    -0.606885110793     0.176786728883     1.007825032230

  Basis Set: AUG-CC-PVTZ
    Blend: AUG-CC-PVTZ
  Basis Set: (AUG-CC-PVTZ AUX)
    Blend: AUG-CC-PVTZ-JKFIT
	 Reference Energy          =    -322.0130048912133702 [Eh]
	 Singles Energy            =      -0.0000000000000000 [Eh]
	 Same-Spin Energy          =      -0.3132103215490038 [Eh]
	 Opposite-Spin Energy      =      -0.9932367906483792 [Eh]
	 Correlation Energy        =      -1.3064471121973831 [Eh]
	 Total Energy              =    -323.3194520034107313 [Eh]

	 ================> DF-SCS-MP2 Energies <==================
	-----------------------------------------------------------
	 SCS Same-Spin Scale       =       0.3333333333333333 [-]
	 SCS Opposite-Spin Scale   =       1.2000000000000000 [-]
	 SCS Same-Spin Energy      =      -0.1044034405163346 [Eh]
	 SCS Opposite-Spin Energy  =      -1.1918841487780549 [Eh]
	 SCS Correlation Energy    =      -1.2962875892943895 [Eh]
	 SCS Total Energy          =    -323.3092924805077359 [Eh]
	-----------------------------------------------------------

  Dipole Moment: [D]
     X:    -0.6332      Y:    -2.2020      Z:     0.7117     Total:     2.3992

*** Psi4 exiting successfully. Buy a developer a beer!
