                               Psi4 1.4a3.dev225

  ==> Input File <==

--------------------------------------------------------------------------
#psi4
#
memory 32 gb

molecule  {
0 1
  O       -0.1791250    -0.4779340     0.0014420
  O        1.2676250     1.2989270     0.0090110
  N        2.0163350    -0.8804990    -0.0657410
  C       -1.2686920     0.4722670    -0.0022460
  C       -2.5451940    -0.3377090     0.0025190
  C        1.0558770     0.0965110    -0.0009640
  H       -1.1847720     1.1155630     0.8776850
  H       -1.1852960     1.1054120    -0.8894660
  H       -3.4102260     0.3314020    -0.0008760
  H       -2.5967230    -0.9775020    -0.8809700
  H       -2.5969010    -0.9678970     0.8929970
  H        1.7629336    -1.7703496     0.1906840
  H        2.9498840    -0.5811480     0.1773000
units angstrom
no_reorient  #important for SAPT in psi4, default
symmetry c1  #important for SAPT in psi4, default
}

set PROPERTIES_ORIGIN ["COM"]
properties('MP2/aug-cc-pvtz', properties = ['dipole'])
--------------------------------------------------------------------------

    Molecular point group: c1
  Charge       = 0
  Multiplicity = 1
  Basis Set: AUG-CC-PVTZ
    Blend: AUG-CC-PVTZ
  Basis Set: (AUG-CC-PVTZ AUX)
    Blend: AUG-CC-PVTZ-JKFIT

    Orbital Energies [Eh]
    ---------------------

    Doubly Occupied:

       1A    -20.602019     2A    -20.530363     3A    -15.584857
       4A    -11.405937     5A    -11.288377     6A    -11.224978
       7A     -1.457554     8A     -1.351117     9A     -1.224476
      10A     -1.035650    11A     -0.876485    12A     -0.802761
      13A     -0.754443    14A     -0.702477    15A     -0.683565
      16A     -0.645938    17A     -0.598867    18A     -0.581083
      19A     -0.546447    20A     -0.522169    21A     -0.514281
      22A     -0.463293    23A     -0.458195    24A     -0.432153

  @DF-RHF Final Energy:  -322.01206310821692

   => Energetics <=

    Nuclear Repulsion Energy =            246.3705002908945971
    One-Electron Energy =                -928.1901547613447292
    Two-Electron Energy =                 359.8075913622332109
    Total Energy =                       -322.0120631082169211
  Basis Set: (AUG-CC-PVTZ AUX)
    Blend: AUG-CC-PVTZ-RI
    Molecular point group: c1

    Geometry (in Angstrom), charge = 0, multiplicity = 1:

       Center              X                  Y                   Z               Mass
    ------------   -----------------  -----------------  -----------------  -----------------
         O           -0.249190286159    -0.498335180464     0.005837899988    15.994914619570
         O            1.197559713841     1.278525819536     0.013406899988    15.994914619570
         N            1.946269713841    -0.900900180464    -0.061345100012    14.003074004430
         C           -1.338757286159     0.451865819536     0.002149899988    12.000000000000
         C           -2.615259286159    -0.358110180464     0.006914899988    12.000000000000
         C            0.985811713841     0.076109819536     0.003431899988    12.000000000000
         H           -1.254837286159     1.095161819536     0.882080899988     1.007825032230
         H           -1.255361286159     1.085010819536    -0.885070100012     1.007825032230
         H           -3.480291286159     0.311000819536     0.003519899988     1.007825032230
         H           -2.666788286159    -0.997903180464    -0.876574100012     1.007825032230
         H           -2.666966286159    -0.988298180464     0.897392899988     1.007825032230
         H            1.692868313841    -1.790750780464     0.195079899988     1.007825032230
         H            2.879818713841    -0.601549180464     0.181695899988     1.007825032230

  Basis Set: AUG-CC-PVTZ
    Blend: AUG-CC-PVTZ
  Basis Set: (AUG-CC-PVTZ AUX)
    Blend: AUG-CC-PVTZ-JKFIT
	 Reference Energy          =    -322.0120631082169211 [Eh]
	 Singles Energy            =      -0.0000000000000000 [Eh]
	 Same-Spin Energy          =      -0.3130337621786618 [Eh]
	 Opposite-Spin Energy      =      -0.9927721120379246 [Eh]
	 Correlation Energy        =      -1.3058058742165863 [Eh]
	 Total Energy              =    -323.3178689824334811 [Eh]

	 ================> DF-SCS-MP2 Energies <==================
	-----------------------------------------------------------
	 SCS Same-Spin Scale       =       0.3333333333333333 [-]
	 SCS Opposite-Spin Scale   =       1.2000000000000000 [-]
	 SCS Same-Spin Energy      =      -0.1043445873928873 [Eh]
	 SCS Opposite-Spin Energy  =      -1.1913265344455095 [Eh]
	 SCS Correlation Energy    =      -1.2956711218383967 [Eh]
	 SCS Total Energy          =    -323.3077342300553028 [Eh]
	-----------------------------------------------------------

  Dipole Moment: [D]
     X:    -0.6048      Y:    -2.1521      Z:     0.7054     Total:     2.3441

*** Psi4 exiting successfully. Buy a developer a beer!
