                               Psi4 1.4a3.dev225

  ==> Input File <==

--------------------------------------------------------------------------
#psi4
#
memory 32 gb

molecule  {
0 1
  O       -0.1791250    -0.4779340     0.0014420
  O        1.2676250     1.2989270     0.0090110
  N        2.0163350    -0.8804990    -0.0657410
  C       -1.2977379     0.5163222    -0.0024774
  C       -2.5451940    -0.3377090     0.0025190
  C        1.0558770     0.0965110    -0.0009640
  H       -1.1847720     1.1155630     0.8776850
  H       -1.1852960     1.1054120    -0.8894660
  H       -3.4102260     0.3314020    -0.0008760
  H       -2.5967230    -0.9775020    -0.8809700
  H       -2.5969010    -0.9678970     0.8929970
  H        1.7497370    -1.8166910     0.2040380
  H        2.9498840    -0.5811480     0.1773000
units angstrom
no_reorient  #important for SAPT in psi4, default
symmetry c1  #important for SAPT in psi4, default
}

set PROPERTIES_ORIGIN ["COM"]
properties('MP2/aug-cc-pvtz', properties = ['dipole'])
--------------------------------------------------------------------------

    Molecular point group: c1
  Charge       = 0
  Multiplicity = 1
  Basis Set: AUG-CC-PVTZ
    Blend: AUG-CC-PVTZ
  Basis Set: (AUG-CC-PVTZ AUX)
    Blend: AUG-CC-PVTZ-JKFIT

    Orbital Energies [Eh]
    ---------------------

    Doubly Occupied:

       1A    -20.595786     2A    -20.527008     3A    -15.586564
       4A    -11.401671     5A    -11.289599     6A    -11.226976
       7A     -1.446542     8A     -1.342779     9A     -1.213076
      10A     -1.037557    11A     -0.872560    12A     -0.800347
      13A     -0.739111    14A     -0.696287    15A     -0.681726
      16A     -0.637935    17A     -0.600911    18A     -0.576828
      19A     -0.537879    20A     -0.524305    21A     -0.521420
      22A     -0.467304    23A     -0.454270    24A     -0.429053

  @DF-RHF Final Energy:  -322.00985652975737

   => Energetics <=

    Nuclear Repulsion Energy =            245.3622938957312840
    One-Electron Energy =                -926.3293075177869014
    Two-Electron Energy =                 358.9571570922983028
    Total Energy =                       -322.0098565297573714
  Basis Set: (AUG-CC-PVTZ AUX)
    Blend: AUG-CC-PVTZ-RI
    Molecular point group: c1

    Geometry (in Angstrom), charge = 0, multiplicity = 1:

       Center              X                  Y                   Z               Mass
    ------------   -----------------  -----------------  -----------------  -----------------
         O           -0.245126725266    -0.503747543653     0.005717945199    15.994914619570
         O            1.201623274734     1.273113456347     0.013286945199    15.994914619570
         N            1.950333274734    -0.906312543653    -0.061465054801    14.003074004430
         C           -1.363739625266     0.490508656347     0.001798545199    12.000000000000
         C           -2.611195725266    -0.363522543653     0.006794945199    12.000000000000
         C            0.989875274734     0.070697456347     0.003311945199    12.000000000000
         H           -1.250773725266     1.089749456347     0.881960945199     1.007825032230
         H           -1.251297725266     1.079598456347    -0.885190054801     1.007825032230
         H           -3.476227725266     0.305588456347     0.003399945199     1.007825032230
         H           -2.662724725266    -1.003315543653    -0.876694054801     1.007825032230
         H           -2.662902725266    -0.993710543653     0.897272945199     1.007825032230
         H            1.683735274734    -1.842504543653     0.208313945199     1.007825032230
         H            2.883882274734    -0.606961543653     0.181575945199     1.007825032230

  Basis Set: AUG-CC-PVTZ
    Blend: AUG-CC-PVTZ
  Basis Set: (AUG-CC-PVTZ AUX)
    Blend: AUG-CC-PVTZ-JKFIT
	 Reference Energy          =    -322.0098565297573714 [Eh]
	 Singles Energy            =      -0.0000000000000000 [Eh]
	 Same-Spin Energy          =      -0.3133506875641339 [Eh]
	 Opposite-Spin Energy      =      -0.9940793436016128 [Eh]
	 Correlation Energy        =      -1.3074300311657465 [Eh]
	 Total Energy              =    -323.3172865609230939 [Eh]

	 ================> DF-SCS-MP2 Energies <==================
	-----------------------------------------------------------
	 SCS Same-Spin Scale       =       0.3333333333333333 [-]
	 SCS Opposite-Spin Scale   =       1.2000000000000000 [-]
	 SCS Same-Spin Energy      =      -0.1044502291880446 [Eh]
	 SCS Opposite-Spin Energy  =      -1.1928952123219352 [Eh]
	 SCS Correlation Energy    =      -1.2973454415099799 [Eh]
	 SCS Total Energy          =    -323.3072019712673750 [Eh]
	-----------------------------------------------------------

  Dipole Moment: [D]
     X:    -0.8053      Y:    -2.1141      Z:     0.7149     Total:     2.3726

*** Psi4 exiting successfully. Buy a developer a beer!
