                               Psi4 1.4a3.dev225

  ==> Input File <==

--------------------------------------------------------------------------
#psi4
#
memory 32 gb

molecule  {
0 1
  O       -0.1791250    -0.4779340     0.0014420
  O        1.2676250     1.2989270     0.0090110
  N        2.0163350    -0.8804990    -0.0657410
  C       -1.2686920     0.4722670    -0.0022460
  C       -2.7140657    -0.4448628     0.0031494
  C        1.0558770     0.0965110    -0.0009640
  H       -1.1847720     1.1155630     0.8776850
  H       -1.1852960     1.1054120    -0.8894660
  H       -3.4102260     0.3314020    -0.0008760
  H       -2.5967230    -0.9775020    -0.8809700
  H       -2.5969010    -0.9678970     0.8929970
  H        1.7497370    -1.8166910     0.2040380
  H        2.9498840    -0.5811480     0.1773000
units angstrom
no_reorient  #important for SAPT in psi4, default
symmetry c1  #important for SAPT in psi4, default
}

set PROPERTIES_ORIGIN ["COM"]
properties('MP2/aug-cc-pvtz', properties = ['dipole'])
--------------------------------------------------------------------------

    Molecular point group: c1
  Charge       = 0
  Multiplicity = 1
  Basis Set: AUG-CC-PVTZ
    Blend: AUG-CC-PVTZ
  Basis Set: (AUG-CC-PVTZ AUX)
    Blend: AUG-CC-PVTZ-JKFIT

    Orbital Energies [Eh]
    ---------------------

    Doubly Occupied:

       1A    -20.601570     2A    -20.529783     3A    -15.589121
       4A    -11.405238     5A    -11.293837     6A    -11.224504
       7A     -1.455638     8A     -1.349460     9A     -1.216182
      10A     -1.009836    11A     -0.888044    12A     -0.797628
      13A     -0.742779    14A     -0.698962    15A     -0.678706
      16A     -0.641193    17A     -0.606056    18A     -0.590943
      19A     -0.559584    20A     -0.544720    21A     -0.464551
      22A     -0.461273    23A     -0.451345    24A     -0.430886

  @DF-RHF Final Energy:  -321.98443461694910

   => Energetics <=

    Nuclear Repulsion Energy =            243.4282527168201966
    One-Electron Energy =                -922.3617006705842414
    Two-Electron Energy =                 356.9490133368149145
    Total Energy =                       -321.9844346169491018
  Basis Set: (AUG-CC-PVTZ AUX)
    Blend: AUG-CC-PVTZ-RI
    Molecular point group: c1

    Geometry (in Angstrom), charge = 0, multiplicity = 1:

       Center              X                  Y                   Z               Mass
    ------------   -----------------  -----------------  -----------------  -----------------
         O           -0.226283902759    -0.483370729443     0.005601809662    15.994914619570
         O            1.220466097241     1.293490270557     0.013170809662    15.994914619570
         N            1.969176097241    -0.885935729443    -0.061581190338    14.003074004430
         C           -1.315850902759     0.466830270557     0.001913809662    12.000000000000
         C           -2.761224602759    -0.450299529443     0.007309209662    12.000000000000
         C            1.008718097241     0.091074270557     0.003195809662    12.000000000000
         H           -1.231930902759     1.110126270557     0.881844809662     1.007825032230
         H           -1.232454902759     1.099975270557    -0.885306190338     1.007825032230
         H           -3.457384902759     0.325965270557     0.003283809662     1.007825032230
         H           -2.643881902759    -0.982938729443    -0.876810190338     1.007825032230
         H           -2.644059902759    -0.973333729443     0.897156809662     1.007825032230
         H            1.702578097241    -1.822127729443     0.208197809662     1.007825032230
         H            2.902725097241    -0.586584729443     0.181459809662     1.007825032230

  Basis Set: AUG-CC-PVTZ
    Blend: AUG-CC-PVTZ
  Basis Set: (AUG-CC-PVTZ AUX)
    Blend: AUG-CC-PVTZ-JKFIT
	 Reference Energy          =    -321.9844346169491018 [Eh]
	 Singles Energy            =      -0.0000000000000000 [Eh]
	 Same-Spin Energy          =      -0.3133055811992009 [Eh]
	 Opposite-Spin Energy      =      -0.9949582211148277 [Eh]
	 Correlation Energy        =      -1.3082638023140287 [Eh]
	 Total Energy              =    -323.2926984192631039 [Eh]

	 ================> DF-SCS-MP2 Energies <==================
	-----------------------------------------------------------
	 SCS Same-Spin Scale       =       0.3333333333333333 [-]
	 SCS Opposite-Spin Scale   =       1.2000000000000000 [-]
	 SCS Same-Spin Energy      =      -0.1044351937330670 [Eh]
	 SCS Opposite-Spin Energy  =      -1.1939498653377931 [Eh]
	 SCS Correlation Energy    =      -1.2983850590708601 [Eh]
	 SCS Total Energy          =    -323.2828196760199830 [Eh]
	-----------------------------------------------------------

  Dipole Moment: [D]
     X:    -0.5163      Y:    -2.1721      Z:     0.7158     Total:     2.3445

*** Psi4 exiting successfully. Buy a developer a beer!
