                               Psi4 1.4a3.dev225

  ==> Input File <==

--------------------------------------------------------------------------
#psi4
#
memory 32 gb

molecule  {
0 1
  O       -0.1791250    -0.4779340     0.0014420
  O        1.2676250     1.2989270     0.0090110
  N        2.0163350    -0.8804990    -0.0657410
  C       -1.1933260     0.4065410    -0.0019909
  C       -2.5451940    -0.3377090     0.0025190
  C        1.0558770     0.0965110    -0.0009640
  H       -1.1847720     1.1155630     0.8776850
  H       -1.1852960     1.1054120    -0.8894660
  H       -3.4102260     0.3314020    -0.0008760
  H       -2.5967230    -0.9775020    -0.8809700
  H       -2.5969010    -0.9678970     0.8929970
  H        1.7497370    -1.8166910     0.2040380
  H        2.9498840    -0.5811480     0.1773000
units angstrom
no_reorient  #important for SAPT in psi4, default
symmetry c1  #important for SAPT in psi4, default
}

set PROPERTIES_ORIGIN ["COM"]
properties('MP2/aug-cc-pvtz', properties = ['dipole'])
--------------------------------------------------------------------------

    Molecular point group: c1
  Charge       = 0
  Multiplicity = 1
  Basis Set: AUG-CC-PVTZ
    Blend: AUG-CC-PVTZ
  Basis Set: (AUG-CC-PVTZ AUX)
    Blend: AUG-CC-PVTZ-JKFIT

    Orbital Energies [Eh]
    ---------------------

    Doubly Occupied:

       1A    -20.612883     2A    -20.536932     3A    -15.594888
       4A    -11.413329     5A    -11.287163     6A    -11.222018
       7A     -1.484768     8A     -1.366987     9A     -1.224670
      10A     -1.026083    11A     -0.887135    12A     -0.798820
      13A     -0.755944    14A     -0.709869    15A     -0.694097
      16A     -0.652685    17A     -0.599880    18A     -0.588723
      19A     -0.552161    20A     -0.525036    21A     -0.489646
      22A     -0.464636    23A     -0.450306    24A     -0.433610

  @DF-RHF Final Energy:  -322.00404826862228

   => Energetics <=

    Nuclear Repulsion Energy =            247.6007688143116354
    One-Electron Energy =                -930.4650978330397493
    Two-Electron Energy =                 360.8602807501058010
    Total Energy =                       -322.0040482686222845
  Basis Set: (AUG-CC-PVTZ AUX)
    Blend: AUG-CC-PVTZ-RI
    Molecular point group: c1

    Geometry (in Angstrom), charge = 0, multiplicity = 1:

       Center              X                  Y                   Z               Mass
    ------------   -----------------  -----------------  -----------------  -----------------
         O           -0.259197196518    -0.488953509461     0.005652384815    15.994914619570
         O            1.187552803482     1.287907490539     0.013221384815    15.994914619570
         N            1.936262803482    -0.891518509461    -0.061530615185    14.003074004430
         C           -1.273398196518     0.395521490539     0.002219484815    12.000000000000
         C           -2.625266196518    -0.348728509461     0.006729384815    12.000000000000
         C            0.975804803482     0.085491490539     0.003246384815    12.000000000000
         H           -1.264844196518     1.104543490539     0.881895384815     1.007825032230
         H           -1.265368196518     1.094392490539    -0.885255615185     1.007825032230
         H           -3.490298196518     0.320382490539     0.003334384815     1.007825032230
         H           -2.676795196518    -0.988521509461    -0.876759615185     1.007825032230
         H           -2.676973196518    -0.978916509461     0.897207384815     1.007825032230
         H            1.669664803482    -1.827710509461     0.208248384815     1.007825032230
         H            2.869811803482    -0.592167509461     0.181510384815     1.007825032230

  Basis Set: AUG-CC-PVTZ
    Blend: AUG-CC-PVTZ
  Basis Set: (AUG-CC-PVTZ AUX)
    Blend: AUG-CC-PVTZ-JKFIT
	 Reference Energy          =    -322.0040482686222845 [Eh]
	 Singles Energy            =      -0.0000000000000000 [Eh]
	 Same-Spin Energy          =      -0.3135534547203465 [Eh]
	 Opposite-Spin Energy      =      -0.9931604959103680 [Eh]
	 Correlation Energy        =      -1.3067139506307144 [Eh]
	 Total Energy              =    -323.3107622192529789 [Eh]

	 ================> DF-SCS-MP2 Energies <==================
	-----------------------------------------------------------
	 SCS Same-Spin Scale       =       0.3333333333333333 [-]
	 SCS Opposite-Spin Scale   =       1.2000000000000000 [-]
	 SCS Same-Spin Energy      =      -0.1045178182401155 [Eh]
	 SCS Opposite-Spin Energy  =      -1.1917925950924415 [Eh]
	 SCS Correlation Energy    =      -1.2963104133325569 [Eh]
	 SCS Total Energy          =    -323.3003586819548332 [Eh]
	-----------------------------------------------------------

  Dipole Moment: [D]
     X:    -0.1698      Y:    -2.3569      Z:     0.7159     Total:     2.4691

*** Psi4 exiting successfully. Buy a developer a beer!
