                               Psi4 1.4a3.dev225

  ==> Input File <==

--------------------------------------------------------------------------
#psi4
#
memory 32 gb

molecule  {
0 1
  O       -0.1791250    -0.4779340     0.0014420
  O        1.2676250     1.2989270     0.0090110
  N        2.0163350    -0.8804990    -0.0657410
  C       -1.2686920     0.4722670    -0.0022460
  C       -2.5451940    -0.3377090     0.0025190
  C        1.0558770     0.0965110    -0.0009640
  H       -1.1847720     1.1155630     0.8776850
  H       -1.1852960     1.1054120    -0.8894660
  H       -3.4102260     0.3314020    -0.0008760
  H       -2.5967230    -0.9775020    -0.8809700
  H       -2.5969010    -0.9678970     0.8929970
  H        1.7497370    -1.8166910     0.2040380
  H        2.9960972    -0.5663293     0.1893312
units angstrom
no_reorient  #important for SAPT in psi4, default
symmetry c1  #important for SAPT in psi4, default
}

set PROPERTIES_ORIGIN ["COM"]
properties('MP2/aug-cc-pvtz', properties = ['dipole'])
--------------------------------------------------------------------------

    Molecular point group: c1
  Charge       = 0
  Multiplicity = 1
  Basis Set: AUG-CC-PVTZ
    Blend: AUG-CC-PVTZ
  Basis Set: (AUG-CC-PVTZ AUX)
    Blend: AUG-CC-PVTZ-JKFIT

    Orbital Energies [Eh]
    ---------------------

    Doubly Occupied:

       1A    -20.601457     2A    -20.529570     3A    -15.593450
       4A    -11.405255     5A    -11.288002     6A    -11.224755
       7A     -1.456548     8A     -1.350282     9A     -1.210668
      10A     -1.034479    11A     -0.873141    12A     -0.797966
      13A     -0.743325    14A     -0.692628    15A     -0.682804
      16A     -0.638573    17A     -0.598125    18A     -0.580284
      19A     -0.545608    20A     -0.521546    21A     -0.513923
      22A     -0.462733    23A     -0.457123    24A     -0.429879

  @DF-RHF Final Energy:  -322.00913113982295

   => Energetics <=

    Nuclear Repulsion Energy =            245.8437338015330909
    One-Electron Energy =                -927.2414864513671091
    Two-Electron Energy =                 359.3886215100110917
    Total Energy =                       -322.0091311398229550
  Basis Set: (AUG-CC-PVTZ AUX)
    Blend: AUG-CC-PVTZ-RI
    Molecular point group: c1

    Geometry (in Angstrom), charge = 0, multiplicity = 1:

       Center              X                  Y                   Z               Mass
    ------------   -----------------  -----------------  -----------------  -----------------
         O           -0.249563961885    -0.497978412419     0.005550595025    15.994914619570
         O            1.197186038115     1.278882587581     0.013119595025    15.994914619570
         N            1.945896038115    -0.900543412419    -0.061632404975    14.003074004430
         C           -1.339130961885     0.452222587581     0.001862595025    12.000000000000
         C           -2.615632961885    -0.357753412419     0.006627595025    12.000000000000
         C            0.985438038115     0.076466587581     0.003144595025    12.000000000000
         H           -1.255210961885     1.095518587581     0.881793595025     1.007825032230
         H           -1.255734961885     1.085367587581    -0.885357404975     1.007825032230
         H           -3.480664961885     0.311357587581     0.003232595025     1.007825032230
         H           -2.667161961885    -0.997546412419    -0.876861404975     1.007825032230
         H           -2.667339961885    -0.987941412419     0.897105595025     1.007825032230
         H            1.679298038115    -1.836735412419     0.208146595025     1.007825032230
         H            2.925658238115    -0.586373712419     0.193439795025     1.007825032230

  Basis Set: AUG-CC-PVTZ
    Blend: AUG-CC-PVTZ
  Basis Set: (AUG-CC-PVTZ AUX)
    Blend: AUG-CC-PVTZ-JKFIT
	 Reference Energy          =    -322.0091311398229550 [Eh]
	 Singles Energy            =      -0.0000000000000000 [Eh]
	 Same-Spin Energy          =      -0.3135838208412413 [Eh]
	 Opposite-Spin Energy      =      -0.9942964374957759 [Eh]
	 Correlation Energy        =      -1.3078802583370170 [Eh]
	 Total Energy              =    -323.3170113981599911 [Eh]

	 ================> DF-SCS-MP2 Energies <==================
	-----------------------------------------------------------
	 SCS Same-Spin Scale       =       0.3333333333333333 [-]
	 SCS Opposite-Spin Scale   =       1.2000000000000000 [-]
	 SCS Same-Spin Energy      =      -0.1045279402804137 [Eh]
	 SCS Opposite-Spin Energy  =      -1.1931557249949309 [Eh]
	 SCS Correlation Energy    =      -1.2976836652753447 [Eh]
	 SCS Total Energy          =    -323.3068148050983268 [Eh]
	-----------------------------------------------------------

  Dipole Moment: [D]
     X:    -0.5625      Y:    -2.1864      Z:     0.7250     Total:     2.3711

*** Psi4 exiting successfully. Buy a developer a beer!
