                               Psi4 1.4a3.dev225

  ==> Input File <==

--------------------------------------------------------------------------
#psi4
#
memory 32 gb

molecule  {
0 1
  O       -0.1791250    -0.4779340     0.0014420
  O        1.2676250     1.2989270     0.0090110
  N        2.0163350    -0.8804990    -0.0657410
  C       -1.2837652     0.4854122    -0.0022970
  C       -2.5451940    -0.3377090     0.0025190
  C        1.0558770     0.0965110    -0.0009640
  H       -1.1847720     1.1155630     0.8776850
  H       -1.1852960     1.1054120    -0.8894660
  H       -3.4102260     0.3314020    -0.0008760
  H       -2.5967230    -0.9775020    -0.8809700
  H       -2.5969010    -0.9678970     0.8929970
  H        1.7497370    -1.8166910     0.2040380
  H        2.9498840    -0.5811480     0.1773000
units angstrom
no_reorient  #important for SAPT in psi4, default
symmetry c1  #important for SAPT in psi4, default
}

set PROPERTIES_ORIGIN ["COM"]
properties('MP2/aug-cc-pvtz', properties = ['dipole'])
--------------------------------------------------------------------------

    Molecular point group: c1
  Charge       = 0
  Multiplicity = 1
  Basis Set: AUG-CC-PVTZ
    Blend: AUG-CC-PVTZ
  Basis Set: (AUG-CC-PVTZ AUX)
    Blend: AUG-CC-PVTZ-JKFIT

    Orbital Energies [Eh]
    ---------------------

    Doubly Occupied:

       1A    -20.599180     2A    -20.528863     3A    -15.588243
       4A    -11.404100     5A    -11.288809     6A    -11.225576
       7A     -1.452504     8A     -1.347595     9A     -1.215367
      10A     -1.037225    11A     -0.873839    12A     -0.799908
      13A     -0.742426    14A     -0.699084    15A     -0.681964
      16A     -0.640710    17A     -0.599526    18A     -0.579145
      19A     -0.543985    20A     -0.522081    21A     -0.517894
      22A     -0.464375    23A     -0.456207    24A     -0.430240

  @DF-RHF Final Energy:  -322.01215517975203

   => Energetics <=

    Nuclear Repulsion Energy =            245.8194773978271428
    One-Electron Energy =                -927.1855750398066220
    Two-Electron Energy =                 359.3539424622273941
    Total Energy =                       -322.0121551797520283
  Basis Set: (AUG-CC-PVTZ AUX)
    Blend: AUG-CC-PVTZ-RI
    Molecular point group: c1

    Geometry (in Angstrom), charge = 0, multiplicity = 1:

       Center              X                  Y                   Z               Mass
    ------------   -----------------  -----------------  -----------------  -----------------
         O           -0.247009676095    -0.499582134668     0.005693634627    15.994914619570
         O            1.199740323905     1.277278865332     0.013262634627    15.994914619570
         N            1.948450323905    -0.902147134668    -0.061489365373    14.003074004430
         C           -1.351649876095     0.463764065332     0.001954634627    12.000000000000
         C           -2.613078676095    -0.359357134668     0.006770634627    12.000000000000
         C            0.987992323905     0.074862865332     0.003287634627    12.000000000000
         H           -1.252656676095     1.093914865332     0.881936634627     1.007825032230
         H           -1.253180676095     1.083763865332    -0.885214365373     1.007825032230
         H           -3.478110676095     0.309753865332     0.003375634627     1.007825032230
         H           -2.664607676095    -0.999150134668    -0.876718365373     1.007825032230
         H           -2.664785676095    -0.989545134668     0.897248634627     1.007825032230
         H            1.681852323905    -1.838339134668     0.208289634627     1.007825032230
         H            2.881999323905    -0.602796134668     0.181551634627     1.007825032230

  Basis Set: AUG-CC-PVTZ
    Blend: AUG-CC-PVTZ
  Basis Set: (AUG-CC-PVTZ AUX)
    Blend: AUG-CC-PVTZ-JKFIT
	 Reference Energy          =    -322.0121551797520283 [Eh]
	 Singles Energy            =      -0.0000000000000000 [Eh]
	 Same-Spin Energy          =      -0.3133397898414846 [Eh]
	 Opposite-Spin Energy      =      -0.9937158546782187 [Eh]
	 Correlation Energy        =      -1.3070556445197032 [Eh]
	 Total Energy              =    -323.3192108242717495 [Eh]

	 ================> DF-SCS-MP2 Energies <==================
	-----------------------------------------------------------
	 SCS Same-Spin Scale       =       0.3333333333333333 [-]
	 SCS Opposite-Spin Scale   =       1.2000000000000000 [-]
	 SCS Same-Spin Energy      =      -0.1044465966138282 [Eh]
	 SCS Opposite-Spin Energy  =      -1.1924590256138623 [Eh]
	 SCS Correlation Energy    =      -1.2969056222276905 [Eh]
	 SCS Total Energy          =    -323.3090608019797401 [Eh]
	-----------------------------------------------------------

  Dipole Moment: [D]
     X:    -0.6991      Y:    -2.1692      Z:     0.7152     Total:     2.3887

*** Psi4 exiting successfully. Buy a developer a beer!
