                               Psi4 1.4a3.dev225

  ==> Input File <==

--------------------------------------------------------------------------
#psi4
#
memory 32 gb

molecule  {
0 1
  O       -0.1791250    -0.4779340     0.0014420
  O        1.2676250     1.2989270     0.0090110
  N        2.0163350    -0.8804990    -0.0657410
  C       -1.2686920     0.4722670    -0.0022460
  C       -2.5620812    -0.3484244     0.0025820
  C        1.0558770     0.0965110    -0.0009640
  H       -1.1847720     1.1155630     0.8776850
  H       -1.1852960     1.1054120    -0.8894660
  H       -3.4102260     0.3314020    -0.0008760
  H       -2.5967230    -0.9775020    -0.8809700
  H       -2.5969010    -0.9678970     0.8929970
  H        1.7497370    -1.8166910     0.2040380
  H        2.9498840    -0.5811480     0.1773000
units angstrom
no_reorient  #important for SAPT in psi4, default
symmetry c1  #important for SAPT in psi4, default
}

set PROPERTIES_ORIGIN ["COM"]
properties('MP2/aug-cc-pvtz', properties = ['dipole'])
--------------------------------------------------------------------------

    Molecular point group: c1
  Charge       = 0
  Multiplicity = 1
  Basis Set: AUG-CC-PVTZ
    Blend: AUG-CC-PVTZ
  Basis Set: (AUG-CC-PVTZ AUX)
    Blend: AUG-CC-PVTZ-JKFIT

    Orbital Energies [Eh]
    ---------------------

    Doubly Occupied:

       1A    -20.601585     2A    -20.530126     3A    -15.589322
       4A    -11.405590     5A    -11.288864     6A    -11.224259
       7A     -1.456807     8A     -1.350658     9A     -1.216805
      10A     -1.031837    11A     -0.876796    12A     -0.799753
      13A     -0.744405    14A     -0.700636    15A     -0.682627
      16A     -0.642365    17A     -0.598773    18A     -0.580391
      19A     -0.547866    20A     -0.524845    21A     -0.509745
      22A     -0.463312    23A     -0.457560    24A     -0.431058

  @DF-RHF Final Energy:  -322.01248787032404

   => Energetics <=

    Nuclear Repulsion Energy =            245.8220483808032952
    One-Electron Energy =                -927.1571071151143997
    Two-Electron Energy =                 359.3225708639870959
    Total Energy =                       -322.0124878703240370
  Basis Set: (AUG-CC-PVTZ AUX)
    Blend: AUG-CC-PVTZ-RI
    Molecular point group: c1

    Geometry (in Angstrom), charge = 0, multiplicity = 1:

       Center              X                  Y                   Z               Mass
    ------------   -----------------  -----------------  -----------------  -----------------
         O           -0.246765222782    -0.496366697670     0.005678272070    15.994914619570
         O            1.199984777218     1.280494302330     0.013247272070    15.994914619570
         N            1.948694777218    -0.898931697670    -0.061504727930    14.003074004430
         C           -1.336332222782     0.453834302330     0.001990272070    12.000000000000
         C           -2.629721422782    -0.366857097670     0.006818272070    12.000000000000
         C            0.988236777218     0.078078302330     0.003272272070    12.000000000000
         H           -1.252412222782     1.097130302330     0.881921272070     1.007825032230
         H           -1.252936222782     1.086979302330    -0.885229727930     1.007825032230
         H           -3.477866222782     0.312969302330     0.003360272070     1.007825032230
         H           -2.664363222782    -0.995934697670    -0.876733727930     1.007825032230
         H           -2.664541222782    -0.986329697670     0.897233272070     1.007825032230
         H            1.682096777218    -1.835123697670     0.208274272070     1.007825032230
         H            2.882243777218    -0.599580697670     0.181536272070     1.007825032230

  Basis Set: AUG-CC-PVTZ
    Blend: AUG-CC-PVTZ
  Basis Set: (AUG-CC-PVTZ AUX)
    Blend: AUG-CC-PVTZ-JKFIT
	 Reference Energy          =    -322.0124878703240370 [Eh]
	 Singles Energy            =      -0.0000000000000000 [Eh]
	 Same-Spin Energy          =      -0.3132032823546730 [Eh]
	 Opposite-Spin Energy      =      -0.9934564140789437 [Eh]
	 Correlation Energy        =      -1.3066596964336168 [Eh]
	 Total Energy              =    -323.3191475667576356 [Eh]

	 ================> DF-SCS-MP2 Energies <==================
	-----------------------------------------------------------
	 SCS Same-Spin Scale       =       0.3333333333333333 [-]
	 SCS Opposite-Spin Scale   =       1.2000000000000000 [-]
	 SCS Same-Spin Energy      =      -0.1044010941182243 [Eh]
	 SCS Opposite-Spin Energy  =      -1.1921476968947324 [Eh]
	 SCS Correlation Energy    =      -1.2965487910129567 [Eh]
	 SCS Total Energy          =    -323.3090366613370179 [Eh]
	-----------------------------------------------------------

  Dipole Moment: [D]
     X:    -0.6060      Y:    -2.1972      Z:     0.7155     Total:     2.3889

*** Psi4 exiting successfully. Buy a developer a beer!
