                               Psi4 1.4a3.dev225

  ==> Input File <==

--------------------------------------------------------------------------
#psi4
#
memory 32 gb

molecule  {
0 1
  O       -0.1791250    -0.4779340     0.0014420
  O        1.2676250     1.2989270     0.0090110
  N        2.0163350    -0.8804990    -0.0657410
  C       -1.2686920     0.4722670    -0.0022460
  C       -2.5451940    -0.3377090     0.0025190
  C        1.0558770     0.0965110    -0.0009640
  H       -1.1847720     1.1155630     0.8776850
  H       -1.1852960     1.1054120    -0.8894660
  H       -3.4102260     0.3314020    -0.0008760
  H       -2.5967230    -0.9775020    -0.8809700
  H       -2.5969010    -0.9678970     0.8929970
  H        1.8140079    -1.8242773     0.2320121
  H        2.9498840    -0.5811480     0.1773000
units angstrom
no_reorient  #important for SAPT in psi4, default
symmetry c1  #important for SAPT in psi4, default
}

set PROPERTIES_ORIGIN ["COM"]
properties('MP2/aug-cc-pvtz', properties = ['dipole'])
--------------------------------------------------------------------------

    Molecular point group: c1
  Charge       = 0
  Multiplicity = 1
  Basis Set: AUG-CC-PVTZ
    Blend: AUG-CC-PVTZ
  Basis Set: (AUG-CC-PVTZ AUX)
    Blend: AUG-CC-PVTZ-JKFIT

    Orbital Energies [Eh]
    ---------------------

    Doubly Occupied:

       1A    -20.601324     2A    -20.531078     3A    -15.589319
       4A    -11.407000     5A    -11.287880     6A    -11.224640
       7A     -1.456833     8A     -1.351215     9A     -1.216671
      10A     -1.035121    11A     -0.876155    12A     -0.802021
      13A     -0.745018    14A     -0.697600    15A     -0.683021
      16A     -0.640959    17A     -0.598576    18A     -0.580831
      19A     -0.545779    20A     -0.521828    21A     -0.513809
      22A     -0.462966    23A     -0.458573    24A     -0.431606

  @DF-RHF Final Energy:  -322.01200260212210

   => Energetics <=

    Nuclear Repulsion Energy =            246.0038519607444130
    One-Electron Energy =                -927.5120627979066512
    Two-Electron Energy =                 359.4962082350401147
    Total Energy =                       -322.0120026021220951
  Basis Set: (AUG-CC-PVTZ AUX)
    Blend: AUG-CC-PVTZ-RI
    Molecular point group: c1

    Geometry (in Angstrom), charge = 0, multiplicity = 1:

       Center              X                  Y                   Z               Mass
    ------------   -----------------  -----------------  -----------------  -----------------
         O           -0.249768335569    -0.497724836804     0.005370156253    15.994914619570
         O            1.196981664431     1.279136163196     0.012939156253    15.994914619570
         N            1.945691664431    -0.900289836804    -0.061812843747    14.003074004430
         C           -1.339335335569     0.452476163196     0.001682156253    12.000000000000
         C           -2.615837335569    -0.357499836804     0.006447156253    12.000000000000
         C            0.985233664431     0.076720163196     0.002964156253    12.000000000000
         H           -1.255415335569     1.095772163196     0.881613156253     1.007825032230
         H           -1.255939335569     1.085621163196    -0.885537843747     1.007825032230
         H           -3.480869335569     0.311611163196     0.003052156253     1.007825032230
         H           -2.667366335569    -0.997292836804    -0.877041843747     1.007825032230
         H           -2.667544335569    -0.987687836804     0.896925156253     1.007825032230
         H            1.743364564431    -1.844068136804     0.235940256253     1.007825032230
         H            2.879240664431    -0.600938836804     0.181228156253     1.007825032230

  Basis Set: AUG-CC-PVTZ
    Blend: AUG-CC-PVTZ
  Basis Set: (AUG-CC-PVTZ AUX)
    Blend: AUG-CC-PVTZ-JKFIT
	 Reference Energy          =    -322.0120026021220951 [Eh]
	 Singles Energy            =      -0.0000000000000000 [Eh]
	 Same-Spin Energy          =      -0.3133198079568214 [Eh]
	 Opposite-Spin Energy      =      -0.9935986772211193 [Eh]
	 Correlation Energy        =      -1.3069184851779405 [Eh]
	 Total Energy              =    -323.3189210873000548 [Eh]

	 ================> DF-SCS-MP2 Energies <==================
	-----------------------------------------------------------
	 SCS Same-Spin Scale       =       0.3333333333333333 [-]
	 SCS Opposite-Spin Scale   =       1.2000000000000000 [-]
	 SCS Same-Spin Energy      =      -0.1044399359856071 [Eh]
	 SCS Opposite-Spin Energy  =      -1.1923184126653430 [Eh]
	 SCS Correlation Energy    =      -1.2967583486509502 [Eh]
	 SCS Total Energy          =    -323.3087609507730349 [Eh]
	-----------------------------------------------------------

  Dipole Moment: [D]
     X:    -0.5696      Y:    -2.1926      Z:     0.7539     Total:     2.3876

*** Psi4 exiting successfully. Buy a developer a beer!
