                               Psi4 1.4a3.dev225

  ==> Input File <==

--------------------------------------------------------------------------
#psi4
#
memory 32 gb

molecule  {
0 1
  O       -0.1791250    -0.4779340     0.0014420
  O        1.2676250     1.2989270     0.0090110
  N        2.0163350    -0.8804990    -0.0657410
  C       -1.2686920     0.4722670    -0.0022460
  C       -2.5451940    -0.3377090     0.0025190
  C        1.0558770     0.0965110    -0.0009640
  H       -1.1847720     1.1155630     0.8776850
  H       -1.1852960     1.1054120    -0.8894660
  H       -3.4102260     0.3314020    -0.0008760
  H       -2.5967230    -0.9775020    -0.8809700
  H       -2.5969010    -0.9678970     0.8929970
  H        1.6969508    -2.0020564     0.2574541
  H        2.9498840    -0.5811480     0.1773000
units angstrom
no_reorient  #important for SAPT in psi4, default
symmetry c1  #important for SAPT in psi4, default
}

set PROPERTIES_ORIGIN ["COM"]
properties('MP2/aug-cc-pvtz', properties = ['dipole'])
--------------------------------------------------------------------------

    Molecular point group: c1
  Charge       = 0
  Multiplicity = 1
  Basis Set: AUG-CC-PVTZ
    Blend: AUG-CC-PVTZ
  Basis Set: (AUG-CC-PVTZ AUX)
    Blend: AUG-CC-PVTZ-JKFIT

    Orbital Energies [Eh]
    ---------------------

    Doubly Occupied:

       1A    -20.600047     2A    -20.529885     3A    -15.603473
       4A    -11.404762     5A    -11.287208     6A    -11.224481
       7A     -1.455151     8A     -1.350006     9A     -1.196216
      10A     -1.033686    11A     -0.872374    12A     -0.794730
      13A     -0.717112    14A     -0.690498    15A     -0.682045
      16A     -0.620841    17A     -0.597279    18A     -0.579370
      19A     -0.544939    20A     -0.520792    21A     -0.513330
      22A     -0.461826    23A     -0.454774    24A     -0.427386

  @DF-RHF Final Energy:  -321.98269916121706

   => Energetics <=

    Nuclear Repulsion Energy =            245.2025546086306917
    One-Electron Energy =                -926.0460821325293637
    Two-Electron Energy =                 358.8608283626816728
    Total Energy =                       -321.9826991612170559
  Basis Set: (AUG-CC-PVTZ AUX)
    Blend: AUG-CC-PVTZ-RI
    Molecular point group: c1

    Geometry (in Angstrom), charge = 0, multiplicity = 1:

       Center              X                  Y                   Z               Mass
    ------------   -----------------  -----------------  -----------------  -----------------
         O           -0.248443505123    -0.495712766077     0.005082208438    15.994914619570
         O            1.198306494877     1.281148233923     0.012651208438    15.994914619570
         N            1.947016494877    -0.898277766077    -0.062100791562    14.003074004430
         C           -1.338010505123     0.454488233923     0.001394208438    12.000000000000
         C           -2.614512505123    -0.355487766077     0.006159208438    12.000000000000
         C            0.986558494877     0.078732233923     0.002676208438    12.000000000000
         H           -1.254090505123     1.097784233923     0.881325208438     1.007825032230
         H           -1.254614505123     1.087633233923    -0.885825791562     1.007825032230
         H           -3.479544505123     0.313623233923     0.002764208438     1.007825032230
         H           -2.666041505123    -0.995280766077    -0.877329791562     1.007825032230
         H           -2.666219505123    -0.985675766077     0.896637208438     1.007825032230
         H            1.627632294877    -2.019835166077     0.261094308438     1.007825032230
         H            2.880565494877    -0.598926766077     0.180940208438     1.007825032230

  Basis Set: AUG-CC-PVTZ
    Blend: AUG-CC-PVTZ
  Basis Set: (AUG-CC-PVTZ AUX)
    Blend: AUG-CC-PVTZ-JKFIT
	 Reference Energy          =    -321.9826991612170559 [Eh]
	 Singles Energy            =      -0.0000000000000000 [Eh]
	 Same-Spin Energy          =      -0.3145354817447413 [Eh]
	 Opposite-Spin Energy      =      -0.9972781273618605 [Eh]
	 Correlation Energy        =      -1.3118136091066019 [Eh]
	 Total Energy              =    -323.2945127703236494 [Eh]

	 ================> DF-SCS-MP2 Energies <==================
	-----------------------------------------------------------
	 SCS Same-Spin Scale       =       0.3333333333333333 [-]
	 SCS Opposite-Spin Scale   =       1.2000000000000000 [-]
	 SCS Same-Spin Energy      =      -0.1048451605815804 [Eh]
	 SCS Opposite-Spin Energy  =      -1.1967337528342326 [Eh]
	 SCS Correlation Energy    =      -1.3015789134158129 [Eh]
	 SCS Total Energy          =    -323.2842780746328799 [Eh]
	-----------------------------------------------------------

  Dipole Moment: [D]
     X:    -0.6558      Y:    -2.3691      Z:     0.7594     Total:     2.5728

*** Psi4 exiting successfully. Buy a developer a beer!
