                               Psi4 1.4a3.dev225

  ==> Input File <==

--------------------------------------------------------------------------
#psi4
#
memory 32 gb

molecule  {
0 1
  O       -0.1791250    -0.4779340     0.0014420
  O        1.2676250     1.2989270     0.0090110
  N        2.0163350    -0.8804990    -0.0657410
  C       -1.2686920     0.4722670    -0.0022460
  C       -2.5451940    -0.3377090     0.0025190
  C        1.0558770     0.0965110    -0.0009640
  H       -1.1847720     1.1155630     0.8776850
  H       -1.1852960     1.1054120    -0.8894660
  H       -3.4102260     0.3314020    -0.0008760
  H       -2.5967230    -0.9775020    -0.8809700
  H       -2.5959541    -0.9563565     0.8766899
  H        1.7497370    -1.8166910     0.2040380
  H        2.9498840    -0.5811480     0.1773000
units angstrom
no_reorient  #important for SAPT in psi4, default
symmetry c1  #important for SAPT in psi4, default
}

set PROPERTIES_ORIGIN ["COM"]
properties('MP2/aug-cc-pvtz', properties = ['dipole'])
--------------------------------------------------------------------------

    Molecular point group: c1
  Charge       = 0
  Multiplicity = 1
  Basis Set: AUG-CC-PVTZ
    Blend: AUG-CC-PVTZ
  Basis Set: (AUG-CC-PVTZ AUX)
    Blend: AUG-CC-PVTZ-JKFIT

    Orbital Energies [Eh]
    ---------------------

    Doubly Occupied:

       1A    -20.601569     2A    -20.530136     3A    -15.589333
       4A    -11.405604     5A    -11.287907     6A    -11.222415
       7A     -1.456946     8A     -1.350802     9A     -1.216882
      10A     -1.035998    11A     -0.876480    12A     -0.800241
      13A     -0.744595    14A     -0.700970    15A     -0.683385
      16A     -0.642564    17A     -0.599890    18A     -0.580863
      19A     -0.546325    20A     -0.523578    21A     -0.514118
      22A     -0.463036    23A     -0.457547    24A     -0.431048

  @DF-RHF Final Energy:  -322.01269166816058

   => Energetics <=

    Nuclear Repulsion Energy =            246.1851525330361028
    One-Electron Energy =                -927.8712234119642517
    Two-Electron Energy =                 359.6733792107675640
    Total Energy =                       -322.0126916681605849
  Basis Set: (AUG-CC-PVTZ AUX)
    Blend: AUG-CC-PVTZ-RI
    Molecular point group: c1

    Geometry (in Angstrom), charge = 0, multiplicity = 1:

       Center              X                  Y                   Z               Mass
    ------------   -----------------  -----------------  -----------------  -----------------
         O           -0.249051646337    -0.497941310362     0.005871322624    15.994914619570
         O            1.197698353663     1.278919689638     0.013440322624    15.994914619570
         N            1.946408353663    -0.900506310362    -0.061311677376    14.003074004430
         C           -1.338618646337     0.452259689638     0.002183322624    12.000000000000
         C           -2.615120646337    -0.357716310362     0.006948322624    12.000000000000
         C            0.985950353663     0.076503689638     0.003465322624    12.000000000000
         H           -1.254698646337     1.095555689638     0.882114322624     1.007825032230
         H           -1.255222646337     1.085404689638    -0.885036677376     1.007825032230
         H           -3.480152646337     0.311394689638     0.003553322624     1.007825032230
         H           -2.666649646337    -0.997509310362    -0.876540677376     1.007825032230
         H           -2.665880746337    -0.976363810362     0.881119222624     1.007825032230
         H            1.679810353663    -1.836698310362     0.208467322624     1.007825032230
         H            2.879957353663    -0.601155310362     0.181729322624     1.007825032230

  Basis Set: AUG-CC-PVTZ
    Blend: AUG-CC-PVTZ
  Basis Set: (AUG-CC-PVTZ AUX)
    Blend: AUG-CC-PVTZ-JKFIT
	 Reference Energy          =    -322.0126916681605849 [Eh]
	 Singles Energy            =      -0.0000000000000000 [Eh]
	 Same-Spin Energy          =      -0.3133280065985405 [Eh]
	 Opposite-Spin Energy      =      -0.9934206863653615 [Eh]
	 Correlation Energy        =      -1.3067486929639021 [Eh]
	 Total Energy              =    -323.3194403611244638 [Eh]

	 ================> DF-SCS-MP2 Energies <==================
	-----------------------------------------------------------
	 SCS Same-Spin Scale       =       0.3333333333333333 [-]
	 SCS Opposite-Spin Scale   =       1.2000000000000000 [-]
	 SCS Same-Spin Energy      =      -0.1044426688661802 [Eh]
	 SCS Opposite-Spin Energy  =      -1.1921048236384337 [Eh]
	 SCS Correlation Energy    =      -1.2965474925046139 [Eh]
	 SCS Total Energy          =    -323.3092391606651859 [Eh]
	-----------------------------------------------------------

  Dipole Moment: [D]
     X:    -0.6167      Y:    -2.2039      Z:     0.7228     Total:     2.4000

*** Psi4 exiting successfully. Buy a developer a beer!
