                               Psi4 1.4a3.dev225

  ==> Input File <==

--------------------------------------------------------------------------
#psi4
#
memory 32 gb

molecule  {
0 1
  O       -0.1791250    -0.4779340     0.0014420
  O        1.2676250     1.2989270     0.0090110
  N        2.0163350    -0.8804990    -0.0657410
  C       -1.2686920     0.4722670    -0.0022460
  C       -2.5451940    -0.3377090     0.0025190
  C        1.0558770     0.0965110    -0.0009640
  H       -1.1847720     1.1155630     0.8776850
  H       -1.1852960     1.1054120    -0.8894660
  H       -3.4102260     0.3314020    -0.0008760
  H       -2.5957793    -0.9657846    -0.8647894
  H       -2.5969010    -0.9678970     0.8929970
  H        1.7497370    -1.8166910     0.2040380
  H        2.9498840    -0.5811480     0.1773000
units angstrom
no_reorient  #important for SAPT in psi4, default
symmetry c1  #important for SAPT in psi4, default
}

set PROPERTIES_ORIGIN ["COM"]
properties('MP2/aug-cc-pvtz', properties = ['dipole'])
--------------------------------------------------------------------------

    Molecular point group: c1
  Charge       = 0
  Multiplicity = 1
  Basis Set: AUG-CC-PVTZ
    Blend: AUG-CC-PVTZ
  Basis Set: (AUG-CC-PVTZ AUX)
    Blend: AUG-CC-PVTZ-JKFIT

    Orbital Energies [Eh]
    ---------------------

    Doubly Occupied:

       1A    -20.601569     2A    -20.530137     3A    -15.589333
       4A    -11.405605     5A    -11.287910     6A    -11.222425
       7A     -1.456947     8A     -1.350802     9A     -1.216883
      10A     -1.036002    11A     -0.876483    12A     -0.800237
      13A     -0.744596    14A     -0.700907    15A     -0.683516
      16A     -0.642578    17A     -0.599150    18A     -0.581791
      19A     -0.546150    20A     -0.523242    21A     -0.514375
      22A     -0.463082    23A     -0.457533    24A     -0.431041

  @DF-RHF Final Energy:  -322.01269222928124

   => Energetics <=

    Nuclear Repulsion Energy =            246.1851443492465137
    One-Electron Energy =                -927.8710880145795272
    Two-Electron Energy =                 359.6732514360518280
    Total Energy =                       -322.0126922292812424
  Basis Set: (AUG-CC-PVTZ AUX)
    Blend: AUG-CC-PVTZ-RI
    Molecular point group: c1

    Geometry (in Angstrom), charge = 0, multiplicity = 1:

       Center              X                  Y                   Z               Mass
    ------------   -----------------  -----------------  -----------------  -----------------
         O           -0.249051610120    -0.497943312484     0.005503632889    15.994914619570
         O            1.197698389880     1.278917687516     0.013072632889    15.994914619570
         N            1.946408389880    -0.900508312484    -0.061679367111    14.003074004430
         C           -1.338618610120     0.452257687516     0.001815632889    12.000000000000
         C           -2.615120610120    -0.357718312484     0.006580632889    12.000000000000
         C            0.985950389880     0.076501687516     0.003097632889    12.000000000000
         H           -1.254698610120     1.095553687516     0.881746632889     1.007825032230
         H           -1.255222610120     1.085402687516    -0.885404367111     1.007825032230
         H           -3.480152610120     0.311392687516     0.003185632889     1.007825032230
         H           -2.665705910120    -0.985793912484    -0.860727767111     1.007825032230
         H           -2.666827610120    -0.987906312484     0.897058632889     1.007825032230
         H            1.679810389880    -1.836700312484     0.208099632889     1.007825032230
         H            2.879957389880    -0.601157312484     0.181361632889     1.007825032230

  Basis Set: AUG-CC-PVTZ
    Blend: AUG-CC-PVTZ
  Basis Set: (AUG-CC-PVTZ AUX)
    Blend: AUG-CC-PVTZ-JKFIT
	 Reference Energy          =    -322.0126922292812424 [Eh]
	 Singles Energy            =      -0.0000000000000000 [Eh]
	 Same-Spin Energy          =      -0.3133273846718141 [Eh]
	 Opposite-Spin Energy      =      -0.9934198577274567 [Eh]
	 Correlation Energy        =      -1.3067472423992708 [Eh]
	 Total Energy              =    -323.3194394716805391 [Eh]

	 ================> DF-SCS-MP2 Energies <==================
	-----------------------------------------------------------
	 SCS Same-Spin Scale       =       0.3333333333333333 [-]
	 SCS Opposite-Spin Scale   =       1.2000000000000000 [-]
	 SCS Same-Spin Energy      =      -0.1044424615572714 [Eh]
	 SCS Opposite-Spin Energy  =      -1.1921038292729480 [Eh]
	 SCS Correlation Energy    =      -1.2965462908302194 [Eh]
	 SCS Total Energy          =    -323.3092385201114780 [Eh]
	-----------------------------------------------------------

  Dipole Moment: [D]
     X:    -0.6167      Y:    -2.2038      Z:     0.7083     Total:     2.3955

*** Psi4 exiting successfully. Buy a developer a beer!
