                               Psi4 1.4a3.dev225

  ==> Input File <==

--------------------------------------------------------------------------
#psi4
#
memory 32 gb

molecule  {
0 1
  O       -0.1791250    -0.4779340     0.0014420
  O        1.2676250     1.2989270     0.0090110
  N        2.0163350    -0.8804990    -0.0657410
  C       -1.2686920     0.4722670    -0.0022460
  C       -2.5451940    -0.3377090     0.0025190
  C        1.0732198     0.1949923    -0.0001470
  H       -1.1847720     1.1155630     0.8776850
  H       -1.1852960     1.1054120    -0.8894660
  H       -3.4102260     0.3314020    -0.0008760
  H       -2.5967230    -0.9775020    -0.8809700
  H       -2.5969010    -0.9678970     0.8929970
  H        1.7497370    -1.8166910     0.2040380
  H        2.9498840    -0.5811480     0.1773000
units angstrom
no_reorient  #important for SAPT in psi4, default
symmetry c1  #important for SAPT in psi4, default
}

set PROPERTIES_ORIGIN ["COM"]
properties('MP2/aug-cc-pvtz', properties = ['dipole'])
--------------------------------------------------------------------------

    Molecular point group: c1
  Charge       = 0
  Multiplicity = 1
  Basis Set: AUG-CC-PVTZ
    Blend: AUG-CC-PVTZ
  Basis Set: (AUG-CC-PVTZ AUX)
    Blend: AUG-CC-PVTZ-JKFIT

    Orbital Energies [Eh]
    ---------------------

    Doubly Occupied:

       1A    -20.588014     2A    -20.557449     3A    -15.577209
       4A    -11.401984     5A    -11.282264     6A    -11.221200
       7A     -1.490008     8A     -1.377027     9A     -1.191864
      10A     -1.025236    11A     -0.861223    12A     -0.791505
      13A     -0.740633    14A     -0.700666    15A     -0.680572
      16A     -0.659298    17A     -0.611329    18A     -0.581257
      19A     -0.542153    20A     -0.526489    21A     -0.514791
      22A     -0.471513    23A     -0.464039    24A     -0.428346

  @DF-RHF Final Energy:  -321.99615692030835

   => Energetics <=

    Nuclear Repulsion Energy =            246.3607513506382247
    One-Electron Energy =                -928.1416807454163518
    Two-Electron Energy =                 359.7847724744697757
    Total Energy =                       -321.9961569203083513
  Basis Set: (AUG-CC-PVTZ AUX)
    Blend: AUG-CC-PVTZ-RI
    Molecular point group: c1

    Geometry (in Angstrom), charge = 0, multiplicity = 1:

       Center              X                  Y                   Z               Mass
    ------------   -----------------  -----------------  -----------------  -----------------
         O           -0.251378032538    -0.511081965069     0.005576663582    15.994914619570
         O            1.195371967462     1.265779034931     0.013145663582    15.994914619570
         N            1.944081967462    -0.913646965069    -0.061606336418    14.003074004430
         C           -1.340945032538     0.439119034931     0.001888663582    12.000000000000
         C           -2.617447032538    -0.370856965069     0.006653663582    12.000000000000
         C            1.000966767462     0.161844334931     0.003987663582    12.000000000000
         H           -1.257025032538     1.082415034931     0.881819663582     1.007825032230
         H           -1.257549032538     1.072264034931    -0.885331336418     1.007825032230
         H           -3.482479032538     0.298254034931     0.003258663582     1.007825032230
         H           -2.668976032538    -1.010649965069    -0.876835336418     1.007825032230
         H           -2.669154032538    -1.001044965069     0.897131663582     1.007825032230
         H            1.677483967462    -1.849838965069     0.208172663582     1.007825032230
         H            2.877630967462    -0.614295965069     0.181434663582     1.007825032230

  Basis Set: AUG-CC-PVTZ
    Blend: AUG-CC-PVTZ
  Basis Set: (AUG-CC-PVTZ AUX)
    Blend: AUG-CC-PVTZ-JKFIT
	 Reference Energy          =    -321.9961569203083513 [Eh]
	 Singles Energy            =      -0.0000000000000000 [Eh]
	 Same-Spin Energy          =      -0.3123801168486001 [Eh]
	 Opposite-Spin Energy      =      -0.9924151711536513 [Eh]
	 Correlation Energy        =      -1.3047952880022513 [Eh]
	 Total Energy              =    -323.3009522083106049 [Eh]

	 ================> DF-SCS-MP2 Energies <==================
	-----------------------------------------------------------
	 SCS Same-Spin Scale       =       0.3333333333333333 [-]
	 SCS Opposite-Spin Scale   =       1.2000000000000000 [-]
	 SCS Same-Spin Energy      =      -0.1041267056162000 [Eh]
	 SCS Opposite-Spin Energy  =      -1.1908982053843815 [Eh]
	 SCS Correlation Energy    =      -1.2950249110005816 [Eh]
	 SCS Total Energy          =    -323.2911818313089611 [Eh]
	-----------------------------------------------------------

  Dipole Moment: [D]
     X:    -0.3837      Y:    -1.3119      Z:     0.7322     Total:     1.5506

*** Psi4 exiting successfully. Buy a developer a beer!
