                               Psi4 1.4a3.dev225

  ==> Input File <==

--------------------------------------------------------------------------
#psi4
#
memory 32 gb

molecule  {
0 1
  O       -0.1791250    -0.4779340     0.0014420
  O        1.2676250     1.2989270     0.0090110
  N        2.0163350    -0.8804990    -0.0657410
  C       -1.2686920     0.4722670    -0.0022460
  C       -2.5874119    -0.3644975     0.0026766
  C        1.0558770     0.0965110    -0.0009640
  H       -1.1847720     1.1155630     0.8776850
  H       -1.1852960     1.1054120    -0.8894660
  H       -3.4102260     0.3314020    -0.0008760
  H       -2.5967230    -0.9775020    -0.8809700
  H       -2.5969010    -0.9678970     0.8929970
  H        1.7497370    -1.8166910     0.2040380
  H        2.9498840    -0.5811480     0.1773000
units angstrom
no_reorient  #important for SAPT in psi4, default
symmetry c1  #important for SAPT in psi4, default
}

set PROPERTIES_ORIGIN ["COM"]
properties('MP2/aug-cc-pvtz', properties = ['dipole'])
--------------------------------------------------------------------------

    Molecular point group: c1
  Charge       = 0
  Multiplicity = 1
  Basis Set: AUG-CC-PVTZ
    Blend: AUG-CC-PVTZ
  Basis Set: (AUG-CC-PVTZ AUX)
    Blend: AUG-CC-PVTZ-JKFIT

    Orbital Energies [Eh]
    ---------------------

    Doubly Occupied:

       1A    -20.601547     2A    -20.530054     3A    -15.589274
       4A    -11.405516     5A    -11.289873     6A    -11.223569
       7A     -1.456551     8A     -1.350400     9A     -1.216665
      10A     -1.027202    11A     -0.878925    12A     -0.799343
      13A     -0.744076    14A     -0.700273    15A     -0.681769
      16A     -0.642087    17A     -0.599384    18A     -0.580520
      19A     -0.550744    20A     -0.529125    21A     -0.501922
      22A     -0.463681    23A     -0.457499    24A     -0.431037

  @DF-RHF Final Energy:  -322.01082231999442

   => Energetics <=

    Nuclear Repulsion Energy =            245.4069770015497056
    One-Electron Energy =                -926.3335265654876594
    Two-Electron Energy =                 358.9157272439434792
    Total Energy =                       -322.0108223199944177
  Basis Set: (AUG-CC-PVTZ AUX)
    Blend: AUG-CC-PVTZ-RI
    Molecular point group: c1

    Geometry (in Angstrom), charge = 0, multiplicity = 1:

       Center              X                  Y                   Z               Mass
    ------------   -----------------  -----------------  -----------------  -----------------
         O           -0.243351676183    -0.494200698473     0.005665523844    15.994914619570
         O            1.203398323817     1.282660301527     0.013234523844    15.994914619570
         N            1.952108323817    -0.896765698473    -0.061517476156    14.003074004430
         C           -1.332918676183     0.456000301527     0.001977523844    12.000000000000
         C           -2.651638576183    -0.380764198473     0.006900123844    12.000000000000
         C            0.991650323817     0.080244301527     0.003259523844    12.000000000000
         H           -1.248998676183     1.099296301527     0.881908523844     1.007825032230
         H           -1.249522676183     1.089145301527    -0.885242476156     1.007825032230
         H           -3.474452676183     0.315135301527     0.003347523844     1.007825032230
         H           -2.660949676183    -0.993768698473    -0.876746476156     1.007825032230
         H           -2.661127676183    -0.984163698473     0.897220523844     1.007825032230
         H            1.685510323817    -1.832957698473     0.208261523844     1.007825032230
         H            2.885657323817    -0.597414698473     0.181523523844     1.007825032230

  Basis Set: AUG-CC-PVTZ
    Blend: AUG-CC-PVTZ
  Basis Set: (AUG-CC-PVTZ AUX)
    Blend: AUG-CC-PVTZ-JKFIT
	 Reference Energy          =    -322.0108223199944177 [Eh]
	 Singles Energy            =      -0.0000000000000000 [Eh]
	 Same-Spin Energy          =      -0.3130868348544950 [Eh]
	 Opposite-Spin Energy      =      -0.9934478277804875 [Eh]
	 Correlation Energy        =      -1.3065346626349825 [Eh]
	 Total Energy              =    -323.3173569826294056 [Eh]

	 ================> DF-SCS-MP2 Energies <==================
	-----------------------------------------------------------
	 SCS Same-Spin Scale       =       0.3333333333333333 [-]
	 SCS Opposite-Spin Scale   =       1.2000000000000000 [-]
	 SCS Same-Spin Energy      =      -0.1043622782848317 [Eh]
	 SCS Opposite-Spin Energy  =      -1.1921373933365849 [Eh]
	 SCS Correlation Energy    =      -1.2964996716214165 [Eh]
	 SCS Total Energy          =    -323.3073219916158223 [Eh]
	-----------------------------------------------------------

  Dipole Moment: [D]
     X:    -0.5950      Y:    -2.1957      Z:     0.7156     Total:     2.3847

*** Psi4 exiting successfully. Buy a developer a beer!
