                               Psi4 1.4a3.dev225

  ==> Input File <==

--------------------------------------------------------------------------
#psi4
#
memory 32 gb

molecule  {
0 1
  O       -0.2129505    -0.5153800     0.0016438
  O        1.2676250     1.2989270     0.0090110
  N        2.0163350    -0.8804990    -0.0657410
  C       -1.2686920     0.4722670    -0.0022460
  C       -2.5451940    -0.3377090     0.0025190
  C        1.0558770     0.0965110    -0.0009640
  H       -1.1847720     1.1155630     0.8776850
  H       -1.1852960     1.1054120    -0.8894660
  H       -3.4102260     0.3314020    -0.0008760
  H       -2.5967230    -0.9775020    -0.8809700
  H       -2.5969010    -0.9678970     0.8929970
  H        1.7497370    -1.8166910     0.2040380
  H        2.9498840    -0.5811480     0.1773000
units angstrom
no_reorient  #important for SAPT in psi4, default
symmetry c1  #important for SAPT in psi4, default
}

set PROPERTIES_ORIGIN ["COM"]
properties('MP2/aug-cc-pvtz', properties = ['dipole'])
--------------------------------------------------------------------------

    Molecular point group: c1
  Charge       = 0
  Multiplicity = 1
  Basis Set: AUG-CC-PVTZ
    Blend: AUG-CC-PVTZ
  Basis Set: (AUG-CC-PVTZ AUX)
    Blend: AUG-CC-PVTZ-JKFIT

    Orbital Energies [Eh]
    ---------------------

    Doubly Occupied:

       1A    -20.601220     2A    -20.538173     3A    -15.592788
       4A    -11.411590     5A    -11.284873     6A    -11.221570
       7A     -1.444840     8A     -1.352761     9A     -1.219211
      10A     -1.029014    11A     -0.867067    12A     -0.802953
      13A     -0.744302    14A     -0.696822    15A     -0.677614
      16A     -0.643971    17A     -0.596226    18A     -0.581677
      19A     -0.540356    20A     -0.521459    21A     -0.513426
      22A     -0.463403    23A     -0.460440    24A     -0.433606

  @DF-RHF Final Energy:  -322.00672460458952

   => Energetics <=

    Nuclear Repulsion Energy =            245.1658328504723556
    One-Electron Energy =                -925.8663935312413287
    Two-Electron Energy =                 358.6938360761794229
    Total Energy =                       -322.0067246045895217
  Basis Set: (AUG-CC-PVTZ AUX)
    Blend: AUG-CC-PVTZ-RI
    Molecular point group: c1

    Geometry (in Angstrom), charge = 0, multiplicity = 1:

       Center              X                  Y                   Z               Mass
    ------------   -----------------  -----------------  -----------------  -----------------
         O           -0.276790628380    -0.528530574868     0.005852314202    15.994914619570
         O            1.203784871620     1.285776425132     0.013219514202    15.994914619570
         N            1.952494871620    -0.893649574868    -0.061532485798    14.003074004430
         C           -1.332532128380     0.459116425132     0.001962514202    12.000000000000
         C           -2.609034128380    -0.350859574868     0.006727514202    12.000000000000
         C            0.992036871620     0.083360425132     0.003244514202    12.000000000000
         H           -1.248612128380     1.102412425132     0.881893514202     1.007825032230
         H           -1.249136128380     1.092261425132    -0.885257485798     1.007825032230
         H           -3.474066128380     0.318251425132     0.003332514202     1.007825032230
         H           -2.660563128380    -0.990652574868    -0.876761485798     1.007825032230
         H           -2.660741128380    -0.981047574868     0.897205514202     1.007825032230
         H            1.685896871620    -1.829841574868     0.208246514202     1.007825032230
         H            2.886043871620    -0.594298574868     0.181508514202     1.007825032230

  Basis Set: AUG-CC-PVTZ
    Blend: AUG-CC-PVTZ
  Basis Set: (AUG-CC-PVTZ AUX)
    Blend: AUG-CC-PVTZ-JKFIT
	 Reference Energy          =    -322.0067246045895217 [Eh]
	 Singles Energy            =      -0.0000000000000000 [Eh]
	 Same-Spin Energy          =      -0.3141903745077244 [Eh]
	 Opposite-Spin Energy      =      -0.9959017993497874 [Eh]
	 Correlation Energy        =      -1.3100921738575118 [Eh]
	 Total Energy              =    -323.3168167784470484 [Eh]

	 ================> DF-SCS-MP2 Energies <==================
	-----------------------------------------------------------
	 SCS Same-Spin Scale       =       0.3333333333333333 [-]
	 SCS Opposite-Spin Scale   =       1.2000000000000000 [-]
	 SCS Same-Spin Energy      =      -0.1047301248359081 [Eh]
	 SCS Opposite-Spin Energy  =      -1.1950821592197449 [Eh]
	 SCS Correlation Energy    =      -1.2998122840556530 [Eh]
	 SCS Total Energy          =    -323.3065368886451552 [Eh]
	-----------------------------------------------------------

  Dipole Moment: [D]
     X:    -0.3022      Y:    -2.0809      Z:     0.7118     Total:     2.2199

*** Psi4 exiting successfully. Buy a developer a beer!
