                               Psi4 1.4a3.dev225

  ==> Input File <==

--------------------------------------------------------------------------
#psi4
#
memory 32 gb

molecule  {
0 1
  O       -0.1791250    -0.4779340     0.0014420
  O        1.2676250     1.2989270     0.0090110
  N        2.0163350    -0.8804990    -0.0657410
  C       -1.2686920     0.4722670    -0.0022460
  C       -2.5283068    -0.3269936     0.0024560
  C        1.0558770     0.0965110    -0.0009640
  H       -1.1847720     1.1155630     0.8776850
  H       -1.1852960     1.1054120    -0.8894660
  H       -3.4102260     0.3314020    -0.0008760
  H       -2.5967230    -0.9775020    -0.8809700
  H       -2.5969010    -0.9678970     0.8929970
  H        1.7497370    -1.8166910     0.2040380
  H        2.9498840    -0.5811480     0.1773000
units angstrom
no_reorient  #important for SAPT in psi4, default
symmetry c1  #important for SAPT in psi4, default
}

set PROPERTIES_ORIGIN ["COM"]
properties('MP2/aug-cc-pvtz', properties = ['dipole'])
--------------------------------------------------------------------------

    Molecular point group: c1
  Charge       = 0
  Multiplicity = 1
  Basis Set: AUG-CC-PVTZ
    Blend: AUG-CC-PVTZ
  Basis Set: (AUG-CC-PVTZ AUX)
    Blend: AUG-CC-PVTZ-JKFIT

    Orbital Energies [Eh]
    ---------------------

    Doubly Occupied:

       1A    -20.601647     2A    -20.530223     3A    -15.589388
       4A    -11.405689     5A    -11.287364     6A    -11.225611
       7A     -1.457183     8A     -1.351036     9A     -1.217013
      10A     -1.038759    11A     -0.873799    12A     -0.800310
      13A     -0.744877    14A     -0.701173    15A     -0.683929
      16A     -0.642790    17A     -0.598432    18A     -0.581532
      19A     -0.545077    20A     -0.519096    21A     -0.517046
      22A     -0.462547    23A     -0.457562    24A     -0.431070

  @DF-RHF Final Energy:  -322.01212661101863

   => Energetics <=

    Nuclear Repulsion Energy =            246.3892962810853930
    One-Electron Energy =                -928.2765388357587426
    Two-Electron Energy =                 359.8751159436546914
    Total Energy =                       -322.0121266110186298
  Basis Set: (AUG-CC-PVTZ AUX)
    Blend: AUG-CC-PVTZ-RI
    Molecular point group: c1

    Geometry (in Angstrom), charge = 0, multiplicity = 1:

       Center              X                  Y                   Z               Mass
    ------------   -----------------  -----------------  -----------------  -----------------
         O           -0.251316636215    -0.499254696598     0.005695251738    15.994914619570
         O            1.195433363785     1.277606303402     0.013264251738    15.994914619570
         N            1.944143363785    -0.901819696598    -0.061487748262    14.003074004430
         C           -1.340883636215     0.450946303402     0.002007251738    12.000000000000
         C           -2.600498436215    -0.348314296598     0.006709251738    12.000000000000
         C            0.983685363785     0.075190303402     0.003289251738    12.000000000000
         H           -1.256963636215     1.094242303402     0.881938251738     1.007825032230
         H           -1.257487636215     1.084091303402    -0.885212748262     1.007825032230
         H           -3.482417636215     0.310081303402     0.003377251738     1.007825032230
         H           -2.668914636215    -0.998822696598    -0.876716748262     1.007825032230
         H           -2.669092636215    -0.989217696598     0.897250251738     1.007825032230
         H            1.677545363785    -1.838011696598     0.208291251738     1.007825032230
         H            2.877692363785    -0.602468696598     0.181553251738     1.007825032230

  Basis Set: AUG-CC-PVTZ
    Blend: AUG-CC-PVTZ
  Basis Set: (AUG-CC-PVTZ AUX)
    Blend: AUG-CC-PVTZ-JKFIT
	 Reference Energy          =    -322.0121266110186298 [Eh]
	 Singles Energy            =      -0.0000000000000000 [Eh]
	 Same-Spin Energy          =      -0.3134543804594391 [Eh]
	 Opposite-Spin Energy      =      -0.9936419738621114 [Eh]
	 Correlation Energy        =      -1.3070963543215504 [Eh]
	 Total Energy              =    -323.3192229653402023 [Eh]

	 ================> DF-SCS-MP2 Energies <==================
	-----------------------------------------------------------
	 SCS Same-Spin Scale       =       0.3333333333333333 [-]
	 SCS Opposite-Spin Scale   =       1.2000000000000000 [-]
	 SCS Same-Spin Energy      =      -0.1044847934864797 [Eh]
	 SCS Opposite-Spin Energy  =      -1.1923703686345337 [Eh]
	 SCS Correlation Energy    =      -1.2968551621210134 [Eh]
	 SCS Total Energy          =    -323.3089817731396352 [Eh]
	-----------------------------------------------------------

  Dipole Moment: [D]
     X:    -0.6196      Y:    -2.1979      Z:     0.7153     Total:     2.3930

*** Psi4 exiting successfully. Buy a developer a beer!
