                               Psi4 1.4a3.dev225

  ==> Input File <==

--------------------------------------------------------------------------
#psi4
#
memory 32 gb

molecule  {
0 1
  O       -0.1791250    -0.4779340     0.0014420
  O        1.2676250     1.2989270     0.0090110
  N        2.0163350    -0.8804990    -0.0657410
  C       -1.2686920     0.4722670    -0.0022460
  C       -2.5451940    -0.3377090     0.0025190
  C        1.0558770     0.0965110    -0.0009640
  H       -1.1847720     1.1155630     0.8776850
  H       -1.1852960     1.1054120    -0.8894660
  H       -3.4102260     0.3314020    -0.0008760
  H       -2.5967230    -0.9775020    -0.8809700
  H       -2.5992682    -0.9967482     0.9337647
  H        1.7497370    -1.8166910     0.2040380
  H        2.9498840    -0.5811480     0.1773000
units angstrom
no_reorient  #important for SAPT in psi4, default
symmetry c1  #important for SAPT in psi4, default
}

set PROPERTIES_ORIGIN ["COM"]
properties('MP2/aug-cc-pvtz', properties = ['dipole'])
--------------------------------------------------------------------------

    Molecular point group: c1
  Charge       = 0
  Multiplicity = 1
  Basis Set: AUG-CC-PVTZ
    Blend: AUG-CC-PVTZ
  Basis Set: (AUG-CC-PVTZ AUX)
    Blend: AUG-CC-PVTZ-JKFIT

    Orbital Energies [Eh]
    ---------------------

    Doubly Occupied:

       1A    -20.601749     2A    -20.530285     3A    -15.589419
       4A    -11.405743     5A    -11.288763     6A    -11.230922
       7A     -1.457119     8A     -1.350961     9A     -1.216976
      10A     -1.033522    11A     -0.872779    12A     -0.799573
      13A     -0.744753    14A     -0.700772    15A     -0.682991
      16A     -0.642620    17A     -0.595702    18A     -0.580507
      19A     -0.546074    20A     -0.518166    21A     -0.512860
      22A     -0.462775    23A     -0.457634    24A     -0.431120

  @DF-RHF Final Energy:  -322.01066847999908

   => Energetics <=

    Nuclear Repulsion Energy =            245.9083320300846083
    One-Electron Energy =                -927.3304344084435797
    Two-Electron Energy =                 359.4114338983599168
    Total Energy =                       -322.0106684799990830
  Basis Set: (AUG-CC-PVTZ AUX)
    Blend: AUG-CC-PVTZ-RI
    Molecular point group: c1

    Geometry (in Angstrom), charge = 0, multiplicity = 1:

       Center              X                  Y                   Z               Mass
    ------------   -----------------  -----------------  -----------------  -----------------
         O           -0.249014137970    -0.497484164628     0.005225360672    15.994914619570
         O            1.197735862030     1.279376835372     0.012794360672    15.994914619570
         N            1.946445862030    -0.900049164628    -0.061957639328    14.003074004430
         C           -1.338581137970     0.452716835372     0.001537360672    12.000000000000
         C           -2.615083137970    -0.357259164628     0.006302360672    12.000000000000
         C            0.985987862030     0.076960835372     0.002819360672    12.000000000000
         H           -1.254661137970     1.096012835372     0.881468360672     1.007825032230
         H           -1.255185137970     1.085861835372    -0.885682639328     1.007825032230
         H           -3.480115137970     0.311851835372     0.002907360672     1.007825032230
         H           -2.666612137970    -0.997052164628    -0.877186639328     1.007825032230
         H           -2.669157337970    -1.016298364628     0.937548060672     1.007825032230
         H            1.679847862030    -1.836241164628     0.207821360672     1.007825032230
         H            2.879994862030    -0.600698164628     0.181083360672     1.007825032230

  Basis Set: AUG-CC-PVTZ
    Blend: AUG-CC-PVTZ
  Basis Set: (AUG-CC-PVTZ AUX)
    Blend: AUG-CC-PVTZ-JKFIT
	 Reference Energy          =    -322.0106684799990830 [Eh]
	 Singles Energy            =      -0.0000000000000000 [Eh]
	 Same-Spin Energy          =      -0.3132849209580275 [Eh]
	 Opposite-Spin Energy      =      -0.9938205974552354 [Eh]
	 Correlation Energy        =      -1.3071055184132629 [Eh]
	 Total Energy              =    -323.3177739984123491 [Eh]

	 ================> DF-SCS-MP2 Energies <==================
	-----------------------------------------------------------
	 SCS Same-Spin Scale       =       0.3333333333333333 [-]
	 SCS Opposite-Spin Scale   =       1.2000000000000000 [-]
	 SCS Same-Spin Energy      =      -0.1044283069860091 [Eh]
	 SCS Opposite-Spin Energy  =      -1.1925847169462824 [Eh]
	 SCS Correlation Energy    =      -1.2970130239322917 [Eh]
	 SCS Total Energy          =    -323.3076815039313487 [Eh]
	-----------------------------------------------------------

  Dipole Moment: [D]
     X:    -0.6026      Y:    -2.1808      Z:     0.6948     Total:     2.3668

*** Psi4 exiting successfully. Buy a developer a beer!
