                               Psi4 1.4a3.dev225

  ==> Input File <==

--------------------------------------------------------------------------
#psi4
#
memory 32 gb

molecule  {
0 1
  O       -0.1791250    -0.4779340     0.0014420
  O        1.2676250     1.2989270     0.0090110
  N        2.0163350    -0.8804990    -0.0657410
  C       -1.2686920     0.4722670    -0.0022460
  C       -2.5451940    -0.3377090     0.0025190
  C        1.0719006     0.1124878    -0.0087759
  H       -1.1847720     1.1155630     0.8776850
  H       -1.1852960     1.1054120    -0.8894660
  H       -3.4102260     0.3314020    -0.0008760
  H       -2.5967230    -0.9775020    -0.8809700
  H       -2.5969010    -0.9678970     0.8929970
  H        1.7497370    -1.8166910     0.2040380
  H        2.9498840    -0.5811480     0.1773000
units angstrom
no_reorient  #important for SAPT in psi4, default
symmetry c1  #important for SAPT in psi4, default
}

set PROPERTIES_ORIGIN ["COM"]
properties('MP2/aug-cc-pvtz', properties = ['dipole'])
--------------------------------------------------------------------------

    Molecular point group: c1
  Charge       = 0
  Multiplicity = 1
  Basis Set: AUG-CC-PVTZ
    Blend: AUG-CC-PVTZ
  Basis Set: (AUG-CC-PVTZ AUX)
    Blend: AUG-CC-PVTZ-JKFIT

    Orbital Energies [Eh]
    ---------------------

    Doubly Occupied:

       1A    -20.596299     2A    -20.535242     3A    -15.589421
       4A    -11.405179     5A    -11.285473     6A    -11.223194
       7A     -1.454301     8A     -1.357425     9A     -1.217828
      10A     -1.031341    11A     -0.871195    12A     -0.798927
      13A     -0.745256    14A     -0.698653    15A     -0.679810
      16A     -0.645467    17A     -0.599388    18A     -0.581542
      19A     -0.543886    20A     -0.522233    21A     -0.512460
      22A     -0.461737    23A     -0.460780    24A     -0.433614

  @DF-RHF Final Energy:  -322.01233589527618

   => Energetics <=

    Nuclear Repulsion Energy =            246.0438234455917268
    One-Electron Energy =                -927.6110135574037940
    Two-Electron Energy =                 359.5548542165359436
    Total Energy =                       -322.0123358952761805
  Basis Set: (AUG-CC-PVTZ AUX)
    Blend: AUG-CC-PVTZ-RI
    Molecular point group: c1

    Geometry (in Angstrom), charge = 0, multiplicity = 1:

       Center              X                  Y                   Z               Mass
    ------------   -----------------  -----------------  -----------------  -----------------
         O           -0.251200258111    -0.499963719013     0.006739487833    15.994914619570
         O            1.195549741889     1.276897280987     0.014308487833    15.994914619570
         N            1.944259741889    -0.902528719013    -0.060443512167    14.003074004430
         C           -1.340767258111     0.450237280987     0.003051487833    12.000000000000
         C           -2.617269258111    -0.359738719013     0.007816487833    12.000000000000
         C            0.999825341889     0.090458080987    -0.003478412167    12.000000000000
         H           -1.256847258111     1.093533280987     0.882982487833     1.007825032230
         H           -1.257371258111     1.083382280987    -0.884168512167     1.007825032230
         H           -3.482301258111     0.309372280987     0.004421487833     1.007825032230
         H           -2.668798258111    -0.999531719013    -0.875672512167     1.007825032230
         H           -2.668976258111    -0.989926719013     0.898294487833     1.007825032230
         H            1.677661741889    -1.838720719013     0.209335487833     1.007825032230
         H            2.877808741889    -0.603177719013     0.182597487833     1.007825032230

  Basis Set: AUG-CC-PVTZ
    Blend: AUG-CC-PVTZ
  Basis Set: (AUG-CC-PVTZ AUX)
    Blend: AUG-CC-PVTZ-JKFIT
	 Reference Energy          =    -322.0123358952761805 [Eh]
	 Singles Energy            =      -0.0000000000000000 [Eh]
	 Same-Spin Energy          =      -0.3132247160545363 [Eh]
	 Opposite-Spin Energy      =      -0.9934273214046691 [Eh]
	 Correlation Energy        =      -1.3066520374592052 [Eh]
	 Total Energy              =    -323.3189879327354106 [Eh]

	 ================> DF-SCS-MP2 Energies <==================
	-----------------------------------------------------------
	 SCS Same-Spin Scale       =       0.3333333333333333 [-]
	 SCS Opposite-Spin Scale   =       1.2000000000000000 [-]
	 SCS Same-Spin Energy      =      -0.1044082386848454 [Eh]
	 SCS Opposite-Spin Energy  =      -1.1921127856856029 [Eh]
	 SCS Correlation Energy    =      -1.2965210243704484 [Eh]
	 SCS Total Energy          =    -323.3088569196466437 [Eh]
	-----------------------------------------------------------

  Dipole Moment: [D]
     X:    -0.4345      Y:    -2.0765      Z:     0.7056     Total:     2.2357

*** Psi4 exiting successfully. Buy a developer a beer!
