                               Psi4 1.4a3.dev225

  ==> Input File <==

--------------------------------------------------------------------------
#psi4
#
memory 32 gb

molecule  {
0 1
  O       -0.1791250    -0.4779340     0.0014420
  O        1.2676250     1.2989270     0.0090110
  N        2.0163350    -0.8804990    -0.0657410
  C       -1.2686920     0.4722670    -0.0022460
  C       -2.5451940    -0.3377090     0.0025190
  C        1.0558770     0.0965110    -0.0009640
  H       -1.1847720     1.1155630     0.8776850
  H       -1.1852960     1.1054120    -0.8894660
  H       -3.4102260     0.3314020    -0.0008760
  H       -2.5967230    -0.9775020    -0.8809700
  H       -2.5874320    -0.8524924     0.7299261
  H        1.7497370    -1.8166910     0.2040380
  H        2.9498840    -0.5811480     0.1773000
units angstrom
no_reorient  #important for SAPT in psi4, default
symmetry c1  #important for SAPT in psi4, default
}

set PROPERTIES_ORIGIN ["COM"]
properties('MP2/aug-cc-pvtz', properties = ['dipole'])
--------------------------------------------------------------------------

    Molecular point group: c1
  Charge       = 0
  Multiplicity = 1
  Basis Set: AUG-CC-PVTZ
    Blend: AUG-CC-PVTZ
  Basis Set: (AUG-CC-PVTZ AUX)
    Blend: AUG-CC-PVTZ-JKFIT

    Orbital Energies [Eh]
    ---------------------

    Doubly Occupied:

       1A    -20.601335     2A    -20.529924     3A    -15.589215
       4A    -11.405419     5A    -11.286379     6A    -11.200097
       7A     -1.456716     8A     -1.350597     9A     -1.216779
      10A     -1.048071    11A     -0.890830    12A     -0.802611
      13A     -0.744366    14A     -0.702406    15A     -0.685197
      16A     -0.643067    17A     -0.616477    18A     -0.581460
      19A     -0.550061    20A     -0.533386    21A     -0.513377
      22A     -0.463377    23A     -0.457402    24A     -0.430949

  @DF-RHF Final Energy:  -321.97798065731240

   => Energetics <=

    Nuclear Repulsion Energy =            247.0326850103562037
    One-Electron Energy =                -929.4223406232343905
    Two-Electron Energy =                 360.4116749555657861
    Total Energy =                       -321.9779806573124006
  Basis Set: (AUG-CC-PVTZ AUX)
    Blend: AUG-CC-PVTZ-RI
    Molecular point group: c1

    Geometry (in Angstrom), charge = 0, multiplicity = 1:

       Center              X                  Y                   Z               Mass
    ------------   -----------------  -----------------  -----------------  -----------------
         O           -0.249148097876    -0.499116824893     0.007532367965    15.994914619570
         O            1.197601902124     1.277744175107     0.015101367965    15.994914619570
         N            1.946311902124    -0.901681824893    -0.059650632035    14.003074004430
         C           -1.338715097876     0.451084175107     0.003844367965    12.000000000000
         C           -2.615217097876    -0.358891824893     0.008609367965    12.000000000000
         C            0.985853902124     0.075328175107     0.005126367965    12.000000000000
         H           -1.254795097876     1.094380175107     0.883775367965     1.007825032230
         H           -1.255319097876     1.084229175107    -0.883375632035     1.007825032230
         H           -3.480249097876     0.310219175107     0.005214367965     1.007825032230
         H           -2.666746097876    -0.998684824893    -0.874879632035     1.007825032230
         H           -2.657455097876    -0.873675224893     0.736016467965     1.007825032230
         H            1.679713902124    -1.837873824893     0.210128367965     1.007825032230
         H            2.879860902124    -0.602330824893     0.183390367965     1.007825032230

  Basis Set: AUG-CC-PVTZ
    Blend: AUG-CC-PVTZ
  Basis Set: (AUG-CC-PVTZ AUX)
    Blend: AUG-CC-PVTZ-JKFIT
	 Reference Energy          =    -321.9779806573124006 [Eh]
	 Singles Energy            =      -0.0000000000000000 [Eh]
	 Same-Spin Energy          =      -0.3135372521401795 [Eh]
	 Opposite-Spin Energy      =      -0.9930673377224528 [Eh]
	 Correlation Energy        =      -1.3066045898626322 [Eh]
	 Total Energy              =    -323.2845852471750163 [Eh]

	 ================> DF-SCS-MP2 Energies <==================
	-----------------------------------------------------------
	 SCS Same-Spin Scale       =       0.3333333333333333 [-]
	 SCS Opposite-Spin Scale   =       1.2000000000000000 [-]
	 SCS Same-Spin Energy      =      -0.1045124173800598 [Eh]
	 SCS Opposite-Spin Energy  =      -1.1916808052669434 [Eh]
	 SCS Correlation Energy    =      -1.2961932226470032 [Eh]
	 SCS Total Energy          =    -323.2741738799593918 [Eh]
	-----------------------------------------------------------

  Dipole Moment: [D]
     X:    -0.6425      Y:    -2.2424      Z:     0.7689     Total:     2.4561

*** Psi4 exiting successfully. Buy a developer a beer!
