                               Psi4 1.4a3.dev225

  ==> Input File <==

--------------------------------------------------------------------------
#psi4
#
memory 32 gb

molecule  {
0 1
  O       -0.2160571    -0.5145893     0.0878997
  O        1.2676250     1.2989270     0.0090110
  N        2.0163350    -0.8804990    -0.0657410
  C       -1.2686920     0.4722670    -0.0022460
  C       -2.5451940    -0.3377090     0.0025190
  C        1.0558770     0.0965110    -0.0009640
  H       -1.1847720     1.1155630     0.8776850
  H       -1.1852960     1.1054120    -0.8894660
  H       -3.4102260     0.3314020    -0.0008760
  H       -2.5967230    -0.9775020    -0.8809700
  H       -2.5969010    -0.9678970     0.8929970
  H        1.7497370    -1.8166910     0.2040380
  H        2.9498840    -0.5811480     0.1773000
units angstrom
no_reorient  #important for SAPT in psi4, default
symmetry c1  #important for SAPT in psi4, default
}

set PROPERTIES_ORIGIN ["COM"]
properties('MP2/aug-cc-pvtz', properties = ['dipole'])
--------------------------------------------------------------------------

    Molecular point group: c1
  Charge       = 0
  Multiplicity = 1
  Basis Set: AUG-CC-PVTZ
    Blend: AUG-CC-PVTZ
  Basis Set: (AUG-CC-PVTZ AUX)
    Blend: AUG-CC-PVTZ-JKFIT

    Orbital Energies [Eh]
    ---------------------

    Doubly Occupied:

       1A    -20.601125     2A    -20.538773     3A    -15.593216
       4A    -11.412341     5A    -11.284558     6A    -11.221300
       7A     -1.443756     8A     -1.352635     9A     -1.219517
      10A     -1.028370    11A     -0.866237    12A     -0.803331
      13A     -0.744380    14A     -0.697136    15A     -0.676364
      16A     -0.644104    17A     -0.597851    18A     -0.579965
      19A     -0.540295    20A     -0.521140    21A     -0.513463
      22A     -0.463005    23A     -0.460265    24A     -0.433947

  @DF-RHF Final Energy:  -322.00507667256642

   => Energetics <=

    Nuclear Repulsion Energy =            245.0543104574361735
    One-Electron Energy =                -925.6446254407632068
    Two-Electron Energy =                 358.5852383107606443
    Total Energy =                       -322.0050766725664175
  Basis Set: (AUG-CC-PVTZ AUX)
    Blend: AUG-CC-PVTZ-RI
    Molecular point group: c1

    Geometry (in Angstrom), charge = 0, multiplicity = 1:

       Center              X                  Y                   Z               Mass
    ------------   -----------------  -----------------  -----------------  -----------------
         O           -0.279339214936    -0.527881901917     0.076614764180    15.994914619570
         O            1.204342885064     1.285634398083    -0.002273935820    15.994914619570
         N            1.953052885064    -0.893791601917    -0.077025935820    14.003074004430
         C           -1.331974114936     0.458974398083    -0.013530935820    12.000000000000
         C           -2.608476114936    -0.351001601917    -0.008765935820    12.000000000000
         C            0.992594885064     0.083218398083    -0.012248935820    12.000000000000
         H           -1.248054114936     1.102270398083     0.866400064180     1.007825032230
         H           -1.248578114936     1.092119398083    -0.900750935820     1.007825032230
         H           -3.473508114936     0.318109398083    -0.012160935820     1.007825032230
         H           -2.660005114936    -0.990794601917    -0.892254935820     1.007825032230
         H           -2.660183114936    -0.981189601917     0.881712064180     1.007825032230
         H            1.686454885064    -1.829983601917     0.192753064180     1.007825032230
         H            2.886601885064    -0.594440601917     0.166015064180     1.007825032230

  Basis Set: AUG-CC-PVTZ
    Blend: AUG-CC-PVTZ
  Basis Set: (AUG-CC-PVTZ AUX)
    Blend: AUG-CC-PVTZ-JKFIT
	 Reference Energy          =    -322.0050766725664175 [Eh]
	 Singles Energy            =      -0.0000000000000000 [Eh]
	 Same-Spin Energy          =      -0.3142824396385618 [Eh]
	 Opposite-Spin Energy      =      -0.9961494609178745 [Eh]
	 Correlation Energy        =      -1.3104319005564362 [Eh]
	 Total Energy              =    -323.3155085731228269 [Eh]

	 ================> DF-SCS-MP2 Energies <==================
	-----------------------------------------------------------
	 SCS Same-Spin Scale       =       0.3333333333333333 [-]
	 SCS Opposite-Spin Scale   =       1.2000000000000000 [-]
	 SCS Same-Spin Energy      =      -0.1047608132128539 [Eh]
	 SCS Opposite-Spin Energy  =      -1.1953793531014494 [Eh]
	 SCS Correlation Energy    =      -1.3001401663143033 [Eh]
	 SCS Total Energy          =    -323.3052168388807104 [Eh]
	-----------------------------------------------------------

  Dipole Moment: [D]
     X:    -0.2699      Y:    -2.0751      Z:     0.6014     Total:     2.1773

*** Psi4 exiting successfully. Buy a developer a beer!
