                               Psi4 1.4a3.dev225

  ==> Input File <==

--------------------------------------------------------------------------
#psi4
#
memory 32 gb

molecule  {
0 1
  O       -0.1791250    -0.4779340     0.0014420
  O        1.2676250     1.2989270     0.0090110
  N        2.0163350    -0.8804990    -0.0657410
  C       -1.2686920     0.4722670    -0.0022460
  C       -2.5451940    -0.3377090     0.0025190
  C        1.1216775     0.1585843    -0.0323063
  H       -1.1847720     1.1155630     0.8776850
  H       -1.1852960     1.1054120    -0.8894660
  H       -3.4102260     0.3314020    -0.0008760
  H       -2.5967230    -0.9775020    -0.8809700
  H       -2.5969010    -0.9678970     0.8929970
  H        1.7497370    -1.8166910     0.2040380
  H        2.9498840    -0.5811480     0.1773000
units angstrom
no_reorient  #important for SAPT in psi4, default
symmetry c1  #important for SAPT in psi4, default
}

set PROPERTIES_ORIGIN ["COM"]
properties('MP2/aug-cc-pvtz', properties = ['dipole'])
--------------------------------------------------------------------------

    Molecular point group: c1
  Charge       = 0
  Multiplicity = 1
  Basis Set: AUG-CC-PVTZ
    Blend: AUG-CC-PVTZ
  Basis Set: (AUG-CC-PVTZ AUX)
    Blend: AUG-CC-PVTZ-JKFIT

    Orbital Energies [Eh]
    ---------------------

    Doubly Occupied:

       1A    -20.579267     2A    -20.550461     3A    -15.590415
       4A    -11.404014     5A    -11.277365     6A    -11.217979
       7A     -1.467792     8A     -1.358524     9A     -1.220296
      10A     -1.020212    11A     -0.859416    12A     -0.797049
      13A     -0.747252    14A     -0.698997    15A     -0.671812
      16A     -0.653965    17A     -0.606256    18A     -0.579213
      19A     -0.537800    20A     -0.521629    21A     -0.509816
      22A     -0.464036    23A     -0.457433    24A     -0.436524

  @DF-RHF Final Energy:  -322.00193808117103

   => Energetics <=

    Nuclear Repulsion Energy =            245.8984486690230824
    One-Electron Energy =                -927.3457180896417640
    Two-Electron Energy =                 359.4453313394476481
    Total Energy =                       -322.0019380811710334
  Basis Set: (AUG-CC-PVTZ AUX)
    Blend: AUG-CC-PVTZ-RI
    Molecular point group: c1

    Geometry (in Angstrom), charge = 0, multiplicity = 1:

       Center              X                  Y                   Z               Mass
    ------------   -----------------  -----------------  -----------------  -----------------
         O           -0.257908156737    -0.506175649627     0.009910427321    15.994914619570
         O            1.188841843263     1.270685350373     0.017479427321    15.994914619570
         N            1.937551843263    -0.908740649627    -0.057272572679    14.003074004430
         C           -1.347475156737     0.444025350373     0.006222427321    12.000000000000
         C           -2.623977156737    -0.365950649627     0.010987427321    12.000000000000
         C            1.042894343263     0.130342650373    -0.023837872679    12.000000000000
         H           -1.263555156737     1.087321350373     0.886153427321     1.007825032230
         H           -1.264079156737     1.077170350373    -0.880997572679     1.007825032230
         H           -3.489009156737     0.303160350373     0.007592427321     1.007825032230
         H           -2.675506156737    -1.005743649627    -0.872501572679     1.007825032230
         H           -2.675684156737    -0.996138649627     0.901465427321     1.007825032230
         H            1.670953843263    -1.844932649627     0.212506427321     1.007825032230
         H            2.871100843263    -0.609389649627     0.185768427321     1.007825032230

  Basis Set: AUG-CC-PVTZ
    Blend: AUG-CC-PVTZ
  Basis Set: (AUG-CC-PVTZ AUX)
    Blend: AUG-CC-PVTZ-JKFIT
	 Reference Energy          =    -322.0019380811710334 [Eh]
	 Singles Energy            =      -0.0000000000000000 [Eh]
	 Same-Spin Energy          =      -0.3131121435478128 [Eh]
	 Opposite-Spin Energy      =      -0.9934575867597440 [Eh]
	 Correlation Energy        =      -1.3065697303075567 [Eh]
	 Total Energy              =    -323.3085078114785915 [Eh]

	 ================> DF-SCS-MP2 Energies <==================
	-----------------------------------------------------------
	 SCS Same-Spin Scale       =       0.3333333333333333 [-]
	 SCS Opposite-Spin Scale   =       1.2000000000000000 [-]
	 SCS Same-Spin Energy      =      -0.1043707145159376 [Eh]
	 SCS Opposite-Spin Energy  =      -1.1921491041116927 [Eh]
	 SCS Correlation Energy    =      -1.2965198186276303 [Eh]
	 SCS Total Energy          =    -323.2984578997986773 [Eh]
	-----------------------------------------------------------

  Dipole Moment: [D]
     X:     0.1228      Y:    -1.7144      Z:     0.6701     Total:     1.8448

*** Psi4 exiting successfully. Buy a developer a beer!
