                               Psi4 1.4a3.dev225

  ==> Input File <==

--------------------------------------------------------------------------
#psi4
#
memory 32 gb

molecule  {
0 1
  O       -0.1791250    -0.4779340     0.0014420
  O        1.2676250     1.2989270     0.0090110
  N        2.0163350    -0.8804990    -0.0657410
  C       -1.3283035     0.5593370    -0.0027027
  C       -2.5451940    -0.3377090     0.0025190
  C        1.0558770     0.0965110    -0.0009640
  H       -1.1847720     1.1155630     0.8776850
  H       -1.1852960     1.1054120    -0.8894660
  H       -3.4102260     0.3314020    -0.0008760
  H       -2.5967230    -0.9775020    -0.8809700
  H       -2.5969010    -0.9678970     0.8929970
  H        1.7497370    -1.8166910     0.2040380
  H        2.9498840    -0.5811480     0.1773000
units angstrom
no_reorient  #important for SAPT in psi4, default
symmetry c1  #important for SAPT in psi4, default
}

set PROPERTIES_ORIGIN ["COM"]
properties('MP2/aug-cc-pvtz', properties = ['dipole'])
--------------------------------------------------------------------------

    Molecular point group: c1
  Charge       = 0
  Multiplicity = 1
  Basis Set: AUG-CC-PVTZ
    Blend: AUG-CC-PVTZ
  Basis Set: (AUG-CC-PVTZ AUX)
    Blend: AUG-CC-PVTZ-JKFIT

    Orbital Energies [Eh]
    ---------------------

    Doubly Occupied:

       1A    -20.589365     2A    -20.523810     3A    -15.583689
       4A    -11.397642     5A    -11.292231     6A    -11.229513
       7A     -1.437424     8A     -1.334717     9A     -1.209191
      10A     -1.040527    11A     -0.872165    12A     -0.799197
      13A     -0.733655    14A     -0.691652    15A     -0.682364
      16A     -0.633353    17A     -0.602712    18A     -0.576032
      19A     -0.532161    20A     -0.528586    21A     -0.522278
      22A     -0.467918    23A     -0.450839    24A     -0.426780

  @DF-RHF Final Energy:  -322.00290504527152

   => Energetics <=

    Nuclear Repulsion Energy =            244.6328235988408153
    One-Electron Energy =                -924.9558530961593306
    Two-Electron Energy =                 358.3201244520470254
    Total Energy =                       -322.0029050452715182
  Basis Set: (AUG-CC-PVTZ AUX)
    Blend: AUG-CC-PVTZ-RI
    Molecular point group: c1

    Geometry (in Angstrom), charge = 0, multiplicity = 1:

       Center              X                  Y                   Z               Mass
    ------------   -----------------  -----------------  -----------------  -----------------
         O           -0.241007727373    -0.509544186630     0.005748306462    15.994914619570
         O            1.205742272627     1.267316813370     0.013317306462    15.994914619570
         N            1.954452272627    -0.912109186630    -0.061434693538    14.003074004430
         C           -1.390186227373     0.527726813370     0.001603606462    12.000000000000
         C           -2.607076727373    -0.369319186630     0.006825306462    12.000000000000
         C            0.993994272627     0.064900813370     0.003342306462    12.000000000000
         H           -1.246654727373     1.083952813370     0.881991306462     1.007825032230
         H           -1.247178727373     1.073801813370    -0.885159693538     1.007825032230
         H           -3.472108727373     0.299791813370     0.003430306462     1.007825032230
         H           -2.658605727373    -1.009112186630    -0.876663693538     1.007825032230
         H           -2.658783727373    -0.999507186630     0.897303306462     1.007825032230
         H            1.687854272627    -1.848301186630     0.208344306462     1.007825032230
         H            2.888001272627    -0.612758186630     0.181606306462     1.007825032230

  Basis Set: AUG-CC-PVTZ
    Blend: AUG-CC-PVTZ
  Basis Set: (AUG-CC-PVTZ AUX)
    Blend: AUG-CC-PVTZ-JKFIT
	 Reference Energy          =    -322.0029050452715182 [Eh]
	 Singles Energy            =      -0.0000000000000000 [Eh]
	 Same-Spin Energy          =      -0.3135072302285055 [Eh]
	 Opposite-Spin Energy      =      -0.9948346082801829 [Eh]
	 Correlation Energy        =      -1.3083418385086882 [Eh]
	 Total Energy              =    -323.3112468837801998 [Eh]

	 ================> DF-SCS-MP2 Energies <==================
	-----------------------------------------------------------
	 SCS Same-Spin Scale       =       0.3333333333333333 [-]
	 SCS Opposite-Spin Scale   =       1.2000000000000000 [-]
	 SCS Same-Spin Energy      =      -0.1045024100761685 [Eh]
	 SCS Opposite-Spin Energy  =      -1.1938015299362195 [Eh]
	 SCS Correlation Energy    =      -1.2983039400123879 [Eh]
	 SCS Total Energy          =    -323.3012089852838926 [Eh]
	-----------------------------------------------------------

  Dipole Moment: [D]
     X:    -0.9977      Y:    -2.0373      Z:     0.7143     Total:     2.3783

*** Psi4 exiting successfully. Buy a developer a beer!
