                               Psi4 1.4a3.dev225

  ==> Input File <==

--------------------------------------------------------------------------
#psi4
#
memory 32 gb

molecule  {
0 1
  O       -0.1791250    -0.4779340     0.0014420
  O        1.2676250     1.2989270     0.0090110
  N        2.0163350    -0.8804990    -0.0657410
  C       -1.2686920     0.4722670    -0.0022460
  C       -2.5451940    -0.3377090     0.0025190
  C        1.0558770     0.0965110    -0.0009640
  H       -1.1847720     1.1155630     0.8776850
  H       -1.1852960     1.1054120    -0.8894660
  H       -3.4102260     0.3314020    -0.0008760
  H       -2.5967230    -0.9775020    -0.8809700
  H       -2.5969010    -0.9678970     0.8929970
  H        1.8465328    -1.8263476     0.2454635
  H        2.9498840    -0.5811480     0.1773000
units angstrom
no_reorient  #important for SAPT in psi4, default
symmetry c1  #important for SAPT in psi4, default
}

set PROPERTIES_ORIGIN ["COM"]
properties('MP2/aug-cc-pvtz', properties = ['dipole'])
--------------------------------------------------------------------------

    Molecular point group: c1
  Charge       = 0
  Multiplicity = 1
  Basis Set: AUG-CC-PVTZ
    Blend: AUG-CC-PVTZ
  Basis Set: (AUG-CC-PVTZ AUX)
    Blend: AUG-CC-PVTZ-JKFIT

    Orbital Energies [Eh]
    ---------------------

    Doubly Occupied:

       1A    -20.601210     2A    -20.531526     3A    -15.589269
       4A    -11.407696     5A    -11.287770     6A    -11.224534
       7A     -1.456789     8A     -1.351410     9A     -1.216615
      10A     -1.035108    11A     -0.876654    12A     -0.803080
      13A     -0.745207    14A     -0.695954    15A     -0.682922
      16A     -0.639882    17A     -0.598604    18A     -0.580880
      19A     -0.545581    20A     -0.521816    21A     -0.513687
      22A     -0.463024    23A     -0.459018    24A     -0.431862

  @DF-RHF Final Energy:  -322.01123781581737

   => Energetics <=

    Nuclear Repulsion Energy =            245.9572638595635397
    One-Electron Energy =                -927.4168064191736676
    Two-Electron Energy =                 359.4483047437927326
    Total Energy =                       -322.0112378158173669
  Basis Set: (AUG-CC-PVTZ AUX)
    Blend: AUG-CC-PVTZ-RI
    Molecular point group: c1

    Geometry (in Angstrom), charge = 0, multiplicity = 1:

       Center              X                  Y                   Z               Mass
    ------------   -----------------  -----------------  -----------------  -----------------
         O           -0.250136446327    -0.497701405534     0.005217915814    15.994914619570
         O            1.196613553673     1.279159594466     0.012786915814    15.994914619570
         N            1.945323553673    -0.900266405534    -0.061965084186    14.003074004430
         C           -1.339703446327     0.452499594466     0.001529915814    12.000000000000
         C           -2.616205446327    -0.357476405534     0.006294915814    12.000000000000
         C            0.984865553673     0.076743594466     0.002811915814    12.000000000000
         H           -1.255783446327     1.095795594466     0.881460915814     1.007825032230
         H           -1.256307446327     1.085644594466    -0.885690084186     1.007825032230
         H           -3.481237446327     0.311634594466     0.002899915814     1.007825032230
         H           -2.667734446327    -0.997269405534    -0.877194084186     1.007825032230
         H           -2.667912446327    -0.987664405534     0.896772915814     1.007825032230
         H            1.775521353673    -1.846115005534     0.249239415814     1.007825032230
         H            2.878872553673    -0.600915405534     0.181075915814     1.007825032230

  Basis Set: AUG-CC-PVTZ
    Blend: AUG-CC-PVTZ
  Basis Set: (AUG-CC-PVTZ AUX)
    Blend: AUG-CC-PVTZ-JKFIT
	 Reference Energy          =    -322.0112378158173669 [Eh]
	 Singles Energy            =      -0.0000000000000000 [Eh]
	 Same-Spin Energy          =      -0.3133423997169320 [Eh]
	 Opposite-Spin Energy      =      -0.9936669121449425 [Eh]
	 Correlation Energy        =      -1.3070093118618744 [Eh]
	 Total Energy              =    -323.3182471276792285 [Eh]

	 ================> DF-SCS-MP2 Energies <==================
	-----------------------------------------------------------
	 SCS Same-Spin Scale       =       0.3333333333333333 [-]
	 SCS Opposite-Spin Scale   =       1.2000000000000000 [-]
	 SCS Same-Spin Energy      =      -0.1044474665723107 [Eh]
	 SCS Opposite-Spin Energy  =      -1.1924002945739309 [Eh]
	 SCS Correlation Energy    =      -1.2968477611462417 [Eh]
	 SCS Total Energy          =    -323.3080855769636059 [Eh]
	-----------------------------------------------------------

  Dipole Moment: [D]
     X:    -0.5478      Y:    -2.1877      Z:     0.7727     Total:     2.3839

*** Psi4 exiting successfully. Buy a developer a beer!
