                               Psi4 1.4a3.dev225

  ==> Input File <==

--------------------------------------------------------------------------
#psi4
#
memory 32 gb

molecule  {
0 1
  O       -0.1791250    -0.4779340     0.0014420
  O        1.2676250     1.2989270     0.0090110
  N        2.0163350    -0.8804990    -0.0657410
  C       -1.1179600     0.3408151    -0.0017358
  C       -2.5451940    -0.3377090     0.0025190
  C        1.0558770     0.0965110    -0.0009640
  H       -1.1847720     1.1155630     0.8776850
  H       -1.1852960     1.1054120    -0.8894660
  H       -3.4102260     0.3314020    -0.0008760
  H       -2.5967230    -0.9775020    -0.8809700
  H       -2.5969010    -0.9678970     0.8929970
  H        1.7497370    -1.8166910     0.2040380
  H        2.9498840    -0.5811480     0.1773000
units angstrom
no_reorient  #important for SAPT in psi4, default
symmetry c1  #important for SAPT in psi4, default
}

set PROPERTIES_ORIGIN ["COM"]
properties('MP2/aug-cc-pvtz', properties = ['dipole'])
--------------------------------------------------------------------------

    Molecular point group: c1
  Charge       = 0
  Multiplicity = 1
  Basis Set: AUG-CC-PVTZ
    Blend: AUG-CC-PVTZ
  Basis Set: (AUG-CC-PVTZ AUX)
    Blend: AUG-CC-PVTZ-JKFIT

    Orbital Energies [Eh]
    ---------------------

    Doubly Occupied:

       1A    -20.623655     2A    -20.544510     3A    -15.600823
       4A    -11.421533     5A    -11.290178     6A    -11.219828
       7A     -1.524883     8A     -1.382617     9A     -1.232933
      10A     -1.020321    11A     -0.904380    12A     -0.797016
      13A     -0.767872    14A     -0.718849    15A     -0.712318
      16A     -0.664456    17A     -0.617932    18A     -0.584594
      19A     -0.552602    20A     -0.531889    21A     -0.474207
      22A     -0.459035    23A     -0.444685    24A     -0.420314

  @DF-RHF Final Energy:  -321.96979277390017

   => Energetics <=

    Nuclear Repulsion Energy =            249.2715159163266208
    One-Electron Energy =                -933.4597576123472891
    Two-Electron Energy =                 362.2184489221205013
    Total Energy =                       -321.9697927739001670
  Basis Set: (AUG-CC-PVTZ AUX)
    Blend: AUG-CC-PVTZ-RI
    Molecular point group: c1

    Geometry (in Angstrom), charge = 0, multiplicity = 1:

       Center              X                  Y                   Z               Mass
    ------------   -----------------  -----------------  -----------------  -----------------
         O           -0.269353463538    -0.480096335265     0.005618007726    15.994914619570
         O            1.177396536462     1.296764664735     0.013187007726    15.994914619570
         N            1.926106536462    -0.882661335265    -0.061564992274    14.003074004430
         C           -1.208188463538     0.338652764735     0.002440207726    12.000000000000
         C           -2.635422463538    -0.339871335265     0.006695007726    12.000000000000
         C            0.965648536462     0.094348664735     0.003212007726    12.000000000000
         H           -1.275000463538     1.113400664735     0.881861007726     1.007825032230
         H           -1.275524463538     1.103249664735    -0.885289992274     1.007825032230
         H           -3.500454463538     0.329239664735     0.003300007726     1.007825032230
         H           -2.686951463538    -0.979664335265    -0.876793992274     1.007825032230
         H           -2.687129463538    -0.970059335265     0.897173007726     1.007825032230
         H            1.659508536462    -1.818853335265     0.208214007726     1.007825032230
         H            2.859655536462    -0.583310335265     0.181476007726     1.007825032230

  Basis Set: AUG-CC-PVTZ
    Blend: AUG-CC-PVTZ
  Basis Set: (AUG-CC-PVTZ AUX)
    Blend: AUG-CC-PVTZ-JKFIT
	 Reference Energy          =    -321.9697927739001670 [Eh]
	 Singles Energy            =      -0.0000000000000000 [Eh]
	 Same-Spin Energy          =      -0.3145160159282480 [Eh]
	 Opposite-Spin Energy      =      -0.9940752529824295 [Eh]
	 Correlation Energy        =      -1.3085912689106776 [Eh]
	 Total Energy              =    -323.2783840428108419 [Eh]

	 ================> DF-SCS-MP2 Energies <==================
	-----------------------------------------------------------
	 SCS Same-Spin Scale       =       0.3333333333333333 [-]
	 SCS Opposite-Spin Scale   =       1.2000000000000000 [-]
	 SCS Same-Spin Energy      =      -0.1048386719760827 [Eh]
	 SCS Opposite-Spin Energy  =      -1.1928903035789153 [Eh]
	 SCS Correlation Energy    =      -1.2977289755549979 [Eh]
	 SCS Total Energy          =    -323.2675217494551703 [Eh]
	-----------------------------------------------------------

  Dipole Moment: [D]
     X:     0.3183      Y:    -2.5581      Z:     0.7161     Total:     2.6755

*** Psi4 exiting successfully. Buy a developer a beer!
