                               Psi4 1.4a3.dev225

  ==> Input File <==

--------------------------------------------------------------------------
#psi4
#
memory 32 gb

molecule  {
0 1
  O       -0.1791250    -0.4779340     0.0014420
  O        1.2676250     1.2989270     0.0090110
  N        2.0163350    -0.8804990    -0.0657410
  C       -1.2686920     0.4722670    -0.0022460
  C       -2.5451940    -0.3377090     0.0025190
  C        1.0401460     0.0802366     0.0068282
  H       -1.1847720     1.1155630     0.8776850
  H       -1.1852960     1.1054120    -0.8894660
  H       -3.4102260     0.3314020    -0.0008760
  H       -2.5967230    -0.9775020    -0.8809700
  H       -2.5969010    -0.9678970     0.8929970
  H        1.7497370    -1.8166910     0.2040380
  H        2.9498840    -0.5811480     0.1773000
units angstrom
no_reorient  #important for SAPT in psi4, default
symmetry c1  #important for SAPT in psi4, default
}

set PROPERTIES_ORIGIN ["COM"]
properties('MP2/aug-cc-pvtz', properties = ['dipole'])
--------------------------------------------------------------------------

    Molecular point group: c1
  Charge       = 0
  Multiplicity = 1
  Basis Set: AUG-CC-PVTZ
    Blend: AUG-CC-PVTZ
  Basis Set: (AUG-CC-PVTZ AUX)
    Blend: AUG-CC-PVTZ-JKFIT

    Orbital Energies [Eh]
    ---------------------

    Doubly Occupied:

       1A    -20.606783     2A    -20.525080     3A    -15.589386
       4A    -11.406072     5A    -11.290791     6A    -11.226538
       7A     -1.462550     8A     -1.342008     9A     -1.215855
      10A     -1.039118    11A     -0.879529    12A     -0.801343
      13A     -0.744115    14A     -0.703786    15A     -0.686992
      16A     -0.640470    17A     -0.598312    18A     -0.578844
      19A     -0.548537    20A     -0.521429    21A     -0.515883
      22A     -0.464321    23A     -0.453259    24A     -0.427891

  @DF-RHF Final Energy:  -322.01151577077235

   => Energetics <=

    Nuclear Repulsion Energy =            246.1698446399979616
    One-Electron Energy =                -927.8249363066360047
    Two-Electron Energy =                 359.6435758958657516
    Total Energy =                       -322.0115157707723483
  Basis Set: (AUG-CC-PVTZ AUX)
    Blend: AUG-CC-PVTZ-RI
    Molecular point group: c1

    Geometry (in Angstrom), charge = 0, multiplicity = 1:

       Center              X                  Y                   Z               Mass
    ------------   -----------------  -----------------  -----------------  -----------------
         O           -0.246921031448    -0.495617570897     0.004636690733    15.994914619570
         O            1.199828968552     1.281243429103     0.012205690733    15.994914619570
         N            1.948538968552    -0.898182570897    -0.062546309267    14.003074004430
         C           -1.336488031448     0.454583429103     0.000948690733    12.000000000000
         C           -2.612990031448    -0.355392570897     0.005713690733    12.000000000000
         C            0.972349968552     0.062553029103     0.010022890733    12.000000000000
         H           -1.252568031448     1.097879429103     0.880879690733     1.007825032230
         H           -1.253092031448     1.087728429103    -0.886271309267     1.007825032230
         H           -3.478022031448     0.313718429103     0.002318690733     1.007825032230
         H           -2.664519031448    -0.995185570897    -0.877775309267     1.007825032230
         H           -2.664697031448    -0.985580570897     0.896191690733     1.007825032230
         H            1.681940968552    -1.834374570897     0.207232690733     1.007825032230
         H            2.882087968552    -0.598831570897     0.180494690733     1.007825032230

  Basis Set: AUG-CC-PVTZ
    Blend: AUG-CC-PVTZ
  Basis Set: (AUG-CC-PVTZ AUX)
    Blend: AUG-CC-PVTZ-JKFIT
	 Reference Energy          =    -322.0115157707723483 [Eh]
	 Singles Energy            =      -0.0000000000000000 [Eh]
	 Same-Spin Energy          =      -0.3134262776877256 [Eh]
	 Opposite-Spin Energy      =      -0.9936681729593875 [Eh]
	 Correlation Energy        =      -1.3070944506471132 [Eh]
	 Total Energy              =    -323.3186102214194761 [Eh]

	 ================> DF-SCS-MP2 Energies <==================
	-----------------------------------------------------------
	 SCS Same-Spin Scale       =       0.3333333333333333 [-]
	 SCS Opposite-Spin Scale   =       1.2000000000000000 [-]
	 SCS Same-Spin Energy      =      -0.1044754258959085 [Eh]
	 SCS Opposite-Spin Energy  =      -1.1924018075512650 [Eh]
	 SCS Correlation Energy    =      -1.2968772334471736 [Eh]
	 SCS Total Energy          =    -323.3083930042195107 [Eh]
	-----------------------------------------------------------

  Dipole Moment: [D]
     X:    -0.7883      Y:    -2.3193      Z:     0.7241     Total:     2.5544

*** Psi4 exiting successfully. Buy a developer a beer!
