                               Psi4 1.4a3.dev225

  ==> Input File <==

--------------------------------------------------------------------------
#psi4
#
memory 32 gb

molecule  {
0 1
  O       -0.1791250    -0.4779340     0.0014420
  O        1.2676250     1.2989270     0.0090110
  N        2.0163350    -0.8804990    -0.0657410
  C       -1.3440580     0.5379930    -0.0025011
  C       -2.5451940    -0.3377090     0.0025190
  C        1.0558770     0.0965110    -0.0009640
  H       -1.1847720     1.1155630     0.8776850
  H       -1.1852960     1.1054120    -0.8894660
  H       -3.4102260     0.3314020    -0.0008760
  H       -2.5967230    -0.9775020    -0.8809700
  H       -2.5969010    -0.9678970     0.8929970
  H        1.7497370    -1.8166910     0.2040380
  H        2.9498840    -0.5811480     0.1773000
units angstrom
no_reorient  #important for SAPT in psi4, default
symmetry c1  #important for SAPT in psi4, default
}

set PROPERTIES_ORIGIN ["COM"]
properties('MP2/aug-cc-pvtz', properties = ['dipole'])
--------------------------------------------------------------------------

    Molecular point group: c1
  Charge       = 0
  Multiplicity = 1
  Basis Set: AUG-CC-PVTZ
    Blend: AUG-CC-PVTZ
  Basis Set: (AUG-CC-PVTZ AUX)
    Blend: AUG-CC-PVTZ-JKFIT

    Orbital Energies [Eh]
    ---------------------

    Doubly Occupied:

       1A    -20.588649     2A    -20.523628     3A    -15.583675
       4A    -11.397815     5A    -11.293063     6A    -11.228906
       7A     -1.437049     8A     -1.334683     9A     -1.209171
      10A     -1.045791    11A     -0.870822    12A     -0.797926
      13A     -0.733765    14A     -0.691754    15A     -0.679699
      16A     -0.633679    17A     -0.602521    18A     -0.578365
      19A     -0.540484    20A     -0.525512    21A     -0.520014
      22A     -0.465714    23A     -0.450569    24A     -0.426577

  @DF-RHF Final Energy:  -322.00427808850463

   => Energetics <=

    Nuclear Repulsion Energy =            244.7199543163821431
    One-Electron Energy =                -925.1288029377003568
    Two-Electron Energy =                 358.4045705328135227
    Total Energy =                       -322.0042780885046341
  Basis Set: (AUG-CC-PVTZ AUX)
    Blend: AUG-CC-PVTZ-RI
    Molecular point group: c1

    Geometry (in Angstrom), charge = 0, multiplicity = 1:

       Center              X                  Y                   Z               Mass
    ------------   -----------------  -----------------  -----------------  -----------------
         O           -0.238884662479    -0.506667884806     0.005721138994    15.994914619570
         O            1.207865337521     1.270193115194     0.013290138994    15.994914619570
         N            1.956575337521    -0.909232884806    -0.061461861006    14.003074004430
         C           -1.403817662479     0.509259115194     0.001778038994    12.000000000000
         C           -2.604953662479    -0.366442884806     0.006798138994    12.000000000000
         C            0.996117337521     0.067777115194     0.003315138994    12.000000000000
         H           -1.244531662479     1.086829115194     0.881964138994     1.007825032230
         H           -1.245055662479     1.076678115194    -0.885186861006     1.007825032230
         H           -3.469985662479     0.302668115194     0.003403138994     1.007825032230
         H           -2.656482662479    -1.006235884806    -0.876690861006     1.007825032230
         H           -2.656660662479    -0.996630884806     0.897276138994     1.007825032230
         H            1.689977337521    -1.845424884806     0.208317138994     1.007825032230
         H            2.890124337521    -0.609881884806     0.181579138994     1.007825032230

  Basis Set: AUG-CC-PVTZ
    Blend: AUG-CC-PVTZ
  Basis Set: (AUG-CC-PVTZ AUX)
    Blend: AUG-CC-PVTZ-JKFIT
	 Reference Energy          =    -322.0042780885046341 [Eh]
	 Singles Energy            =      -0.0000000000000000 [Eh]
	 Same-Spin Energy          =      -0.3136315676359408 [Eh]
	 Opposite-Spin Energy      =      -0.9947706180384622 [Eh]
	 Correlation Energy        =      -1.3084021856744030 [Eh]
	 Total Energy              =    -323.3126802741790584 [Eh]

	 ================> DF-SCS-MP2 Energies <==================
	-----------------------------------------------------------
	 SCS Same-Spin Scale       =       0.3333333333333333 [-]
	 SCS Opposite-Spin Scale   =       1.2000000000000000 [-]
	 SCS Same-Spin Energy      =      -0.1045438558786469 [Eh]
	 SCS Opposite-Spin Energy  =      -1.1937247416461547 [Eh]
	 SCS Correlation Energy    =      -1.2982685975248016 [Eh]
	 SCS Total Energy          =    -323.3025466860294159 [Eh]
	-----------------------------------------------------------

  Dipole Moment: [D]
     X:    -1.0404      Y:    -2.0629      Z:     0.7145     Total:     2.4184

*** Psi4 exiting successfully. Buy a developer a beer!
