                               Psi4 1.4a3.dev225

  ==> Input File <==

--------------------------------------------------------------------------
#psi4
#
memory 32 gb

molecule  {
0 1
  O       -0.1627075    -0.4587740     0.0013394
  O        1.2676250     1.2989270     0.0090110
  N        2.0163350    -0.8804990    -0.0657410
  C       -1.2686920     0.4722670    -0.0022460
  C       -2.5451940    -0.3377090     0.0025190
  C        1.0558770     0.0965110    -0.0009640
  H       -1.1847720     1.1155630     0.8776850
  H       -1.1852960     1.1054120    -0.8894660
  H       -3.4102260     0.3314020    -0.0008760
  H       -2.5967230    -0.9775020    -0.8809700
  H       -2.5969010    -0.9678970     0.8929970
  H        1.7497370    -1.8166910     0.2040380
  H        2.9498840    -0.5811480     0.1773000
units angstrom
no_reorient  #important for SAPT in psi4, default
symmetry c1  #important for SAPT in psi4, default
}

set PROPERTIES_ORIGIN ["COM"]
properties('MP2/aug-cc-pvtz', properties = ['dipole'])
--------------------------------------------------------------------------

    Molecular point group: c1
  Charge       = 0
  Multiplicity = 1
  Basis Set: AUG-CC-PVTZ
    Blend: AUG-CC-PVTZ
  Basis Set: (AUG-CC-PVTZ AUX)
    Blend: AUG-CC-PVTZ-JKFIT

    Orbital Energies [Eh]
    ---------------------

    Doubly Occupied:

       1A    -20.601727     2A    -20.525954     3A    -15.587630
       4A    -11.402488     5A    -11.289911     6A    -11.226585
       7A     -1.464088     8A     -1.349283     9A     -1.215774
      10A     -1.038404    11A     -0.879748    12A     -0.798618
      13A     -0.745005    14A     -0.702882    15A     -0.686372
      16A     -0.641815    17A     -0.599968    18A     -0.580185
      19A     -0.549364    20A     -0.522024    21A     -0.514004
      22A     -0.462630    23A     -0.455657    24A     -0.429695

  @DF-RHF Final Energy:  -322.01430234461395

   => Energetics <=

    Nuclear Repulsion Energy =            246.5878575372877037
    One-Electron Energy =                -928.6646979341309134
    Two-Electron Energy =                 360.0625380522292289
    Total Energy =                       -322.0143023446139523
  Basis Set: (AUG-CC-PVTZ AUX)
    Blend: AUG-CC-PVTZ-RI
    Molecular point group: c1

    Geometry (in Angstrom), charge = 0, multiplicity = 1:

       Center              X                  Y                   Z               Mass
    ------------   -----------------  -----------------  -----------------  -----------------
         O           -0.235572372304    -0.482092253044     0.005602591113    15.994914619570
         O            1.194760127696     1.275608746956     0.013274191113    15.994914619570
         N            1.943470127696    -0.903817253044    -0.061477808887    14.003074004430
         C           -1.341556872304     0.448948746956     0.002017191113    12.000000000000
         C           -2.618058872304    -0.361027253044     0.006782191113    12.000000000000
         C            0.983012127696     0.073192746956     0.003299191113    12.000000000000
         H           -1.257636872304     1.092244746956     0.881948191113     1.007825032230
         H           -1.258160872304     1.082093746956    -0.885202808887     1.007825032230
         H           -3.483090872304     0.308083746956     0.003387191113     1.007825032230
         H           -2.669587872304    -1.000820253044    -0.876706808887     1.007825032230
         H           -2.669765872304    -0.991215253044     0.897260191113     1.007825032230
         H            1.676872127696    -1.840009253044     0.208301191113     1.007825032230
         H            2.877019127696    -0.604466253044     0.181563191113     1.007825032230

  Basis Set: AUG-CC-PVTZ
    Blend: AUG-CC-PVTZ
  Basis Set: (AUG-CC-PVTZ AUX)
    Blend: AUG-CC-PVTZ-JKFIT
	 Reference Energy          =    -322.0143023446139523 [Eh]
	 Singles Energy            =      -0.0000000000000000 [Eh]
	 Same-Spin Energy          =      -0.3129148848791978 [Eh]
	 Opposite-Spin Energy      =      -0.9924148239074649 [Eh]
	 Correlation Energy        =      -1.3053297087866627 [Eh]
	 Total Energy              =    -323.3196320534005963 [Eh]

	 ================> DF-SCS-MP2 Energies <==================
	-----------------------------------------------------------
	 SCS Same-Spin Scale       =       0.3333333333333333 [-]
	 SCS Opposite-Spin Scale   =       1.2000000000000000 [-]
	 SCS Same-Spin Energy      =      -0.1043049616263993 [Eh]
	 SCS Opposite-Spin Energy  =      -1.1908977886889578 [Eh]
	 SCS Correlation Energy    =      -1.2952027503153571 [Eh]
	 SCS Total Energy          =    -323.3095050949293068 [Eh]
	-----------------------------------------------------------

  Dipole Moment: [D]
     X:    -0.7709      Y:    -2.2584      Z:     0.7172     Total:     2.4918

*** Psi4 exiting successfully. Buy a developer a beer!
