                               Psi4 1.4a3.dev225

  ==> Input File <==

--------------------------------------------------------------------------
#psi4
#
memory 32 gb

molecule  {
0 1
  O       -0.1791250    -0.4779340     0.0014420
  O        1.2676250     1.2989270     0.0090110
  N        2.0163350    -0.8804990    -0.0657410
  C       -1.2686920     0.4722670    -0.0022460
  C       -2.5451940    -0.3377090     0.0025190
  C        1.0558770     0.0965110    -0.0009640
  H       -1.1847720     1.1155630     0.8776850
  H       -1.1852960     1.1054120    -0.8894660
  H       -3.4102260     0.3314020    -0.0008760
  H       -2.5967230    -0.9775020    -0.8809700
  H       -2.5969010    -0.9678970     0.8929970
  H        1.7497370    -1.8166910     0.2040380
  H        3.0423104    -0.5515106     0.2013624
units angstrom
no_reorient  #important for SAPT in psi4, default
symmetry c1  #important for SAPT in psi4, default
}

set PROPERTIES_ORIGIN ["COM"]
properties('MP2/aug-cc-pvtz', properties = ['dipole'])
--------------------------------------------------------------------------

    Molecular point group: c1
  Charge       = 0
  Multiplicity = 1
  Basis Set: AUG-CC-PVTZ
    Blend: AUG-CC-PVTZ
  Basis Set: (AUG-CC-PVTZ AUX)
    Blend: AUG-CC-PVTZ-JKFIT

    Orbital Energies [Eh]
    ---------------------

    Doubly Occupied:

       1A    -20.601323     2A    -20.528984     3A    -15.597146
       4A    -11.404893     5A    -11.287881     6A    -11.224645
       7A     -1.456148     8A     -1.349753     9A     -1.205357
      10A     -1.033847    11A     -0.871352    12A     -0.796235
      13A     -0.742251    14A     -0.686029    15A     -0.681647
      16A     -0.633413    17A     -0.597716    18A     -0.579741
      19A     -0.544939    20A     -0.521243    21A     -0.513766
      22A     -0.462504    23A     -0.456684    24A     -0.428745

  @DF-RHF Final Energy:  -322.00243562347083

   => Energetics <=

    Nuclear Repulsion Energy =            245.6010591569283008
    One-Electron Energy =                -926.7945022821435259
    Two-Electron Energy =                 359.1910075017444228
    Total Energy =                       -322.0024356234708307
  Basis Set: (AUG-CC-PVTZ AUX)
    Blend: AUG-CC-PVTZ-RI
    Molecular point group: c1

    Geometry (in Angstrom), charge = 0, multiplicity = 1:

       Center              X                  Y                   Z               Mass
    ------------   -----------------  -----------------  -----------------  -----------------
         O           -0.250086994272    -0.498146127704     0.005414428145    15.994914619570
         O            1.196663005728     1.278714872296     0.012983428145    15.994914619570
         N            1.945373005728    -0.900711127704    -0.061768571855    14.003074004430
         C           -1.339653994272     0.452054872296     0.001726428145    12.000000000000
         C           -2.616155994272    -0.357921127704     0.006491428145    12.000000000000
         C            0.984915005728     0.076298872296     0.003008428145    12.000000000000
         H           -1.255733994272     1.095350872296     0.881657428145     1.007825032230
         H           -1.256257994272     1.085199872296    -0.885493571855     1.007825032230
         H           -3.481187994272     0.311189872296     0.003096428145     1.007825032230
         H           -2.667684994272    -0.997714127704    -0.876997571855     1.007825032230
         H           -2.667862994272    -0.988109127704     0.896969428145     1.007825032230
         H            1.678775005728    -1.836903127704     0.208010428145     1.007825032230
         H            2.971348405728    -0.571722727704     0.205334828145     1.007825032230

  Basis Set: AUG-CC-PVTZ
    Blend: AUG-CC-PVTZ
  Basis Set: (AUG-CC-PVTZ AUX)
    Blend: AUG-CC-PVTZ-JKFIT
	 Reference Energy          =    -322.0024356234708307 [Eh]
	 Singles Energy            =      -0.0000000000000000 [Eh]
	 Same-Spin Energy          =      -0.3138596986289087 [Eh]
	 Opposite-Spin Energy      =      -0.9951420417649088 [Eh]
	 Correlation Energy        =      -1.3090017403938177 [Eh]
	 Total Energy              =    -323.3114373638646271 [Eh]

	 ================> DF-SCS-MP2 Energies <==================
	-----------------------------------------------------------
	 SCS Same-Spin Scale       =       0.3333333333333333 [-]
	 SCS Opposite-Spin Scale   =       1.2000000000000000 [-]
	 SCS Same-Spin Energy      =      -0.1046198995429696 [Eh]
	 SCS Opposite-Spin Energy  =      -1.1941704501178905 [Eh]
	 SCS Correlation Energy    =      -1.2987903496608599 [Eh]
	 SCS Total Energy          =    -323.3012259731316931 [Eh]
	-----------------------------------------------------------

  Dipole Moment: [D]
     X:    -0.5125      Y:    -2.1740      Z:     0.7350     Total:     2.3515

*** Psi4 exiting successfully. Buy a developer a beer!
