                               Psi4 1.4a3.dev225

  ==> Input File <==

--------------------------------------------------------------------------
#psi4
#
memory 32 gb

molecule  {
0 1
  O       -0.1791250    -0.4779340     0.0014420
  O        1.2676250     1.2989270     0.0090110
  N        2.0163350    -0.8804990    -0.0657410
  C       -1.2536188     0.4591218    -0.0021950
  C       -2.5451940    -0.3377090     0.0025190
  C        1.0558770     0.0965110    -0.0009640
  H       -1.1847720     1.1155630     0.8776850
  H       -1.1852960     1.1054120    -0.8894660
  H       -3.4102260     0.3314020    -0.0008760
  H       -2.5967230    -0.9775020    -0.8809700
  H       -2.5969010    -0.9678970     0.8929970
  H        1.7497370    -1.8166910     0.2040380
  H        2.9498840    -0.5811480     0.1773000
units angstrom
no_reorient  #important for SAPT in psi4, default
symmetry c1  #important for SAPT in psi4, default
}

set PROPERTIES_ORIGIN ["COM"]
properties('MP2/aug-cc-pvtz', properties = ['dipole'])
--------------------------------------------------------------------------

    Molecular point group: c1
  Charge       = 0
  Multiplicity = 1
  Basis Set: AUG-CC-PVTZ
    Blend: AUG-CC-PVTZ
  Basis Set: (AUG-CC-PVTZ AUX)
    Blend: AUG-CC-PVTZ-JKFIT

    Orbital Energies [Eh]
    ---------------------

    Doubly Occupied:

       1A    -20.603978     2A    -20.531494     3A    -15.590459
       4A    -11.407172     5A    -11.287623     6A    -11.224222
       7A     -1.461785     8A     -1.354089     9A     -1.218444
      10A     -1.033208    11A     -0.877104    12A     -0.800012
      13A     -0.746863    14A     -0.702702    15A     -0.684837
      16A     -0.644477    17A     -0.597568    18A     -0.582863
      19A     -0.548081    20A     -0.522011    21A     -0.509728
      22A     -0.461249    23A     -0.458823    24A     -0.431841

  @DF-RHF Final Energy:  -322.01257016156637

   => Energetics <=

    Nuclear Repulsion Energy =            246.3921633239332891
    One-Electron Energy =                -928.2481981338894457
    Two-Electron Energy =                 359.8434646483897268
    Total Energy =                       -322.0125701615663729
  Basis Set: (AUG-CC-PVTZ AUX)
    Blend: AUG-CC-PVTZ-RI
    Molecular point group: c1

    Geometry (in Angstrom), charge = 0, multiplicity = 1:

       Center              X                  Y                   Z               Mass
    ------------   -----------------  -----------------  -----------------  -----------------
         O           -0.251072182903    -0.496039259599     0.005679889182    15.994914619570
         O            1.195677817097     1.280821740401     0.013248889182    15.994914619570
         N            1.944387817097    -0.898604259599    -0.061503110818    14.003074004430
         C           -1.325565982903     0.441016540401     0.002042889182    12.000000000000
         C           -2.617141182903    -0.355814259599     0.006756889182    12.000000000000
         C            0.983929817097     0.078405740401     0.003273889182    12.000000000000
         H           -1.256719182903     1.097457740401     0.881922889182     1.007825032230
         H           -1.257243182903     1.087306740401    -0.885228110818     1.007825032230
         H           -3.482173182903     0.313296740401     0.003361889182     1.007825032230
         H           -2.668670182903    -0.995607259599    -0.876732110818     1.007825032230
         H           -2.668848182903    -0.986002259599     0.897234889182     1.007825032230
         H            1.677789817097    -1.834796259599     0.208275889182     1.007825032230
         H            2.877936817097    -0.599253259599     0.181537889182     1.007825032230

  Basis Set: AUG-CC-PVTZ
    Blend: AUG-CC-PVTZ
  Basis Set: (AUG-CC-PVTZ AUX)
    Blend: AUG-CC-PVTZ-JKFIT
	 Reference Energy          =    -322.0125701615663729 [Eh]
	 Singles Energy            =      -0.0000000000000000 [Eh]
	 Same-Spin Energy          =      -0.3133118858901079 [Eh]
	 Opposite-Spin Energy      =      -0.9933670765911724 [Eh]
	 Correlation Energy        =      -1.3066789624812802 [Eh]
	 Total Energy              =    -323.3192491240476443 [Eh]

	 ================> DF-SCS-MP2 Energies <==================
	-----------------------------------------------------------
	 SCS Same-Spin Scale       =       0.3333333333333333 [-]
	 SCS Opposite-Spin Scale   =       1.2000000000000000 [-]
	 SCS Same-Spin Energy      =      -0.1044372952967026 [Eh]
	 SCS Opposite-Spin Energy  =      -1.1920404919094068 [Eh]
	 SCS Correlation Energy    =      -1.2964777872061093 [Eh]
	 SCS Total Energy          =    -323.3090479487725020 [Eh]
	-----------------------------------------------------------

  Dipole Moment: [D]
     X:    -0.5262      Y:    -2.2272      Z:     0.7155     Total:     2.3977

*** Psi4 exiting successfully. Buy a developer a beer!
