                               Psi4 1.4a3.dev225

  ==> Input File <==

--------------------------------------------------------------------------
#psi4
#
memory 32 gb

molecule  {
0 1
  O       -0.1791250    -0.4779340     0.0014420
  O        1.2676250     1.2989270     0.0090110
  N        2.0163350    -0.8804990    -0.0657410
  C       -1.3063750     0.5051300    -0.0023736
  C       -2.5451940    -0.3377090     0.0025190
  C        1.0558770     0.0965110    -0.0009640
  H       -1.1847720     1.1155630     0.8776850
  H       -1.1852960     1.1054120    -0.8894660
  H       -3.4102260     0.3314020    -0.0008760
  H       -2.5967230    -0.9775020    -0.8809700
  H       -2.5969010    -0.9678970     0.8929970
  H        1.7497370    -1.8166910     0.2040380
  H        2.9498840    -0.5811480     0.1773000
units angstrom
no_reorient  #important for SAPT in psi4, default
symmetry c1  #important for SAPT in psi4, default
}

set PROPERTIES_ORIGIN ["COM"]
properties('MP2/aug-cc-pvtz', properties = ['dipole'])
--------------------------------------------------------------------------

    Molecular point group: c1
  Charge       = 0
  Multiplicity = 1
  Basis Set: AUG-CC-PVTZ
    Blend: AUG-CC-PVTZ
  Basis Set: (AUG-CC-PVTZ AUX)
    Blend: AUG-CC-PVTZ-JKFIT

    Orbital Energies [Eh]
    ---------------------

    Doubly Occupied:

       1A    -20.595384     2A    -20.526901     3A    -15.586557
       4A    -11.401772     5A    -11.290114     6A    -11.226723
       7A     -1.446286     8A     -1.342733     9A     -1.213055
      10A     -1.040370    11A     -0.872182    12A     -0.799442
      13A     -0.739143    14A     -0.696349    15A     -0.680579
      16A     -0.638004    17A     -0.600898    18A     -0.577762
      19A     -0.540778    20A     -0.523661    21A     -0.521267
      22A     -0.465664    23A     -0.454117    24A     -0.428924

  @DF-RHF Final Energy:  -322.01018948522261

   => Energetics <=

    Nuclear Repulsion Energy =            245.4008749151849997
    One-Electron Energy =                -926.4048024354083282
    Two-Electron Energy =                 358.9937380350007174
    Total Energy =                       -322.0101894852226110
  Basis Set: (AUG-CC-PVTZ AUX)
    Blend: AUG-CC-PVTZ-RI
    Molecular point group: c1

    Geometry (in Angstrom), charge = 0, multiplicity = 1:

       Center              X                  Y                   Z               Mass
    ------------   -----------------  -----------------  -----------------  -----------------
         O           -0.243962795989    -0.502239290970     0.005703957187    15.994914619570
         O            1.202787204011     1.274621709030     0.013272957187    15.994914619570
         N            1.951497204011    -0.904804290970    -0.061479042813    14.003074004430
         C           -1.371212795989     0.480824709030     0.001888357187    12.000000000000
         C           -2.610031795989    -0.362014290970     0.006780957187    12.000000000000
         C            0.991039204011     0.072205709030     0.003297957187    12.000000000000
         H           -1.249609795989     1.091257709030     0.881946957187     1.007825032230
         H           -1.250133795989     1.081106709030    -0.885204042813     1.007825032230
         H           -3.475063795989     0.307096709030     0.003385957187     1.007825032230
         H           -2.661560795989    -1.001807290970    -0.876708042813     1.007825032230
         H           -2.661738795989    -0.992202290970     0.897258957187     1.007825032230
         H            1.684899204011    -1.840996290970     0.208299957187     1.007825032230
         H            2.885046204011    -0.605453290970     0.181561957187     1.007825032230

  Basis Set: AUG-CC-PVTZ
    Blend: AUG-CC-PVTZ
  Basis Set: (AUG-CC-PVTZ AUX)
    Blend: AUG-CC-PVTZ-JKFIT
	 Reference Energy          =    -322.0101894852226110 [Eh]
	 Singles Energy            =      -0.0000000000000000 [Eh]
	 Same-Spin Energy          =      -0.3134158521325791 [Eh]
	 Opposite-Spin Energy      =      -0.9940630458149714 [Eh]
	 Correlation Energy        =      -1.3074788979475505 [Eh]
	 Total Energy              =    -323.3176683831701439 [Eh]

	 ================> DF-SCS-MP2 Energies <==================
	-----------------------------------------------------------
	 SCS Same-Spin Scale       =       0.3333333333333333 [-]
	 SCS Opposite-Spin Scale   =       1.2000000000000000 [-]
	 SCS Same-Spin Energy      =      -0.1044719507108597 [Eh]
	 SCS Opposite-Spin Energy  =      -1.1928756549779655 [Eh]
	 SCS Correlation Energy    =      -1.2973476056888251 [Eh]
	 SCS Total Energy          =    -323.3075370909114099 [Eh]
	-----------------------------------------------------------

  Dipole Moment: [D]
     X:    -0.8276      Y:    -2.1280      Z:     0.7150     Total:     2.3926

*** Psi4 exiting successfully. Buy a developer a beer!
