                               Psi4 1.4a3.dev225

  ==> Input File <==

--------------------------------------------------------------------------
#psi4
#
memory 32 gb

molecule  {
0 1
  O       -0.1791250    -0.4779340     0.0014420
  O        1.2676250     1.2989270     0.0090110
  N        2.0163350    -0.8804990    -0.0657410
  C       -1.2686920     0.4722670    -0.0022460
  C       -2.5451940    -0.3377090     0.0025190
  C        1.0558770     0.0965110    -0.0009640
  H       -1.1847720     1.1155630     0.8776850
  H       -1.1852960     1.1054120    -0.8894660
  H       -3.4102260     0.3314020    -0.0008760
  H       -2.5967230    -0.9775020    -0.8809700
  H       -2.5945338    -0.9390458     0.8522293
  H        1.7497370    -1.8166910     0.2040380
  H        2.9498840    -0.5811480     0.1773000
units angstrom
no_reorient  #important for SAPT in psi4, default
symmetry c1  #important for SAPT in psi4, default
}

set PROPERTIES_ORIGIN ["COM"]
properties('MP2/aug-cc-pvtz', properties = ['dipole'])
--------------------------------------------------------------------------

    Molecular point group: c1
  Charge       = 0
  Multiplicity = 1
  Basis Set: AUG-CC-PVTZ
    Blend: AUG-CC-PVTZ
  Basis Set: (AUG-CC-PVTZ AUX)
    Blend: AUG-CC-PVTZ-JKFIT

    Orbital Energies [Eh]
    ---------------------

    Doubly Occupied:

       1A    -20.601509     2A    -20.530084     3A    -15.589303
       4A    -11.405557     5A    -11.287584     6A    -11.218689
       7A     -1.456887     8A     -1.350748     9A     -1.216852
      10A     -1.037384    11A     -0.878384    12A     -0.800580
      13A     -0.744541    14A     -0.701109    15A     -0.683609
      16A     -0.642575    17A     -0.602159    18A     -0.580986
      19A     -0.546656    20A     -0.525986    21A     -0.514032
      22A     -0.463114    23A     -0.457513    24A     -0.431022

  @DF-RHF Final Energy:  -322.01161706092216

   => Energetics <=

    Nuclear Repulsion Energy =            246.3116101216080835
    One-Electron Energy =                -928.1127290974999369
    Two-Electron Energy =                 359.7895019149697191
    Total Energy =                       -322.0116170609221626
  Basis Set: (AUG-CC-PVTZ AUX)
    Blend: AUG-CC-PVTZ-RI
    Molecular point group: c1

    Geometry (in Angstrom), charge = 0, multiplicity = 1:

       Center              X                  Y                   Z               Mass
    ------------   -----------------  -----------------  -----------------  -----------------
         O           -0.249067721027    -0.498137229639     0.006148163137    15.994914619570
         O            1.197682278973     1.278723770361     0.013717163137    15.994914619570
         N            1.946392278973    -0.900702229639    -0.061034836863    14.003074004430
         C           -1.338634721027     0.452063770361     0.002460163137    12.000000000000
         C           -2.615136721027    -0.357912229639     0.007225163137    12.000000000000
         C            0.985934278973     0.076307770361     0.003742163137    12.000000000000
         H           -1.254714721027     1.095359770361     0.882391163137     1.007825032230
         H           -1.255238721027     1.085208770361    -0.884759836863     1.007825032230
         H           -3.480168721027     0.311198770361     0.003830163137     1.007825032230
         H           -2.666665721027    -0.997705229639    -0.876263836863     1.007825032230
         H           -2.664476521027    -0.959249029639     0.856935463137     1.007825032230
         H            1.679794278973    -1.836894229639     0.208744163137     1.007825032230
         H            2.879941278973    -0.601351229639     0.182006163137     1.007825032230

  Basis Set: AUG-CC-PVTZ
    Blend: AUG-CC-PVTZ
  Basis Set: (AUG-CC-PVTZ AUX)
    Blend: AUG-CC-PVTZ-JKFIT
	 Reference Energy          =    -322.0116170609221626 [Eh]
	 Singles Energy            =      -0.0000000000000000 [Eh]
	 Same-Spin Energy          =      -0.3133504478725609 [Eh]
	 Opposite-Spin Energy      =      -0.9932858544584597 [Eh]
	 Correlation Energy        =      -1.3066363023310208 [Eh]
	 Total Energy              =    -323.3182533632531772 [Eh]

	 ================> DF-SCS-MP2 Energies <==================
	-----------------------------------------------------------
	 SCS Same-Spin Scale       =       0.3333333333333333 [-]
	 SCS Opposite-Spin Scale   =       1.2000000000000000 [-]
	 SCS Same-Spin Energy      =      -0.1044501492908536 [Eh]
	 SCS Opposite-Spin Energy  =      -1.1919430253501517 [Eh]
	 SCS Correlation Energy    =      -1.2963931746410053 [Eh]
	 SCS Total Energy          =    -323.3080102355631880 [Eh]
	-----------------------------------------------------------

  Dipole Moment: [D]
     X:    -0.6220      Y:    -2.2124      Z:     0.7331     Total:     2.4123

*** Psi4 exiting successfully. Buy a developer a beer!
