                               Psi4 1.4a3.dev225

  ==> Input File <==

--------------------------------------------------------------------------
#psi4
#
memory 32 gb

molecule  {
0 1
  O       -0.1791250    -0.4779340     0.0014420
  O        1.2676250     1.2989270     0.0090110
  N        2.0163350    -0.8804990    -0.0657410
  C       -1.2152995     0.3812509    -0.0017661
  C       -2.5451940    -0.3377090     0.0025190
  C        1.0558770     0.0965110    -0.0009640
  H       -1.1847720     1.1155630     0.8776850
  H       -1.1852960     1.1054120    -0.8894660
  H       -3.4102260     0.3314020    -0.0008760
  H       -2.5967230    -0.9775020    -0.8809700
  H       -2.5969010    -0.9678970     0.8929970
  H        1.7497370    -1.8166910     0.2040380
  H        2.9498840    -0.5811480     0.1773000
units angstrom
no_reorient  #important for SAPT in psi4, default
symmetry c1  #important for SAPT in psi4, default
}

set PROPERTIES_ORIGIN ["COM"]
properties('MP2/aug-cc-pvtz', properties = ['dipole'])
--------------------------------------------------------------------------

    Molecular point group: c1
  Charge       = 0
  Multiplicity = 1
  Basis Set: AUG-CC-PVTZ
    Blend: AUG-CC-PVTZ
  Basis Set: (AUG-CC-PVTZ AUX)
    Blend: AUG-CC-PVTZ-JKFIT

    Orbital Energies [Eh]
    ---------------------

    Doubly Occupied:

       1A    -20.611933     2A    -20.536647     3A    -15.594884
       4A    -11.413644     5A    -11.288731     6A    -11.222005
       7A     -1.483459     8A     -1.366692     9A     -1.224568
      10A     -1.032629    11A     -0.888580    12A     -0.795547
      13A     -0.755776    14A     -0.709762    15A     -0.692459
      16A     -0.652053    17A     -0.600446    18A     -0.589734
      19A     -0.556301    20A     -0.524170    21A     -0.494572
      22A     -0.464381    23A     -0.445279    24A     -0.431643

  @DF-RHF Final Energy:  -322.00262127722635

   => Energetics <=

    Nuclear Repulsion Energy =            247.6299372875012637
    One-Electron Energy =                -930.5133247978890267
    Two-Electron Energy =                 360.8807662331614665
    Total Energy =                       -322.0026212772263534
  Basis Set: (AUG-CC-PVTZ AUX)
    Blend: AUG-CC-PVTZ-RI
    Molecular point group: c1

    Geometry (in Angstrom), charge = 0, multiplicity = 1:

       Center              X                  Y                   Z               Mass
    ------------   -----------------  -----------------  -----------------  -----------------
         O           -0.256236063735    -0.485545434088     0.005622090931    15.994914619570
         O            1.190513936265     1.291315565912     0.013191090931    15.994914619570
         N            1.939223936265    -0.888110434088    -0.061560909069    14.003074004430
         C           -1.292410563735     0.373639465912     0.002413990931    12.000000000000
         C           -2.622305063735    -0.345320434088     0.006699090931    12.000000000000
         C            0.978765936265     0.088899565912     0.003216090931    12.000000000000
         H           -1.261883063735     1.107951565912     0.881865090931     1.007825032230
         H           -1.262407063735     1.097800565912    -0.885285909069     1.007825032230
         H           -3.487337063735     0.323790565912     0.003304090931     1.007825032230
         H           -2.673834063735    -0.985113434088    -0.876789909069     1.007825032230
         H           -2.674012063735    -0.975508434088     0.897177090931     1.007825032230
         H            1.672625936265    -1.824302434088     0.208218090931     1.007825032230
         H            2.872772936265    -0.588759434088     0.181480090931     1.007825032230

  Basis Set: AUG-CC-PVTZ
    Blend: AUG-CC-PVTZ
  Basis Set: (AUG-CC-PVTZ AUX)
    Blend: AUG-CC-PVTZ-JKFIT
	 Reference Energy          =    -322.0026212772263534 [Eh]
	 Singles Energy            =      -0.0000000000000000 [Eh]
	 Same-Spin Energy          =      -0.3136870450306820 [Eh]
	 Opposite-Spin Energy      =      -0.9932325794801482 [Eh]
	 Correlation Energy        =      -1.3069196245108301 [Eh]
	 Total Energy              =    -323.3095409017371935 [Eh]

	 ================> DF-SCS-MP2 Energies <==================
	-----------------------------------------------------------
	 SCS Same-Spin Scale       =       0.3333333333333333 [-]
	 SCS Opposite-Spin Scale   =       1.2000000000000000 [-]
	 SCS Same-Spin Energy      =      -0.1045623483435607 [Eh]
	 SCS Opposite-Spin Energy  =      -1.1918790953761778 [Eh]
	 SCS Correlation Energy    =      -1.2964414437197385 [Eh]
	 SCS Total Energy          =    -323.2990627209460968 [Eh]
	-----------------------------------------------------------

  Dipole Moment: [D]
     X:    -0.2211      Y:    -2.3944      Z:     0.7162     Total:     2.5090

*** Psi4 exiting successfully. Buy a developer a beer!
