                               Psi4 1.4a3.dev225

  ==> Input File <==

--------------------------------------------------------------------------
#psi4
#
memory 32 gb

molecule  {
0 1
  O       -0.1791250    -0.4779340     0.0014420
  O        1.2676250     1.2989270     0.0090110
  N        2.0163350    -0.8804990    -0.0657410
  C       -1.2686920     0.4722670    -0.0022460
  C       -2.3763223    -0.2305552     0.0018886
  C        1.0558770     0.0965110    -0.0009640
  H       -1.1847720     1.1155630     0.8776850
  H       -1.1852960     1.1054120    -0.8894660
  H       -3.4102260     0.3314020    -0.0008760
  H       -2.5967230    -0.9775020    -0.8809700
  H       -2.5969010    -0.9678970     0.8929970
  H        1.7497370    -1.8166910     0.2040380
  H        2.9498840    -0.5811480     0.1773000
units angstrom
no_reorient  #important for SAPT in psi4, default
symmetry c1  #important for SAPT in psi4, default
}

set PROPERTIES_ORIGIN ["COM"]
properties('MP2/aug-cc-pvtz', properties = ['dipole'])
--------------------------------------------------------------------------

    Molecular point group: c1
  Charge       = 0
  Multiplicity = 1
  Basis Set: AUG-CC-PVTZ
    Blend: AUG-CC-PVTZ
  Basis Set: (AUG-CC-PVTZ AUX)
    Blend: AUG-CC-PVTZ-JKFIT

    Orbital Energies [Eh]
    ---------------------

    Doubly Occupied:

       1A    -20.602147     2A    -20.530708     3A    -15.589749
       4A    -11.406148     5A    -11.278394     6A    -11.236668
       7A     -1.459535     8A     -1.353407     9A     -1.218463
      10A     -1.082010    11A     -0.858911    12A     -0.802199
      13A     -0.747542    14A     -0.704367    15A     -0.692981
      16A     -0.645673    17A     -0.610674    18A     -0.597750
      19A     -0.560317    20A     -0.497761    21A     -0.493563
      22A     -0.456038    23A     -0.449731    24A     -0.430364

  @DF-RHF Final Energy:  -321.96045393974691

   => Energetics <=

    Nuclear Repulsion Energy =            249.2078200215194101
    One-Electron Energy =                -933.7263466109068304
    Two-Electron Energy =                 362.5580726496405077
    Total Energy =                       -321.9604539397469125
  Basis Set: (AUG-CC-PVTZ AUX)
    Blend: AUG-CC-PVTZ-RI
    Molecular point group: c1

    Geometry (in Angstrom), charge = 0, multiplicity = 1:

       Center              X                  Y                   Z               Mass
    ------------   -----------------  -----------------  -----------------  -----------------
         O           -0.271797956238    -0.512250664824     0.005771714147    15.994914619570
         O            1.174952043762     1.264610335176     0.013340714147    15.994914619570
         N            1.923662043762    -0.914815664824    -0.061411285853    14.003074004430
         C           -1.361364956238     0.437950335176     0.002083714147    12.000000000000
         C           -2.468995256238    -0.264871864824     0.006218314147    12.000000000000
         C            0.963204043762     0.062194335176     0.003365714147    12.000000000000
         H           -1.277444956238     1.081246335176     0.882014714147     1.007825032230
         H           -1.277968956238     1.071095335176    -0.885136285853     1.007825032230
         H           -3.502898956238     0.297085335176     0.003453714147     1.007825032230
         H           -2.689395956238    -1.011818664824    -0.876640285853     1.007825032230
         H           -2.689573956238    -1.002213664824     0.897326714147     1.007825032230
         H            1.657064043762    -1.851007664824     0.208367714147     1.007825032230
         H            2.857211043762    -0.615464664824     0.181629714147     1.007825032230

  Basis Set: AUG-CC-PVTZ
    Blend: AUG-CC-PVTZ
  Basis Set: (AUG-CC-PVTZ AUX)
    Blend: AUG-CC-PVTZ-JKFIT
	 Reference Energy          =    -321.9604539397469125 [Eh]
	 Singles Energy            =      -0.0000000000000000 [Eh]
	 Same-Spin Energy          =      -0.3161981763430418 [Eh]
	 Opposite-Spin Energy      =      -0.9972953183406486 [Eh]
	 Correlation Energy        =      -1.3134934946836903 [Eh]
	 Total Energy              =    -323.2739474344306245 [Eh]

	 ================> DF-SCS-MP2 Energies <==================
	-----------------------------------------------------------
	 SCS Same-Spin Scale       =       0.3333333333333333 [-]
	 SCS Opposite-Spin Scale   =       1.2000000000000000 [-]
	 SCS Same-Spin Energy      =      -0.1053993921143472 [Eh]
	 SCS Opposite-Spin Energy  =      -1.1967543820087783 [Eh]
	 SCS Correlation Energy    =      -1.3021537741231255 [Eh]
	 SCS Total Energy          =    -323.2626077138700111 [Eh]
	-----------------------------------------------------------

  Dipole Moment: [D]
     X:    -0.6711      Y:    -2.1758      Z:     0.7140     Total:     2.3862

*** Psi4 exiting successfully. Buy a developer a beer!
