                               Psi4 1.4a3.dev225

  ==> Input File <==

--------------------------------------------------------------------------
#psi4
#
memory 32 gb

molecule  {
0 1
  O       -0.1791250    -0.4779340     0.0014420
  O        1.2676250     1.2989270     0.0090110
  N        2.0163350    -0.8804990    -0.0657410
  C       -1.2686920     0.4722670    -0.0022460
  C       -2.5451940    -0.3377090     0.0025190
  C        1.0558770     0.0965110    -0.0009640
  H       -1.1847720     1.1155630     0.8776850
  H       -1.1852960     1.1054120    -0.8894660
  H       -3.4102260     0.3314020    -0.0008760
  H       -2.5976667    -0.9892194    -0.8971506
  H       -2.5969010    -0.9678970     0.8929970
  H        1.7497370    -1.8166910     0.2040380
  H        2.9498840    -0.5811480     0.1773000
units angstrom
no_reorient  #important for SAPT in psi4, default
symmetry c1  #important for SAPT in psi4, default
}

set PROPERTIES_ORIGIN ["COM"]
properties('MP2/aug-cc-pvtz', properties = ['dipole'])
--------------------------------------------------------------------------

    Molecular point group: c1
  Charge       = 0
  Multiplicity = 1
  Basis Set: AUG-CC-PVTZ
    Blend: AUG-CC-PVTZ
  Basis Set: (AUG-CC-PVTZ AUX)
    Blend: AUG-CC-PVTZ-JKFIT

    Orbital Energies [Eh]
    ---------------------

    Doubly Occupied:

       1A    -20.601663     2A    -20.530215     3A    -15.589379
       4A    -11.405677     5A    -11.288375     6A    -11.227302
       7A     -1.457037     8A     -1.350886     9A     -1.216931
      10A     -1.034459    11A     -0.874240    12A     -0.799841
      13A     -0.744679    14A     -0.700895    15A     -0.683015
      16A     -0.642569    17A     -0.598042    18A     -0.579753
      19A     -0.546248    20A     -0.520638    21A     -0.513536
      22A     -0.462853    23A     -0.457613    24A     -0.431094

  @DF-RHF Final Energy:  -322.01221295742931

   => Energetics <=

    Nuclear Repulsion Energy =            246.0240327170173771
    One-Electron Energy =                -927.5586061908878719
    Two-Electron Energy =                 359.5223605164412106
    Total Energy =                       -322.0122129574293126
  Basis Set: (AUG-CC-PVTZ AUX)
    Blend: AUG-CC-PVTZ-RI
    Molecular point group: c1

    Geometry (in Angstrom), charge = 0, multiplicity = 1:

       Center              X                  Y                   Z               Mass
    ------------   -----------------  -----------------  -----------------  -----------------
         O           -0.249030248878    -0.497678081784     0.005869890920    15.994914619570
         O            1.197719751122     1.279182918216     0.013438890920    15.994914619570
         N            1.946429751122    -0.900243081784    -0.061313109080    14.003074004430
         C           -1.338597248878     0.452522918216     0.002181890920    12.000000000000
         C           -2.615099248878    -0.357453081784     0.006946890920    12.000000000000
         C            0.985971751122     0.076766918216     0.003463890920    12.000000000000
         H           -1.254677248878     1.095818918216     0.882112890920     1.007825032230
         H           -1.255201248878     1.085667918216    -0.885038109080     1.007825032230
         H           -3.480131248878     0.311657918216     0.003551890920     1.007825032230
         H           -2.667571948878    -1.008963481784    -0.892722709080     1.007825032230
         H           -2.666806248878    -0.987641081784     0.897424890920     1.007825032230
         H            1.679831751122    -1.836435081784     0.208465890920     1.007825032230
         H            2.879978751122    -0.600892081784     0.181727890920     1.007825032230

  Basis Set: AUG-CC-PVTZ
    Blend: AUG-CC-PVTZ
  Basis Set: (AUG-CC-PVTZ AUX)
    Blend: AUG-CC-PVTZ-JKFIT
	 Reference Energy          =    -322.0122129574293126 [Eh]
	 Singles Energy            =      -0.0000000000000000 [Eh]
	 Same-Spin Energy          =      -0.3133029656812564 [Eh]
	 Opposite-Spin Energy      =      -0.9936371161358405 [Eh]
	 Correlation Energy        =      -1.3069400818170969 [Eh]
	 Total Energy              =    -323.3191530392464301 [Eh]

	 ================> DF-SCS-MP2 Energies <==================
	-----------------------------------------------------------
	 SCS Same-Spin Scale       =       0.3333333333333333 [-]
	 SCS Opposite-Spin Scale   =       1.2000000000000000 [-]
	 SCS Same-Spin Energy      =      -0.1044343218937521 [Eh]
	 SCS Opposite-Spin Energy  =      -1.1923645393630085 [Eh]
	 SCS Correlation Energy    =      -1.2967988612567607 [Eh]
	 SCS Total Energy          =    -323.3090118186860877 [Eh]
	-----------------------------------------------------------

  Dipole Moment: [D]
     X:    -0.6090      Y:    -2.1913      Z:     0.7229     Total:     2.3865

*** Psi4 exiting successfully. Buy a developer a beer!
