                               Psi4 1.4a3.dev225

  ==> Input File <==

--------------------------------------------------------------------------
#psi4
#
memory 32 gb

molecule  {
0 1
  O       -0.1791250    -0.4779340     0.0014420
  O        1.2676250     1.2989270     0.0090110
  N        2.0163350    -0.8804990    -0.0657410
  C       -1.2686920     0.4722670    -0.0022460
  C       -2.5451940    -0.3377090     0.0025190
  C        1.0558770     0.0965110    -0.0009640
  H       -1.1847720     1.1155630     0.8776850
  H       -1.1852960     1.1054120    -0.8894660
  H       -3.4102260     0.3314020    -0.0008760
  H       -2.5967230    -0.9775020    -0.8809700
  H       -2.5969010    -0.9678970     0.8929970
  H        1.7497370    -1.8166910     0.2040380
  H        2.7650313    -0.6404227     0.1291753
units angstrom
no_reorient  #important for SAPT in psi4, default
symmetry c1  #important for SAPT in psi4, default
}

set PROPERTIES_ORIGIN ["COM"]
properties('MP2/aug-cc-pvtz', properties = ['dipole'])
--------------------------------------------------------------------------

    Molecular point group: c1
  Charge       = 0
  Multiplicity = 1
  Basis Set: AUG-CC-PVTZ
    Blend: AUG-CC-PVTZ
  Basis Set: (AUG-CC-PVTZ AUX)
    Blend: AUG-CC-PVTZ-JKFIT

    Orbital Energies [Eh]
    ---------------------

    Doubly Occupied:

       1A    -20.602488     2A    -20.532706     3A    -15.569544
       4A    -11.407386     5A    -11.288803     6A    -11.225438
       7A     -1.459314     8A     -1.353553     9A     -1.254211
      10A     -1.038899    11A     -0.889925    12A     -0.812471
      13A     -0.754870    14A     -0.730493    15A     -0.684534
      16A     -0.651402    17A     -0.600242    18A     -0.582495
      19A     -0.547943    20A     -0.523323    21A     -0.514878
      22A     -0.464077    23A     -0.459432    24A     -0.436375

  @DF-RHF Final Energy:  -321.96581673883554

   => Energetics <=

    Nuclear Repulsion Energy =            247.3722786338270510
    One-Electron Energy =                -929.9065827229835577
    Two-Electron Energy =                 360.5684873503209928
    Total Energy =                       -321.9658167388355423
  Basis Set: (AUG-CC-PVTZ AUX)
    Blend: AUG-CC-PVTZ-RI
    Molecular point group: c1

    Geometry (in Angstrom), charge = 0, multiplicity = 1:

       Center              X                  Y                   Z               Mass
    ------------   -----------------  -----------------  -----------------  -----------------
         O           -0.246948801085    -0.497139837124     0.006231428292    15.994914619570
         O            1.199801198915     1.279721162876     0.013800428292    15.994914619570
         N            1.948511198915    -0.899704837124    -0.060951571708    14.003074004430
         C           -1.336515801085     0.453061162876     0.002543428292    12.000000000000
         C           -2.613017801085    -0.356914837124     0.007308428292    12.000000000000
         C            0.988053198915     0.077305162876     0.003825428292    12.000000000000
         H           -1.252595801085     1.096357162876     0.882474428292     1.007825032230
         H           -1.253119801085     1.086206162876    -0.884676571708     1.007825032230
         H           -3.478049801085     0.312196162876     0.003913428292     1.007825032230
         H           -2.664546801085    -0.996707837124    -0.876180571708     1.007825032230
         H           -2.664724801085    -0.987102837124     0.897786428292     1.007825032230
         H            1.681913198915    -1.835896837124     0.208827428292     1.007825032230
         H            2.697207498915    -0.659628537124     0.133964728292     1.007825032230

  Basis Set: AUG-CC-PVTZ
    Blend: AUG-CC-PVTZ
  Basis Set: (AUG-CC-PVTZ AUX)
    Blend: AUG-CC-PVTZ-JKFIT
	 Reference Energy          =    -321.9658167388355423 [Eh]
	 Singles Energy            =      -0.0000000000000000 [Eh]
	 Same-Spin Energy          =      -0.3124532153842010 [Eh]
	 Opposite-Spin Energy      =      -0.9913713299766029 [Eh]
	 Correlation Energy        =      -1.3038245453608039 [Eh]
	 Total Energy              =    -323.2696412841963252 [Eh]

	 ================> DF-SCS-MP2 Energies <==================
	-----------------------------------------------------------
	 SCS Same-Spin Scale       =       0.3333333333333333 [-]
	 SCS Opposite-Spin Scale   =       1.2000000000000000 [-]
	 SCS Same-Spin Energy      =      -0.1041510717947337 [Eh]
	 SCS Opposite-Spin Energy  =      -1.1896455959719234 [Eh]
	 SCS Correlation Energy    =      -1.2937966677666570 [Eh]
	 SCS Total Energy          =    -323.2596134066022273 [Eh]
	-----------------------------------------------------------

  Dipole Moment: [D]
     X:    -0.8152      Y:    -2.2324      Z:     0.6833     Total:     2.4729

*** Psi4 exiting successfully. Buy a developer a beer!
