                               Psi4 1.4a3.dev225

  ==> Input File <==

--------------------------------------------------------------------------
#psi4
#
memory 32 gb

molecule  {
0 1
  O       -0.1791250    -0.4779340     0.0014420
  O        1.2676250     1.2989270     0.0090110
  N        2.0163350    -0.8804990    -0.0657410
  C       -1.2686920     0.4722670    -0.0022460
  C       -2.5451940    -0.3377090     0.0025190
  C        1.0247123     0.0636695     0.0145983
  H       -1.1847720     1.1155630     0.8776850
  H       -1.1852960     1.1054120    -0.8894660
  H       -3.4102260     0.3314020    -0.0008760
  H       -2.5967230    -0.9775020    -0.8809700
  H       -2.5969010    -0.9678970     0.8929970
  H        1.7497370    -1.8166910     0.2040380
  H        2.9498840    -0.5811480     0.1773000
units angstrom
no_reorient  #important for SAPT in psi4, default
symmetry c1  #important for SAPT in psi4, default
}

set PROPERTIES_ORIGIN ["COM"]
properties('MP2/aug-cc-pvtz', properties = ['dipole'])
--------------------------------------------------------------------------

    Molecular point group: c1
  Charge       = 0
  Multiplicity = 1
  Basis Set: AUG-CC-PVTZ
    Blend: AUG-CC-PVTZ
  Basis Set: (AUG-CC-PVTZ AUX)
    Blend: AUG-CC-PVTZ-JKFIT

    Orbital Energies [Eh]
    ---------------------

    Doubly Occupied:

       1A    -20.611823     2A    -20.519948     3A    -15.589497
       4A    -11.406440     5A    -11.293443     6A    -11.228189
       7A     -1.470195     8A     -1.331802     9A     -1.214608
      10A     -1.043136    11A     -0.883816    12A     -0.802841
      13A     -0.743778    14A     -0.707013    15A     -0.691000
      16A     -0.639504    17A     -0.598683    18A     -0.575604
      19A     -0.550915    20A     -0.521137    21A     -0.517557
      22A     -0.465558    23A     -0.448229    24A     -0.424159

  @DF-RHF Final Energy:  -322.00878739551922

   => Energetics <=

    Nuclear Repulsion Energy =            246.2430122773760957
    One-Electron Energy =                -927.9458464184651802
    Two-Electron Energy =                 359.6940467455698354
    Total Energy =                       -322.0087873955192208
  Basis Set: (AUG-CC-PVTZ AUX)
    Blend: AUG-CC-PVTZ-RI
    Molecular point group: c1

    Geometry (in Angstrom), charge = 0, multiplicity = 1:

       Center              X                  Y                   Z               Mass
    ------------   -----------------  -----------------  -----------------  -----------------
         O           -0.244841197328    -0.493385000622     0.003589597742    15.994914619570
         O            1.201908802672     1.283475999378     0.011158597742    15.994914619570
         N            1.950618802672    -0.895950000622    -0.063593402258    14.003074004430
         C           -1.334408197328     0.456815999378    -0.000098402258    12.000000000000
         C           -2.610910197328    -0.353160000622     0.004666597742    12.000000000000
         C            0.958996102672     0.048218499378     0.016745897742    12.000000000000
         H           -1.250488197328     1.100111999378     0.879832597742     1.007825032230
         H           -1.251012197328     1.089960999378    -0.887318402258     1.007825032230
         H           -3.475942197328     0.315950999378     0.001271597742     1.007825032230
         H           -2.662439197328    -0.992953000622    -0.878822402258     1.007825032230
         H           -2.662617197328    -0.983348000622     0.895144597742     1.007825032230
         H            1.684020802672    -1.832142000622     0.206185597742     1.007825032230
         H            2.884167802672    -0.596599000622     0.179447597742     1.007825032230

  Basis Set: AUG-CC-PVTZ
    Blend: AUG-CC-PVTZ
  Basis Set: (AUG-CC-PVTZ AUX)
    Blend: AUG-CC-PVTZ-JKFIT
	 Reference Energy          =    -322.0087873955192208 [Eh]
	 Singles Energy            =      -0.0000000000000000 [Eh]
	 Same-Spin Energy          =      -0.3135552813624228 [Eh]
	 Opposite-Spin Energy      =      -0.9938550330557134 [Eh]
	 Correlation Energy        =      -1.3074103144181362 [Eh]
	 Total Energy              =    -323.3161977099373416 [Eh]

	 ================> DF-SCS-MP2 Energies <==================
	-----------------------------------------------------------
	 SCS Same-Spin Scale       =       0.3333333333333333 [-]
	 SCS Opposite-Spin Scale   =       1.2000000000000000 [-]
	 SCS Same-Spin Energy      =      -0.1045184271208076 [Eh]
	 SCS Opposite-Spin Energy  =      -1.1926260396668560 [Eh]
	 SCS Correlation Energy    =      -1.2971444667876635 [Eh]
	 SCS Total Energy          =    -323.3059318623068634 [Eh]
	-----------------------------------------------------------

  Dipole Moment: [D]
     X:    -0.9609      Y:    -2.4414      Z:     0.7318     Total:     2.7238

*** Psi4 exiting successfully. Buy a developer a beer!
