                               Psi4 1.4a3.dev225

  ==> Input File <==

--------------------------------------------------------------------------
#psi4
#
memory 32 gb

molecule  {
0 1
  O       -0.1791250    -0.4779340     0.0014420
  O        1.2676250     1.2989270     0.0090110
  N        2.0163350    -0.8804990    -0.0657410
  C       -1.2686920     0.4722670    -0.0022460
  C       -2.5451940    -0.3377090     0.0025190
  C        0.9660439    -0.0054229     0.0454103
  H       -1.1847720     1.1155630     0.8776850
  H       -1.1852960     1.1054120    -0.8894660
  H       -3.4102260     0.3314020    -0.0008760
  H       -2.5967230    -0.9775020    -0.8809700
  H       -2.5969010    -0.9678970     0.8929970
  H        1.7497370    -1.8166910     0.2040380
  H        2.9498840    -0.5811480     0.1773000
units angstrom
no_reorient  #important for SAPT in psi4, default
symmetry c1  #important for SAPT in psi4, default
}

set PROPERTIES_ORIGIN ["COM"]
properties('MP2/aug-cc-pvtz', properties = ['dipole'])
--------------------------------------------------------------------------

    Molecular point group: c1
  Charge       = 0
  Multiplicity = 1
  Basis Set: AUG-CC-PVTZ
    Blend: AUG-CC-PVTZ
  Basis Set: (AUG-CC-PVTZ AUX)
    Blend: AUG-CC-PVTZ-JKFIT

    Orbital Energies [Eh]
    ---------------------

    Doubly Occupied:

       1A    -20.630960     2A    -20.499009     3A    -15.590400
       4A    -11.406691     5A    -11.304052     6A    -11.234728
       7A     -1.512089     8A     -1.289138     9A     -1.205597
      10A     -1.060119    11A     -0.901505    12A     -0.810362
      13A     -0.747133    14A     -0.717678    15A     -0.709427
      16A     -0.646219    17A     -0.605229    18A     -0.561318
      19A     -0.553561    20A     -0.523076    21A     -0.517783
      22A     -0.468868    23A     -0.424281    24A     -0.405104

  @DF-RHF Final Energy:  -321.98259139263382

   => Energetics <=

    Nuclear Repulsion Energy =            246.6072697859665936
    One-Electron Energy =                -928.5310688537580290
    Two-Electron Energy =                 359.9412076751575569
    Total Energy =                       -321.9825913926338217
  Basis Set: (AUG-CC-PVTZ AUX)
    Blend: AUG-CC-PVTZ-RI
    Molecular point group: c1

    Geometry (in Angstrom), charge = 0, multiplicity = 1:

       Center              X                  Y                   Z               Mass
    ------------   -----------------  -----------------  -----------------  -----------------
         O           -0.236935086668    -0.484074159348    -0.000562604835    15.994914619570
         O            1.209814913332     1.292786840652     0.007006395165    15.994914619570
         N            1.958524913332    -0.886639159348    -0.067745604835    14.003074004430
         C           -1.326502086668     0.466126840652    -0.004250604835    12.000000000000
         C           -2.603004086668    -0.343849159348     0.000514395165    12.000000000000
         C            0.908233813332    -0.011563059348     0.043405695165    12.000000000000
         H           -1.242582086668     1.109422840652     0.875680395165     1.007825032230
         H           -1.243106086668     1.099271840652    -0.891470604835     1.007825032230
         H           -3.468036086668     0.325261840652    -0.002880604835     1.007825032230
         H           -2.654533086668    -0.983642159348    -0.882974604835     1.007825032230
         H           -2.654711086668    -0.974037159348     0.890992395165     1.007825032230
         H            1.691926913332    -1.822831159348     0.202033395165     1.007825032230
         H            2.892073913332    -0.587288159348     0.175295395165     1.007825032230

  Basis Set: AUG-CC-PVTZ
    Blend: AUG-CC-PVTZ
  Basis Set: (AUG-CC-PVTZ AUX)
    Blend: AUG-CC-PVTZ-JKFIT
	 Reference Energy          =    -321.9825913926338217 [Eh]
	 Singles Energy            =      -0.0000000000000000 [Eh]
	 Same-Spin Energy          =      -0.3141448884088623 [Eh]
	 Opposite-Spin Energy      =      -0.9948960411996876 [Eh]
	 Correlation Energy        =      -1.3090409296085499 [Eh]
	 Total Energy              =    -323.2916323222423785 [Eh]

	 ================> DF-SCS-MP2 Energies <==================
	-----------------------------------------------------------
	 SCS Same-Spin Scale       =       0.3333333333333333 [-]
	 SCS Opposite-Spin Scale   =       1.2000000000000000 [-]
	 SCS Same-Spin Energy      =      -0.1047149628029541 [Eh]
	 SCS Opposite-Spin Energy  =      -1.1938752494396250 [Eh]
	 SCS Correlation Energy    =      -1.2985902122425790 [Eh]
	 SCS Total Energy          =    -323.2811816048763944 [Eh]
	-----------------------------------------------------------

  Dipole Moment: [D]
     X:    -1.6310      Y:    -2.9406      Z:     0.7513     Total:     3.4455

*** Psi4 exiting successfully. Buy a developer a beer!
