                               Psi4 1.4a3.dev225

  ==> Input File <==

--------------------------------------------------------------------------
#psi4
#
memory 32 gb

molecule  {
0 1
  O       -0.1791250    -0.4779340     0.0014420
  O        1.2676250     1.2989270     0.0090110
  N        2.0163350    -0.8804990    -0.0657410
  C       -1.2310090     0.4394040    -0.0021184
  C       -2.5451940    -0.3377090     0.0025190
  C        1.0558770     0.0965110    -0.0009640
  H       -1.1847720     1.1155630     0.8776850
  H       -1.1852960     1.1054120    -0.8894660
  H       -3.4102260     0.3314020    -0.0008760
  H       -2.5967230    -0.9775020    -0.8809700
  H       -2.5969010    -0.9678970     0.8929970
  H        1.7497370    -1.8166910     0.2040380
  H        2.9498840    -0.5811480     0.1773000
units angstrom
no_reorient  #important for SAPT in psi4, default
symmetry c1  #important for SAPT in psi4, default
}

set PROPERTIES_ORIGIN ["COM"]
properties('MP2/aug-cc-pvtz', properties = ['dipole'])
--------------------------------------------------------------------------

    Molecular point group: c1
  Charge       = 0
  Multiplicity = 1
  Basis Set: AUG-CC-PVTZ
    Blend: AUG-CC-PVTZ
  Basis Set: (AUG-CC-PVTZ AUX)
    Blend: AUG-CC-PVTZ-JKFIT

    Orbital Energies [Eh]
    ---------------------

    Doubly Occupied:

       1A    -20.607407     2A    -20.533495     3A    -15.592111
       4A    -11.409468     5A    -11.287151     6A    -11.223325
       7A     -1.469632     8A     -1.358950     9A     -1.220760
      10A     -1.030368    11A     -0.880344    12A     -0.799743
      13A     -0.750234    14A     -0.705399    15A     -0.687760
      16A     -0.647440    17A     -0.596574    18A     -0.586357
      19A     -0.550221    20A     -0.522740    21A     -0.502564
      22A     -0.461302    23A     -0.457316    24A     -0.432854

  @DF-RHF Final Energy:  -322.01097615506825

   => Energetics <=

    Nuclear Repulsion Energy =            246.8344896534672444
    One-Electron Energy =                -929.0638961242680125
    Two-Electron Energy =                 360.2184303157325189
    Total Energy =                       -322.0109761550682492
  Basis Set: (AUG-CC-PVTZ AUX)
    Blend: AUG-CC-PVTZ-RI
    Molecular point group: c1

    Geometry (in Angstrom), charge = 0, multiplicity = 1:

       Center              X                  Y                   Z               Mass
    ------------   -----------------  -----------------  -----------------  -----------------
         O           -0.254119063009    -0.493382103297     0.005669566622    15.994914619570
         O            1.192630936991     1.283478896703     0.013238566622    15.994914619570
         N            1.941340936991    -0.895947103297    -0.061513433378    14.003074004430
         C           -1.306003063009     0.423955896703     0.002109166622    12.000000000000
         C           -2.620188063009    -0.353157103297     0.006746566622    12.000000000000
         C            0.980882936991     0.081062896703     0.003263566622    12.000000000000
         H           -1.259766063009     1.100114896703     0.881912566622     1.007825032230
         H           -1.260290063009     1.089963896703    -0.885238433378     1.007825032230
         H           -3.485220063009     0.315953896703     0.003351566622     1.007825032230
         H           -2.671717063009    -0.992950103297    -0.876742433378     1.007825032230
         H           -2.671895063009    -0.983345103297     0.897224566622     1.007825032230
         H            1.674742936991    -1.832139103297     0.208265566622     1.007825032230
         H            2.874889936991    -0.596596103297     0.181527566622     1.007825032230

  Basis Set: AUG-CC-PVTZ
    Blend: AUG-CC-PVTZ
  Basis Set: (AUG-CC-PVTZ AUX)
    Blend: AUG-CC-PVTZ-JKFIT
	 Reference Energy          =    -322.0109761550682492 [Eh]
	 Singles Energy            =      -0.0000000000000000 [Eh]
	 Same-Spin Energy          =      -0.3133528631550099 [Eh]
	 Opposite-Spin Energy      =      -0.9932057627406659 [Eh]
	 Correlation Energy        =      -1.3065586258956756 [Eh]
	 Total Energy              =    -323.3175347809639106 [Eh]

	 ================> DF-SCS-MP2 Energies <==================
	-----------------------------------------------------------
	 SCS Same-Spin Scale       =       0.3333333333333333 [-]
	 SCS Opposite-Spin Scale   =       1.2000000000000000 [-]
	 SCS Same-Spin Energy      =      -0.1044509543850033 [Eh]
	 SCS Opposite-Spin Energy  =      -1.1918469152887989 [Eh]
	 SCS Correlation Energy    =      -1.2962978696738021 [Eh]
	 SCS Total Energy          =    -323.3072740247420711 [Eh]
	-----------------------------------------------------------

  Dipole Moment: [D]
     X:    -0.3947      Y:    -2.2734      Z:     0.7157     Total:     2.4158

*** Psi4 exiting successfully. Buy a developer a beer!
