                               Psi4 1.4a3.dev225

  ==> Input File <==

--------------------------------------------------------------------------
#psi4
#
memory 32 gb

molecule  {
0 1
  O       -0.1791250    -0.4779340     0.0014420
  O        1.2676250     1.2989270     0.0090110
  N        2.0163350    -0.8804990    -0.0657410
  C       -1.3603518     0.6012588    -0.0029217
  C       -2.5451940    -0.3377090     0.0025190
  C        1.0558770     0.0965110    -0.0009640
  H       -1.1847720     1.1155630     0.8776850
  H       -1.1852960     1.1054120    -0.8894660
  H       -3.4102260     0.3314020    -0.0008760
  H       -2.5967230    -0.9775020    -0.8809700
  H       -2.5969010    -0.9678970     0.8929970
  H        1.7497370    -1.8166910     0.2040380
  H        2.9498840    -0.5811480     0.1773000
units angstrom
no_reorient  #important for SAPT in psi4, default
symmetry c1  #important for SAPT in psi4, default
}

set PROPERTIES_ORIGIN ["COM"]
properties('MP2/aug-cc-pvtz', properties = ['dipole'])
--------------------------------------------------------------------------

    Molecular point group: c1
  Charge       = 0
  Multiplicity = 1
  Basis Set: AUG-CC-PVTZ
    Blend: AUG-CC-PVTZ
  Basis Set: (AUG-CC-PVTZ AUX)
    Blend: AUG-CC-PVTZ-JKFIT

    Orbital Energies [Eh]
    ---------------------

    Doubly Occupied:

       1A    -20.582325     2A    -20.520547     3A    -15.580701
       4A    -11.393517     5A    -11.295993     6A    -11.232466
       7A     -1.429311     8A     -1.326707     9A     -1.205231
      10A     -1.044007    11A     -0.873579    12A     -0.796845
      13A     -0.728304    14A     -0.687962    15A     -0.684070
      16A     -0.628819    17A     -0.603360    18A     -0.578257
      19A     -0.534922    20A     -0.533335    21A     -0.511693
      22A     -0.465752    23A     -0.447281    24A     -0.424314

  @DF-RHF Final Energy:  -321.99271248218855

   => Energetics <=

    Nuclear Repulsion Energy =            243.9126487525306857
    One-Electron Energy =                -923.5921263604217302
    Two-Electron Energy =                 357.6867651257024932
    Total Energy =                       -321.9927124821885513
  Basis Set: (AUG-CC-PVTZ AUX)
    Blend: AUG-CC-PVTZ-RI
    Molecular point group: c1

    Geometry (in Angstrom), charge = 0, multiplicity = 1:

       Center              X                  Y                   Z               Mass
    ------------   -----------------  -----------------  -----------------  -----------------
         O           -0.236688921912    -0.515193537727     0.005777818742    15.994914619570
         O            1.210061078088     1.261667462273     0.013346818742    15.994914619570
         N            1.958771078088    -0.917758537727    -0.061405181258    14.003074004430
         C           -1.417915721912     0.563999262273     0.001414118742    12.000000000000
         C           -2.602757921912    -0.374968537727     0.006854818742    12.000000000000
         C            0.998313078088     0.059251462273     0.003371818742    12.000000000000
         H           -1.242335921912     1.078303462273     0.882020818742     1.007825032230
         H           -1.242859921912     1.068152462273    -0.885130181258     1.007825032230
         H           -3.467789921912     0.294142462273     0.003459818742     1.007825032230
         H           -2.654286921912    -1.014761537727    -0.876634181258     1.007825032230
         H           -2.654464921912    -1.005156537727     0.897332818742     1.007825032230
         H            1.692173078088    -1.853950537727     0.208373818742     1.007825032230
         H            2.892320078088    -0.618407537727     0.181635818742     1.007825032230

  Basis Set: AUG-CC-PVTZ
    Blend: AUG-CC-PVTZ
  Basis Set: (AUG-CC-PVTZ AUX)
    Blend: AUG-CC-PVTZ-JKFIT
	 Reference Energy          =    -321.9927124821885513 [Eh]
	 Singles Energy            =      -0.0000000000000000 [Eh]
	 Same-Spin Energy          =      -0.3137608581980080 [Eh]
	 Opposite-Spin Energy      =      -0.9957302047411443 [Eh]
	 Correlation Energy        =      -1.3094910629391523 [Eh]
	 Total Energy              =    -323.3022035451277247 [Eh]

	 ================> DF-SCS-MP2 Energies <==================
	-----------------------------------------------------------
	 SCS Same-Spin Scale       =       0.3333333333333333 [-]
	 SCS Opposite-Spin Scale   =       1.2000000000000000 [-]
	 SCS Same-Spin Energy      =      -0.1045869527326693 [Eh]
	 SCS Opposite-Spin Energy  =      -1.1948762456893731 [Eh]
	 SCS Correlation Energy    =      -1.2994631984220424 [Eh]
	 SCS Total Energy          =    -323.2921756806105691 [Eh]
	-----------------------------------------------------------

  Dipole Moment: [D]
     X:    -1.1904      Y:    -1.9662      Z:     0.7137     Total:     2.4067

*** Psi4 exiting successfully. Buy a developer a beer!
