                               Psi4 1.4a3.dev225

  ==> Input File <==

--------------------------------------------------------------------------
#psi4
#
memory 32 gb

molecule  {
0 1
  O       -0.1791250    -0.4779340     0.0014420
  O        1.2676250     1.2989270     0.0090110
  N        2.0163350    -0.8804990    -0.0657410
  C       -1.2686920     0.4722670    -0.0022460
  C       -2.5451940    -0.3377090     0.0025190
  C        1.0211915    -0.1004515    -0.0025980
  H       -1.1847720     1.1155630     0.8776850
  H       -1.1852960     1.1054120    -0.8894660
  H       -3.4102260     0.3314020    -0.0008760
  H       -2.5967230    -0.9775020    -0.8809700
  H       -2.5969010    -0.9678970     0.8929970
  H        1.7497370    -1.8166910     0.2040380
  H        2.9498840    -0.5811480     0.1773000
units angstrom
no_reorient  #important for SAPT in psi4, default
symmetry c1  #important for SAPT in psi4, default
}

set PROPERTIES_ORIGIN ["COM"]
properties('MP2/aug-cc-pvtz', properties = ['dipole'])
--------------------------------------------------------------------------

    Molecular point group: c1
  Charge       = 0
  Multiplicity = 1
  Basis Set: AUG-CC-PVTZ
    Blend: AUG-CC-PVTZ
  Basis Set: (AUG-CC-PVTZ AUX)
    Blend: AUG-CC-PVTZ-JKFIT

    Orbital Energies [Eh]
    ---------------------

    Doubly Occupied:

       1A    -20.622867     2A    -20.478133     3A    -15.611660
       4A    -11.403049     5A    -11.299442     6A    -11.231200
       7A     -1.494844     8A     -1.300321     9A     -1.197958
      10A     -1.056227    11A     -0.902552    12A     -0.817846
      13A     -0.770269    14A     -0.740209    15A     -0.701781
      16A     -0.639227    17A     -0.606776    18A     -0.559202
      19A     -0.541346    20A     -0.527469    21A     -0.489955
      22A     -0.473874    23A     -0.400234    24A     -0.385675

  @DF-RHF Final Energy:  -321.95192804996486

   => Energetics <=

    Nuclear Repulsion Energy =            246.2710940329413347
    One-Electron Energy =                -927.9418131224572335
    Two-Electron Energy =                 359.7187910395509789
    Total Energy =                       -321.9519280499648630
  Basis Set: (AUG-CC-PVTZ AUX)
    Blend: AUG-CC-PVTZ-RI
    Molecular point group: c1

    Geometry (in Angstrom), charge = 0, multiplicity = 1:

       Center              X                  Y                   Z               Mass
    ------------   -----------------  -----------------  -----------------  -----------------
         O           -0.244366736896    -0.471268174739     0.005906958549    15.994914619570
         O            1.202383263104     1.305592825261     0.013475958549    15.994914619570
         N            1.951093263104    -0.873833174739    -0.061276041451    14.003074004430
         C           -1.333933736896     0.478932825261     0.002218958549    12.000000000000
         C           -2.610435736896    -0.331043174739     0.006983958549    12.000000000000
         C            0.955949763104    -0.093785674739     0.001866958549    12.000000000000
         H           -1.250013736896     1.122228825261     0.882149958549     1.007825032230
         H           -1.250537736896     1.112077825261    -0.885001041451     1.007825032230
         H           -3.475467736896     0.338067825261     0.003588958549     1.007825032230
         H           -2.661964736896    -0.970836174739    -0.876505041451     1.007825032230
         H           -2.662142736896    -0.961231174739     0.897461958549     1.007825032230
         H            1.684495263104    -1.810025174739     0.208502958549     1.007825032230
         H            2.884642263104    -0.574482174739     0.181764958549     1.007825032230

  Basis Set: AUG-CC-PVTZ
    Blend: AUG-CC-PVTZ
  Basis Set: (AUG-CC-PVTZ AUX)
    Blend: AUG-CC-PVTZ-JKFIT
	 Reference Energy          =    -321.9519280499648630 [Eh]
	 Singles Energy            =      -0.0000000000000000 [Eh]
	 Same-Spin Energy          =      -0.3148588295275950 [Eh]
	 Opposite-Spin Energy      =      -0.9959674424471974 [Eh]
	 Correlation Energy        =      -1.3108262719747923 [Eh]
	 Total Energy              =    -323.2627543219396671 [Eh]

	 ================> DF-SCS-MP2 Energies <==================
	-----------------------------------------------------------
	 SCS Same-Spin Scale       =       0.3333333333333333 [-]
	 SCS Opposite-Spin Scale   =       1.2000000000000000 [-]
	 SCS Same-Spin Energy      =      -0.1049529431758650 [Eh]
	 SCS Opposite-Spin Energy  =      -1.1951609309366369 [Eh]
	 SCS Correlation Energy    =      -1.3001138741125018 [Eh]
	 SCS Total Energy          =    -323.2520419240773890 [Eh]
	-----------------------------------------------------------

  Dipole Moment: [D]
     X:    -1.0600      Y:    -3.8273      Z:     0.6715     Total:     4.0277

*** Psi4 exiting successfully. Buy a developer a beer!
