                               Psi4 1.4a3.dev225

  ==> Input File <==

--------------------------------------------------------------------------
#psi4
#
memory 32 gb

molecule  {
0 1
  O       -0.1791250    -0.4779340     0.0014420
  O        1.2676250     1.2989270     0.0090110
  N        2.0163350    -0.8804990    -0.0657410
  C       -1.2686920     0.4722670    -0.0022460
  C       -2.5451940    -0.3377090     0.0025190
  C        1.0558770     0.0965110    -0.0009640
  H       -1.1847720     1.1155630     0.8776850
  H       -1.1852960     1.1054120    -0.8894660
  H       -3.4102260     0.3314020    -0.0008760
  H       -2.5967230    -0.9775020    -0.8809700
  H       -2.5969010    -0.9678970     0.8929970
  H        1.7761301    -1.7240083     0.1773300
  H        2.9498840    -0.5811480     0.1773000
units angstrom
no_reorient  #important for SAPT in psi4, default
symmetry c1  #important for SAPT in psi4, default
}

set PROPERTIES_ORIGIN ["COM"]
properties('MP2/aug-cc-pvtz', properties = ['dipole'])
--------------------------------------------------------------------------

    Molecular point group: c1
  Charge       = 0
  Multiplicity = 1
  Basis Set: AUG-CC-PVTZ
    Blend: AUG-CC-PVTZ
  Basis Set: (AUG-CC-PVTZ AUX)
    Blend: AUG-CC-PVTZ-JKFIT

    Orbital Energies [Eh]
    ---------------------

    Doubly Occupied:

       1A    -20.602424     2A    -20.530595     3A    -15.579999
       4A    -11.406267     5A    -11.288617     6A    -11.225082
       7A     -1.458172     8A     -1.351418     9A     -1.233314
      10A     -1.036152    11A     -0.877964    12A     -0.806758
      13A     -0.763906    14A     -0.703807    15A     -0.683877
      16A     -0.648702    17A     -0.599216    18A     -0.581390
      19A     -0.546701    20A     -0.522486    21A     -0.514470
      22A     -0.463622    23A     -0.458796    24A     -0.433308

  @DF-RHF Final Energy:  -322.00559402957731

   => Energetics <=

    Nuclear Repulsion Energy =            246.6592913135776541
    One-Electron Energy =                -928.6956858024074108
    Two-Electron Energy =                 360.0308004592524185
    Total Energy =                       -322.0055940295773098
  Basis Set: (AUG-CC-PVTZ AUX)
    Blend: AUG-CC-PVTZ-RI
    Molecular point group: c1

    Geometry (in Angstrom), charge = 0, multiplicity = 1:

       Center              X                  Y                   Z               Mass
    ------------   -----------------  -----------------  -----------------  -----------------
         O           -0.249339641687    -0.498859662662     0.005989038072    15.994914619570
         O            1.197410358313     1.278001337338     0.013558038072    15.994914619570
         N            1.946120358313    -0.901424662662    -0.061193961928    14.003074004430
         C           -1.338906641687     0.451341337338     0.002301038072    12.000000000000
         C           -2.615408641687    -0.358634662662     0.007066038072    12.000000000000
         C            0.985662358313     0.075585337338     0.003583038072    12.000000000000
         H           -1.254986641687     1.094637337338     0.882232038072     1.007825032230
         H           -1.255510641687     1.084486337338    -0.884918961928     1.007825032230
         H           -3.480440641687     0.310476337338     0.003671038072     1.007825032230
         H           -2.666937641687    -0.998427662662    -0.876422961928     1.007825032230
         H           -2.667115641687    -0.988822662662     0.897544038072     1.007825032230
         H            1.705915458313    -1.744933962662     0.181877038072     1.007825032230
         H            2.879669358313    -0.602073662662     0.181847038072     1.007825032230

  Basis Set: AUG-CC-PVTZ
    Blend: AUG-CC-PVTZ
  Basis Set: (AUG-CC-PVTZ AUX)
    Blend: AUG-CC-PVTZ-JKFIT
	 Reference Energy          =    -322.0055940295773098 [Eh]
	 Singles Energy            =      -0.0000000000000000 [Eh]
	 Same-Spin Energy          =      -0.3127763490934897 [Eh]
	 Opposite-Spin Energy      =      -0.9921142106531540 [Eh]
	 Correlation Energy        =      -1.3048905597466436 [Eh]
	 Total Energy              =    -323.3104845893239485 [Eh]

	 ================> DF-SCS-MP2 Energies <==================
	-----------------------------------------------------------
	 SCS Same-Spin Scale       =       0.3333333333333333 [-]
	 SCS Opposite-Spin Scale   =       1.2000000000000000 [-]
	 SCS Same-Spin Energy      =      -0.1042587830311632 [Eh]
	 SCS Opposite-Spin Energy  =      -1.1905370527837846 [Eh]
	 SCS Correlation Energy    =      -1.2947958358149478 [Eh]
	 SCS Total Energy          =    -323.3003898653922761 [Eh]
	-----------------------------------------------------------

  Dipole Moment: [D]
     X:    -0.5977      Y:    -2.1061      Z:     0.6960     Total:     2.2972

*** Psi4 exiting successfully. Buy a developer a beer!
