                               Psi4 1.4a3.dev225

  ==> Input File <==

--------------------------------------------------------------------------
#psi4
#
memory 32 gb

molecule  {
0 1
  O       -0.1791250    -0.4779340     0.0014420
  O        1.2676250     1.2989270     0.0090110
  N        2.0163350    -0.8804990    -0.0657410
  C       -1.1910178     0.3344009    -0.0015181
  C       -2.5451940    -0.3377090     0.0025190
  C        1.0558770     0.0965110    -0.0009640
  H       -1.1847720     1.1155630     0.8776850
  H       -1.1852960     1.1054120    -0.8894660
  H       -3.4102260     0.3314020    -0.0008760
  H       -2.5967230    -0.9775020    -0.8809700
  H       -2.5969010    -0.9678970     0.8929970
  H        1.7497370    -1.8166910     0.2040380
  H        2.9498840    -0.5811480     0.1773000
units angstrom
no_reorient  #important for SAPT in psi4, default
symmetry c1  #important for SAPT in psi4, default
}

set PROPERTIES_ORIGIN ["COM"]
properties('MP2/aug-cc-pvtz', properties = ['dipole'])
--------------------------------------------------------------------------

    Molecular point group: c1
  Charge       = 0
  Multiplicity = 1
  Basis Set: AUG-CC-PVTZ
    Blend: AUG-CC-PVTZ
  Basis Set: (AUG-CC-PVTZ AUX)
    Blend: AUG-CC-PVTZ-JKFIT

    Orbital Energies [Eh]
    ---------------------

    Doubly Occupied:

       1A    -20.616795     2A    -20.540110     3A    -15.597758
       4A    -11.417840     5A    -11.290758     6A    -11.221234
       7A     -1.500286     8A     -1.374333     9A     -1.228514
      10A     -1.032676    11A     -0.898593    12A     -0.792458
      13A     -0.761417    14A     -0.713902    15A     -0.699842
      16A     -0.656937    17A     -0.609108    18A     -0.588821
      19A     -0.559196    20A     -0.527607    21A     -0.483733
      22A     -0.467592    23A     -0.441900    24A     -0.422146

  @DF-RHF Final Energy:  -321.98801250594278

   => Energetics <=

    Nuclear Repulsion Energy =            248.4177654525276466
    One-Electron Energy =                -931.9244423449115402
    Two-Electron Energy =                 361.5186643864411167
    Total Energy =                       -321.9880125059427769
  Basis Set: (AUG-CC-PVTZ AUX)
    Blend: AUG-CC-PVTZ-RI
    Molecular point group: c1

    Geometry (in Angstrom), charge = 0, multiplicity = 1:

       Center              X                  Y                   Z               Mass
    ------------   -----------------  -----------------  -----------------  -----------------
         O           -0.259508247861    -0.479231962366     0.005588670633    15.994914619570
         O            1.187241752139     1.297629037634     0.013157670633    15.994914619570
         N            1.935951752139    -0.881796962366    -0.061594329367    14.003074004430
         C           -1.271401047861     0.333102937634     0.002628570633    12.000000000000
         C           -2.625577247861    -0.339006962366     0.006665670633    12.000000000000
         C            0.975493752139     0.095213037634     0.003182670633    12.000000000000
         H           -1.265155247861     1.114265037634     0.881831670633     1.007825032230
         H           -1.265679247861     1.104114037634    -0.885319329367     1.007825032230
         H           -3.490609247861     0.330104037634     0.003270670633     1.007825032230
         H           -2.677106247861    -0.978799962366    -0.876823329367     1.007825032230
         H           -2.677284247861    -0.969194962366     0.897143670633     1.007825032230
         H            1.669353752139    -1.817988962366     0.208184670633     1.007825032230
         H            2.869500752139    -0.582445962366     0.181446670633     1.007825032230

  Basis Set: AUG-CC-PVTZ
    Blend: AUG-CC-PVTZ
  Basis Set: (AUG-CC-PVTZ AUX)
    Blend: AUG-CC-PVTZ-JKFIT
	 Reference Energy          =    -321.9880125059427769 [Eh]
	 Singles Energy            =      -0.0000000000000000 [Eh]
	 Same-Spin Energy          =      -0.3141254882440598 [Eh]
	 Opposite-Spin Energy      =      -0.9935867508581746 [Eh]
	 Correlation Energy        =      -1.3077122391022344 [Eh]
	 Total Energy              =    -323.2957247450449927 [Eh]

	 ================> DF-SCS-MP2 Energies <==================
	-----------------------------------------------------------
	 SCS Same-Spin Scale       =       0.3333333333333333 [-]
	 SCS Opposite-Spin Scale   =       1.2000000000000000 [-]
	 SCS Same-Spin Energy      =      -0.1047084960813533 [Eh]
	 SCS Opposite-Spin Energy  =      -1.1923041010298094 [Eh]
	 SCS Correlation Energy    =      -1.2970125971111628 [Eh]
	 SCS Total Energy          =    -323.2850251030539539 [Eh]
	-----------------------------------------------------------

  Dipole Moment: [D]
     X:    -0.0155      Y:    -2.5141      Z:     0.7166     Total:     2.6143

*** Psi4 exiting successfully. Buy a developer a beer!
