                               Psi4 1.4a3.dev225

  ==> Input File <==

--------------------------------------------------------------------------
#psi4
#
memory 32 gb

molecule  {
0 1
  O       -0.0857700    -0.3588395     0.0008107
  O        1.2676250     1.2989270     0.0090110
  N        2.0163350    -0.8804990    -0.0657410
  C       -1.2686920     0.4722670    -0.0022460
  C       -2.5451940    -0.3377090     0.0025190
  C        1.0558770     0.0965110    -0.0009640
  H       -1.1847720     1.1155630     0.8776850
  H       -1.1852960     1.1054120    -0.8894660
  H       -3.4102260     0.3314020    -0.0008760
  H       -2.5967230    -0.9775020    -0.8809700
  H       -2.5969010    -0.9678970     0.8929970
  H        1.7497370    -1.8166910     0.2040380
  H        2.9498840    -0.5811480     0.1773000
units angstrom
no_reorient  #important for SAPT in psi4, default
symmetry c1  #important for SAPT in psi4, default
}

set PROPERTIES_ORIGIN ["COM"]
properties('MP2/aug-cc-pvtz', properties = ['dipole'])
--------------------------------------------------------------------------

    Molecular point group: c1
  Charge       = 0
  Multiplicity = 1
  Basis Set: AUG-CC-PVTZ
    Blend: AUG-CC-PVTZ
  Basis Set: (AUG-CC-PVTZ AUX)
    Blend: AUG-CC-PVTZ-JKFIT

    Orbital Energies [Eh]
    ---------------------

    Doubly Occupied:

       1A    -20.601273     2A    -20.502601     3A    -15.579019
       4A    -11.385261     5A    -11.300240     6A    -11.235632
       7A     -1.507841     8A     -1.336849     9A     -1.210415
      10A     -1.055726    11A     -0.904107    12A     -0.792329
      13A     -0.750087    14A     -0.710215    15A     -0.705163
      16A     -0.638454    17A     -0.609544    18A     -0.576430
      19A     -0.565722    20A     -0.523251    21A     -0.509644
      22A     -0.459248    23A     -0.442085    24A     -0.421564

  @DF-RHF Final Energy:  -322.00447225645041

   => Energetics <=

    Nuclear Repulsion Energy =            249.1501559806758337
    One-Electron Energy =                -933.6638543533259735
    Two-Electron Energy =                 362.5092261161997840
    Total Energy =                       -322.0044722564504127
  Basis Set: (AUG-CC-PVTZ AUX)
    Blend: AUG-CC-PVTZ-RI
    Molecular point group: c1

    Geometry (in Angstrom), charge = 0, multiplicity = 1:

       Center              X                  Y                   Z               Mass
    ------------   -----------------  -----------------  -----------------  -----------------
         O           -0.172454533464    -0.400108179406     0.005168857220    15.994914619570
         O            1.180940466536     1.257658320594     0.013369157220    15.994914619570
         N            1.929650466536    -0.921767679406    -0.061382842780    14.003074004430
         C           -1.355376533464     0.430998320594     0.002112157220    12.000000000000
         C           -2.631878533464    -0.378977679406     0.006877157220    12.000000000000
         C            0.969192466536     0.055242320594     0.003394157220    12.000000000000
         H           -1.271456533464     1.074294320594     0.882043157220     1.007825032230
         H           -1.271980533464     1.064143320594    -0.885107842780     1.007825032230
         H           -3.496910533464     0.290133320594     0.003482157220     1.007825032230
         H           -2.683407533464    -1.018770679406    -0.876611842780     1.007825032230
         H           -2.683585533464    -1.009165679406     0.897355157220     1.007825032230
         H            1.663052466536    -1.857959679406     0.208396157220     1.007825032230
         H            2.863199466536    -0.622416679406     0.181658157220     1.007825032230

  Basis Set: AUG-CC-PVTZ
    Blend: AUG-CC-PVTZ
  Basis Set: (AUG-CC-PVTZ AUX)
    Blend: AUG-CC-PVTZ-JKFIT
	 Reference Energy          =    -322.0044722564504127 [Eh]
	 Singles Energy            =      -0.0000000000000000 [Eh]
	 Same-Spin Energy          =      -0.3112967024328830 [Eh]
	 Opposite-Spin Energy      =      -0.9876908008223636 [Eh]
	 Correlation Energy        =      -1.2989875032552467 [Eh]
	 Total Energy              =    -323.3034597597056745 [Eh]

	 ================> DF-SCS-MP2 Energies <==================
	-----------------------------------------------------------
	 SCS Same-Spin Scale       =       0.3333333333333333 [-]
	 SCS Opposite-Spin Scale   =       1.2000000000000000 [-]
	 SCS Same-Spin Energy      =      -0.1037655674776277 [Eh]
	 SCS Opposite-Spin Energy  =      -1.1852289609868363 [Eh]
	 SCS Correlation Energy    =      -1.2889945284644639 [Eh]
	 SCS Total Energy          =    -323.2934667849148695 [Eh]
	-----------------------------------------------------------

  Dipole Moment: [D]
     X:    -1.5855      Y:    -2.5862      Z:     0.7259     Total:     3.1191

*** Psi4 exiting successfully. Buy a developer a beer!
