                               Psi4 1.4a3.dev225

  ==> Input File <==

--------------------------------------------------------------------------
#psi4
#
memory 32 gb

molecule  {
0 1
  O       -0.1791250    -0.4779340     0.0014420
  O        1.2676250     1.2989270     0.0090110
  N        2.0163350    -0.8804990    -0.0657410
  C       -1.2686920     0.4722670    -0.0022460
  C       -2.5451940    -0.3377090     0.0025190
  C        1.0558770     0.0965110    -0.0009640
  H       -1.1847720     1.1155630     0.8776850
  H       -1.1852960     1.1054120    -0.8894660
  H       -3.4102260     0.3314020    -0.0008760
  H       -2.6014416    -1.0360892    -0.9618729
  H       -2.5969010    -0.9678970     0.8929970
  H        1.7497370    -1.8166910     0.2040380
  H        2.9498840    -0.5811480     0.1773000
units angstrom
no_reorient  #important for SAPT in psi4, default
symmetry c1  #important for SAPT in psi4, default
}

set PROPERTIES_ORIGIN ["COM"]
properties('MP2/aug-cc-pvtz', properties = ['dipole'])
--------------------------------------------------------------------------

    Molecular point group: c1
  Charge       = 0
  Multiplicity = 1
  Basis Set: AUG-CC-PVTZ
    Blend: AUG-CC-PVTZ
  Basis Set: (AUG-CC-PVTZ AUX)
    Blend: AUG-CC-PVTZ-JKFIT

    Orbital Energies [Eh]
    ---------------------

    Doubly Occupied:

       1A    -20.601909     2A    -20.530414     3A    -15.589497
       4A    -11.405865     5A    -11.289446     6A    -11.236742
       7A     -1.457271     8A     -1.351101     9A     -1.217062
      10A     -1.032290    11A     -0.870710    12A     -0.799233
      13A     -0.744887    14A     -0.700976    15A     -0.682287
      16A     -0.642656    17A     -0.597016    18A     -0.576050
      19A     -0.546834    20A     -0.518713    21A     -0.507275
      22A     -0.462143    23A     -0.457797    24A     -0.431225

  @DF-RHF Final Energy:  -322.00628459087648

   => Energetics <=

    Nuclear Repulsion Energy =            245.7244488153411339
    One-Electron Energy =                -926.9626710455883085
    Two-Electron Energy =                 359.2319376393706989
    Total Energy =                       -322.0062845908764757
  Basis Set: (AUG-CC-PVTZ AUX)
    Blend: AUG-CC-PVTZ-RI
    Molecular point group: c1

    Geometry (in Angstrom), charge = 0, multiplicity = 1:

       Center              X                  Y                   Z               Mass
    ------------   -----------------  -----------------  -----------------  -----------------
         O           -0.248987525263    -0.497147618121     0.006602405852    15.994914619570
         O            1.197762474737     1.279713381879     0.014171405852    15.994914619570
         N            1.946472474737    -0.899712618121    -0.060580594148    14.003074004430
         C           -1.338554525263     0.453053381879     0.002914405852    12.000000000000
         C           -2.615056525263    -0.356922618121     0.007679405852    12.000000000000
         C            0.986014474737     0.077297381879     0.004196405852    12.000000000000
         H           -1.254634525263     1.096349381879     0.882845405852     1.007825032230
         H           -1.255158525263     1.086198381879    -0.884305594148     1.007825032230
         H           -3.480088525263     0.312188381879     0.004284405852     1.007825032230
         H           -2.671304125263    -1.055302818121    -0.956712494148     1.007825032230
         H           -2.666763525263    -0.987110618121     0.898157405852     1.007825032230
         H            1.679874474737    -1.835904618121     0.209198405852     1.007825032230
         H            2.880021474737    -0.600361618121     0.182460405852     1.007825032230

  Basis Set: AUG-CC-PVTZ
    Blend: AUG-CC-PVTZ
  Basis Set: (AUG-CC-PVTZ AUX)
    Blend: AUG-CC-PVTZ-JKFIT
	 Reference Energy          =    -322.0062845908764757 [Eh]
	 Singles Energy            =      -0.0000000000000000 [Eh]
	 Same-Spin Energy          =      -0.3132605819268400 [Eh]
	 Opposite-Spin Energy      =      -0.9941681171849902 [Eh]
	 Correlation Energy        =      -1.3074286991118302 [Eh]
	 Total Energy              =    -323.3137132899882999 [Eh]

	 ================> DF-SCS-MP2 Energies <==================
	-----------------------------------------------------------
	 SCS Same-Spin Scale       =       0.3333333333333333 [-]
	 SCS Opposite-Spin Scale   =       1.2000000000000000 [-]
	 SCS Same-Spin Energy      =      -0.1044201939756133 [Eh]
	 SCS Opposite-Spin Energy  =      -1.1930017406219882 [Eh]
	 SCS Correlation Energy    =      -1.2974219345976015 [Eh]
	 SCS Total Energy          =    -323.3037065254740696 [Eh]
	-----------------------------------------------------------

  Dipole Moment: [D]
     X:    -0.5911      Y:    -2.1622      Z:     0.7573     Total:     2.3660

*** Psi4 exiting successfully. Buy a developer a beer!
