                               Psi4 1.4a3.dev225

  ==> Input File <==

--------------------------------------------------------------------------
#psi4
#
memory 32 gb

molecule  {
0 1
  O       -0.1791250    -0.4779340     0.0014420
  O        1.2676250     1.2989270     0.0090110
  N        2.0163350    -0.8804990    -0.0657410
  C       -1.2830227     0.4944214    -0.0023624
  C       -2.5451940    -0.3377090     0.0025190
  C        1.0558770     0.0965110    -0.0009640
  H       -1.1847720     1.1155630     0.8776850
  H       -1.1852960     1.1054120    -0.8894660
  H       -3.4102260     0.3314020    -0.0008760
  H       -2.5967230    -0.9775020    -0.8809700
  H       -2.5969010    -0.9678970     0.8929970
  H        1.7497370    -1.8166910     0.2040380
  H        2.9498840    -0.5811480     0.1773000
units angstrom
no_reorient  #important for SAPT in psi4, default
symmetry c1  #important for SAPT in psi4, default
}

set PROPERTIES_ORIGIN ["COM"]
properties('MP2/aug-cc-pvtz', properties = ['dipole'])
--------------------------------------------------------------------------

    Molecular point group: c1
  Charge       = 0
  Multiplicity = 1
  Basis Set: AUG-CC-PVTZ
    Blend: AUG-CC-PVTZ
  Basis Set: (AUG-CC-PVTZ AUX)
    Blend: AUG-CC-PVTZ-JKFIT

    Orbital Energies [Eh]
    ---------------------

    Doubly Occupied:

       1A    -20.598770     2A    -20.528592     3A    -15.587968
       4A    -11.403660     5A    -11.288721     6A    -11.225870
       7A     -1.451577     8A     -1.346814     9A     -1.214995
      10A     -1.036292    11A     -0.873619    12A     -0.800379
      13A     -0.741868    14A     -0.698603    15A     -0.682216
      16A     -0.640245    17A     -0.599741    18A     -0.578423
      19A     -0.542252    20A     -0.522728    21A     -0.518119
      22A     -0.465630    23A     -0.455944    24A     -0.430100

  @DF-RHF Final Energy:  -322.01184636566285

   => Energetics <=

    Nuclear Repulsion Energy =            245.7313053721110236
    One-Electron Energy =                -927.0200528008481342
    Two-Electron Energy =                 359.2769010630742628
    Total Energy =                       -322.0118463656628478
  Basis Set: (AUG-CC-PVTZ AUX)
    Blend: AUG-CC-PVTZ-RI
    Molecular point group: c1

    Geometry (in Angstrom), charge = 0, multiplicity = 1:

       Center              X                  Y                   Z               Mass
    ------------   -----------------  -----------------  -----------------  -----------------
         O           -0.247109734852    -0.500796207869     0.005702447883    15.994914619570
         O            1.199640265148     1.276064792131     0.013271447883    15.994914619570
         N            1.948350265148    -0.903361207869    -0.061480552117    14.003074004430
         C           -1.351007434852     0.471559192131     0.001898047883    12.000000000000
         C           -2.613178734852    -0.360571207869     0.006779447883    12.000000000000
         C            0.987892265148     0.073648792131     0.003296447883    12.000000000000
         H           -1.252756734852     1.092700792131     0.881945447883     1.007825032230
         H           -1.253280734852     1.082549792131    -0.885205552117     1.007825032230
         H           -3.478210734852     0.308539792131     0.003384447883     1.007825032230
         H           -2.664707734852    -1.000364207869    -0.876709552117     1.007825032230
         H           -2.664885734852    -0.990759207869     0.897257447883     1.007825032230
         H            1.681752265148    -1.839553207869     0.208298447883     1.007825032230
         H            2.881899265148    -0.604010207869     0.181560447883     1.007825032230

  Basis Set: AUG-CC-PVTZ
    Blend: AUG-CC-PVTZ
  Basis Set: (AUG-CC-PVTZ AUX)
    Blend: AUG-CC-PVTZ-JKFIT
	 Reference Energy          =    -322.0118463656628478 [Eh]
	 Singles Energy            =      -0.0000000000000000 [Eh]
	 Same-Spin Energy          =      -0.3133161976907537 [Eh]
	 Opposite-Spin Energy      =      -0.9937729105873556 [Eh]
	 Correlation Energy        =      -1.3070891082781093 [Eh]
	 Total Energy              =    -323.3189354739409396 [Eh]

	 ================> DF-SCS-MP2 Energies <==================
	-----------------------------------------------------------
	 SCS Same-Spin Scale       =       0.3333333333333333 [-]
	 SCS Opposite-Spin Scale   =       1.2000000000000000 [-]
	 SCS Same-Spin Energy      =      -0.1044387325635846 [Eh]
	 SCS Opposite-Spin Energy  =      -1.1925274927048266 [Eh]
	 SCS Correlation Energy    =      -1.2969662252684111 [Eh]
	 SCS Total Energy          =    -323.3088125909312680 [Eh]
	-----------------------------------------------------------

  Dipole Moment: [D]
     X:    -0.7092      Y:    -2.1550      Z:     0.7151     Total:     2.3787

*** Psi4 exiting successfully. Buy a developer a beer!
