                               Psi4 1.4a3.dev225

  ==> Input File <==

--------------------------------------------------------------------------
#psi4
#
memory 32 gb

molecule  {
0 1
  O       -0.1878670    -0.4875392     0.0230746
  O        1.2676250     1.2989270     0.0090110
  N        2.0163350    -0.8804990    -0.0657410
  C       -1.2686920     0.4722670    -0.0022460
  C       -2.5451940    -0.3377090     0.0025190
  C        1.0558770     0.0965110    -0.0009640
  H       -1.1847720     1.1155630     0.8776850
  H       -1.1852960     1.1054120    -0.8894660
  H       -3.4102260     0.3314020    -0.0008760
  H       -2.5967230    -0.9775020    -0.8809700
  H       -2.5969010    -0.9678970     0.8929970
  H        1.7497370    -1.8166910     0.2040380
  H        2.9498840    -0.5811480     0.1773000
units angstrom
no_reorient  #important for SAPT in psi4, default
symmetry c1  #important for SAPT in psi4, default
}

set PROPERTIES_ORIGIN ["COM"]
properties('MP2/aug-cc-pvtz', properties = ['dipole'])
--------------------------------------------------------------------------

    Molecular point group: c1
  Charge       = 0
  Multiplicity = 1
  Basis Set: AUG-CC-PVTZ
    Blend: AUG-CC-PVTZ
  Basis Set: (AUG-CC-PVTZ AUX)
    Blend: AUG-CC-PVTZ-JKFIT

    Orbital Energies [Eh]
    ---------------------

    Doubly Occupied:

       1A    -20.601568     2A    -20.532300     3A    -15.590243
       4A    -11.407287     5A    -11.287262     6A    -11.224004
       7A     -1.453541     8A     -1.351494     9A     -1.217500
      10A     -1.033540    11A     -0.873052    12A     -0.800827
      13A     -0.744526    14A     -0.699988    15A     -0.681571
      16A     -0.642930    17A     -0.598250    18A     -0.580705
      19A     -0.544644    20A     -0.521676    21A     -0.514090
      22A     -0.463169    23A     -0.458390    24A     -0.431760

  @DF-RHF Final Energy:  -322.01143684537044

   => Energetics <=

    Nuclear Repulsion Energy =            245.8508641399455712
    One-Electron Energy =                -927.2159680072580841
    Two-Electron Energy =                 359.3536670219421012
    Total Energy =                       -322.0114368453704401
  Basis Set: (AUG-CC-PVTZ AUX)
    Blend: AUG-CC-PVTZ-RI
    Molecular point group: c1

    Geometry (in Angstrom), charge = 0, multiplicity = 1:

       Center              X                  Y                   Z               Mass
    ------------   -----------------  -----------------  -----------------  -----------------
         O           -0.256212674709    -0.505690592706     0.023433672845    15.994914619570
         O            1.199279325291     1.280775607294     0.009370072845    15.994914619570
         N            1.947989325291    -0.898650392706    -0.065381927155    14.003074004430
         C           -1.337037674709     0.454115607294    -0.001886927155    12.000000000000
         C           -2.613539674709    -0.355860392706     0.002878072845    12.000000000000
         C            0.987531325291     0.078359607294    -0.000604927155    12.000000000000
         H           -1.253117674709     1.097411607294     0.878044072845     1.007825032230
         H           -1.253641674709     1.087260607294    -0.889106927155     1.007825032230
         H           -3.478571674709     0.313250607294    -0.000516927155     1.007825032230
         H           -2.665068674709    -0.995653392706    -0.880610927155     1.007825032230
         H           -2.665246674709    -0.986048392706     0.893356072845     1.007825032230
         H            1.681391325291    -1.834842392706     0.204397072845     1.007825032230
         H            2.881538325291    -0.599299392706     0.177659072845     1.007825032230

  Basis Set: AUG-CC-PVTZ
    Blend: AUG-CC-PVTZ
  Basis Set: (AUG-CC-PVTZ AUX)
    Blend: AUG-CC-PVTZ-JKFIT
	 Reference Energy          =    -322.0114368453704401 [Eh]
	 Singles Energy            =      -0.0000000000000000 [Eh]
	 Same-Spin Energy          =      -0.3135301482269241 [Eh]
	 Opposite-Spin Energy      =      -0.9941164578556684 [Eh]
	 Correlation Energy        =      -1.3076466060825924 [Eh]
	 Total Energy              =    -323.3190834514530252 [Eh]

	 ================> DF-SCS-MP2 Energies <==================
	-----------------------------------------------------------
	 SCS Same-Spin Scale       =       0.3333333333333333 [-]
	 SCS Opposite-Spin Scale   =       1.2000000000000000 [-]
	 SCS Same-Spin Energy      =      -0.1045100494089747 [Eh]
	 SCS Opposite-Spin Energy  =      -1.1929397494268019 [Eh]
	 SCS Correlation Energy    =      -1.2974497988357767 [Eh]
	 SCS Total Energy          =    -323.3088866442062113 [Eh]
	-----------------------------------------------------------

  Dipole Moment: [D]
     X:    -0.5313      Y:    -2.1666      Z:     0.6879     Total:     2.3344

*** Psi4 exiting successfully. Buy a developer a beer!
