                               Psi4 1.4a3.dev225

  ==> Input File <==

--------------------------------------------------------------------------
#psi4
#
memory 32 gb

molecule  {
0 1
  O       -0.1791250    -0.4779340     0.0014420
  O        1.2676250     1.2989270     0.0090110
  N        2.0163350    -0.8804990    -0.0657410
  C       -1.2686920     0.4722670    -0.0022460
  C       -2.5451940    -0.3377090     0.0025190
  C        1.0558770     0.0965110    -0.0009640
  H       -1.1847720     1.1155630     0.8776850
  H       -1.1852960     1.1054120    -0.8894660
  H       -3.3944064     0.3191654    -0.0008139
  H       -2.5967230    -0.9775020    -0.8809700
  H       -2.5969010    -0.9678970     0.8929970
  H        1.7497370    -1.8166910     0.2040380
  H        2.9498840    -0.5811480     0.1773000
units angstrom
no_reorient  #important for SAPT in psi4, default
symmetry c1  #important for SAPT in psi4, default
}

set PROPERTIES_ORIGIN ["COM"]
properties('MP2/aug-cc-pvtz', properties = ['dipole'])
--------------------------------------------------------------------------

    Molecular point group: c1
  Charge       = 0
  Multiplicity = 1
  Basis Set: AUG-CC-PVTZ
    Blend: AUG-CC-PVTZ
  Basis Set: (AUG-CC-PVTZ AUX)
    Blend: AUG-CC-PVTZ-JKFIT

    Orbital Energies [Eh]
    ---------------------

    Doubly Occupied:

       1A    -20.601463     2A    -20.530081     3A    -15.589268
       4A    -11.405519     5A    -11.287960     6A    -11.222397
       7A     -1.456855     8A     -1.350727     9A     -1.216815
      10A     -1.036046    11A     -0.876603    12A     -0.799967
      13A     -0.744653    14A     -0.700963    15A     -0.683114
      16A     -0.642695    17A     -0.598365    18A     -0.580967
      19A     -0.549812    20A     -0.521652    21A     -0.513878
      22A     -0.462854    23A     -0.457522    24A     -0.430988

  @DF-RHF Final Energy:  -322.01270746494595

   => Energetics <=

    Nuclear Repulsion Energy =            246.1899999397608099
    One-Electron Energy =                -927.8830900179412993
    Two-Electron Energy =                 359.6803826132345421
    Total Energy =                       -322.0127074649459473
  Basis Set: (AUG-CC-PVTZ AUX)
    Blend: AUG-CC-PVTZ-RI
    Molecular point group: c1

    Geometry (in Angstrom), charge = 0, multiplicity = 1:

       Center              X                  Y                   Z               Mass
    ------------   -----------------  -----------------  -----------------  -----------------
         O           -0.249219972784    -0.497672205575     0.005686059068    15.994914619570
         O            1.197530027216     1.279188794425     0.013255059068    15.994914619570
         N            1.946240027216    -0.900237205575    -0.061496940932    14.003074004430
         C           -1.338786972784     0.452528794425     0.001998059068    12.000000000000
         C           -2.615288972784    -0.357447205575     0.006763059068    12.000000000000
         C            0.985782027216     0.076772794425     0.003280059068    12.000000000000
         H           -1.254866972784     1.095824794425     0.881929059068     1.007825032230
         H           -1.255390972784     1.085673794425    -0.885221940932     1.007825032230
         H           -3.464501372784     0.299427194425     0.003430159068     1.007825032230
         H           -2.666817972784    -0.997240205575    -0.876725940932     1.007825032230
         H           -2.666995972784    -0.987635205575     0.897241059068     1.007825032230
         H            1.679642027216    -1.836429205575     0.208282059068     1.007825032230
         H            2.879789027216    -0.600886205575     0.181544059068     1.007825032230

  Basis Set: AUG-CC-PVTZ
    Blend: AUG-CC-PVTZ
  Basis Set: (AUG-CC-PVTZ AUX)
    Blend: AUG-CC-PVTZ-JKFIT
	 Reference Energy          =    -322.0127074649459473 [Eh]
	 Singles Energy            =      -0.0000000000000000 [Eh]
	 Same-Spin Energy          =      -0.3133293622763225 [Eh]
	 Opposite-Spin Energy      =      -0.9934190637643998 [Eh]
	 Correlation Energy        =      -1.3067484260407223 [Eh]
	 Total Energy              =    -323.3194558909866601 [Eh]

	 ================> DF-SCS-MP2 Energies <==================
	-----------------------------------------------------------
	 SCS Same-Spin Scale       =       0.3333333333333333 [-]
	 SCS Opposite-Spin Scale   =       1.2000000000000000 [-]
	 SCS Same-Spin Energy      =      -0.1044431207587742 [Eh]
	 SCS Opposite-Spin Energy  =      -1.1921028765172796 [Eh]
	 SCS Correlation Energy    =      -1.2965459972760538 [Eh]
	 SCS Total Energy          =    -323.3092534622219887 [Eh]
	-----------------------------------------------------------

  Dipole Moment: [D]
     X:    -0.6230      Y:    -2.1933      Z:     0.7154     Total:     2.3896

*** Psi4 exiting successfully. Buy a developer a beer!
