                               Psi4 1.4a3.dev225

  ==> Input File <==

--------------------------------------------------------------------------
#psi4
#
memory 32 gb

molecule  {
0 1
  O       -0.1791250    -0.4779340     0.0014420
  O        1.2676250     1.2989270     0.0090110
  N        2.0163350    -0.8804990    -0.0657410
  C       -1.2686920     0.4722670    -0.0022460
  C       -2.5451940    -0.3377090     0.0025190
  C        1.0558770     0.0965110    -0.0009640
  H       -1.1847720     1.1155630     0.8776850
  H       -1.1852960     1.1054120    -0.8894660
  H       -3.4102260     0.3314020    -0.0008760
  H       -2.5967230    -0.9775020    -0.8809700
  H       -2.5921665    -0.9101947     0.8114616
  H        1.7497370    -1.8166910     0.2040380
  H        2.9498840    -0.5811480     0.1773000
units angstrom
no_reorient  #important for SAPT in psi4, default
symmetry c1  #important for SAPT in psi4, default
}

set PROPERTIES_ORIGIN ["COM"]
properties('MP2/aug-cc-pvtz', properties = ['dipole'])
--------------------------------------------------------------------------

    Molecular point group: c1
  Charge       = 0
  Multiplicity = 1
  Basis Set: AUG-CC-PVTZ
    Blend: AUG-CC-PVTZ
  Basis Set: (AUG-CC-PVTZ AUX)
    Blend: AUG-CC-PVTZ-JKFIT

    Orbital Energies [Eh]
    ---------------------

    Doubly Occupied:

       1A    -20.601429     2A    -20.530014     3A    -15.589263
       4A    -11.405494     5A    -11.287106     6A    -11.212422
       7A     -1.456809     8A     -1.350677     9A     -1.216814
      10A     -1.040198    11A     -0.881996    12A     -0.801204
      13A     -0.744465    14A     -0.701420    15A     -0.684055
      16A     -0.642647    17A     -0.606492    18A     -0.581161
      19A     -0.547516    20A     -0.529311    21A     -0.513791
      22A     -0.463217    23A     -0.457464    24A     -0.430988

  @DF-RHF Final Energy:  -322.00641173448213

   => Energetics <=

    Nuclear Repulsion Energy =            246.5342703043491781
    One-Electron Energy =                -928.5294546481151201
    Two-Electron Energy =                 359.9887726092837852
    Total Energy =                       -322.0064117344821284
  Basis Set: (AUG-CC-PVTZ AUX)
    Blend: AUG-CC-PVTZ-RI
    Molecular point group: c1

    Geometry (in Angstrom), charge = 0, multiplicity = 1:

       Center              X                  Y                   Z               Mass
    ------------   -----------------  -----------------  -----------------  -----------------
         O           -0.249094513688    -0.498463761013     0.006609564369    15.994914619570
         O            1.197655486312     1.278397238987     0.014178564369    15.994914619570
         N            1.946365486312    -0.901028761013    -0.060573435631    14.003074004430
         C           -1.338661513688     0.451737238987     0.002921564369    12.000000000000
         C           -2.615163513688    -0.358238761013     0.007686564369    12.000000000000
         C            0.985907486312     0.075981238987     0.004203564369    12.000000000000
         H           -1.254741513688     1.095033238987     0.882852564369     1.007825032230
         H           -1.255265513688     1.084882238987    -0.884298435631     1.007825032230
         H           -3.480195513688     0.310872238987     0.004291564369     1.007825032230
         H           -2.666692513688    -0.998031761013    -0.875802435631     1.007825032230
         H           -2.662136013688    -0.930724461013     0.816629164369     1.007825032230
         H            1.679767486312    -1.837220761013     0.209205564369     1.007825032230
         H            2.879914486312    -0.601677761013     0.182467564369     1.007825032230

  Basis Set: AUG-CC-PVTZ
    Blend: AUG-CC-PVTZ
  Basis Set: (AUG-CC-PVTZ AUX)
    Blend: AUG-CC-PVTZ-JKFIT
	 Reference Energy          =    -322.0064117344821284 [Eh]
	 Singles Energy            =      -0.0000000000000000 [Eh]
	 Same-Spin Energy          =      -0.3133968352150898 [Eh]
	 Opposite-Spin Energy      =      -0.9931218648143432 [Eh]
	 Correlation Energy        =      -1.3065187000294329 [Eh]
	 Total Energy              =    -323.3129304345115429 [Eh]

	 ================> DF-SCS-MP2 Energies <==================
	-----------------------------------------------------------
	 SCS Same-Spin Scale       =       0.3333333333333333 [-]
	 SCS Opposite-Spin Scale   =       1.2000000000000000 [-]
	 SCS Same-Spin Energy      =      -0.1044656117383632 [Eh]
	 SCS Opposite-Spin Energy  =      -1.1917462377772117 [Eh]
	 SCS Correlation Energy    =      -1.2962118495155750 [Eh]
	 SCS Total Energy          =    -323.3026235839977289 [Eh]
	-----------------------------------------------------------

  Dipole Moment: [D]
     X:    -0.6299      Y:    -2.2247      Z:     0.7480     Total:     2.4302

*** Psi4 exiting successfully. Buy a developer a beer!
