                               Psi4 1.4a3.dev225

  ==> Input File <==

--------------------------------------------------------------------------
#psi4
#
memory 32 gb

molecule  {
0 1
  O       -0.1791250    -0.4779340     0.0014420
  O        1.2676250     1.2989270     0.0090110
  N        2.0163350    -0.8804990    -0.0657410
  C       -1.2686920     0.4722670    -0.0022460
  C       -2.5451940    -0.3377090     0.0025190
  C        1.0472056     0.0472704    -0.0013725
  H       -1.1847720     1.1155630     0.8776850
  H       -1.1852960     1.1054120    -0.8894660
  H       -3.4102260     0.3314020    -0.0008760
  H       -2.5967230    -0.9775020    -0.8809700
  H       -2.5969010    -0.9678970     0.8929970
  H        1.7497370    -1.8166910     0.2040380
  H        2.9498840    -0.5811480     0.1773000
units angstrom
no_reorient  #important for SAPT in psi4, default
symmetry c1  #important for SAPT in psi4, default
}

set PROPERTIES_ORIGIN ["COM"]
properties('MP2/aug-cc-pvtz', properties = ['dipole'])
--------------------------------------------------------------------------

    Molecular point group: c1
  Charge       = 0
  Multiplicity = 1
  Basis Set: AUG-CC-PVTZ
    Blend: AUG-CC-PVTZ
  Basis Set: (AUG-CC-PVTZ AUX)
    Blend: AUG-CC-PVTZ-JKFIT

    Orbital Energies [Eh]
    ---------------------

    Doubly Occupied:

       1A    -20.607637     2A    -20.516637     3A    -15.595260
       4A    -11.406276     5A    -11.291036     6A    -11.226582
       7A     -1.462093     8A     -1.323724     9A     -1.226648
      10A     -1.040347    11A     -0.882485    12A     -0.804212
      13A     -0.749741    14A     -0.709613    15A     -0.687024
      16A     -0.635308    17A     -0.597970    18A     -0.573645
      19A     -0.549615    20A     -0.521371    21A     -0.513793
      22A     -0.463639    23A     -0.444383    24A     -0.424038

  @DF-RHF Final Energy:  -322.00701573228423

   => Energetics <=

    Nuclear Repulsion Energy =            246.0783674249874764
    One-Electron Energy =                -927.6646121007039483
    Two-Electron Energy =                 359.5792289434322129
    Total Energy =                       -322.0070157322842306
  Basis Set: (AUG-CC-PVTZ AUX)
    Blend: AUG-CC-PVTZ-RI
    Molecular point group: c1

    Geometry (in Angstrom), charge = 0, multiplicity = 1:

       Center              X                  Y                   Z               Mass
    ------------   -----------------  -----------------  -----------------  -----------------
         O           -0.247872377979    -0.491175069904     0.005741811065    15.994914619570
         O            1.198877622021     1.285685930096     0.013310811065    15.994914619570
         N            1.947587622021    -0.893740069904    -0.061441188935    14.003074004430
         C           -1.337439377979     0.459025930096     0.002053811065    12.000000000000
         C           -2.613941377979    -0.350950069904     0.006818811065    12.000000000000
         C            0.978458222021     0.034029330096     0.002927311065    12.000000000000
         H           -1.253519377979     1.102321930096     0.881984811065     1.007825032230
         H           -1.254043377979     1.092170930096    -0.885166188935     1.007825032230
         H           -3.478973377979     0.318160930096     0.003423811065     1.007825032230
         H           -2.665470377979    -0.990743069904    -0.876670188935     1.007825032230
         H           -2.665648377979    -0.981138069904     0.897296811065     1.007825032230
         H            1.680989622021    -1.829932069904     0.208337811065     1.007825032230
         H            2.881136622021    -0.594389069904     0.181599811065     1.007825032230

  Basis Set: AUG-CC-PVTZ
    Blend: AUG-CC-PVTZ
  Basis Set: (AUG-CC-PVTZ AUX)
    Blend: AUG-CC-PVTZ-JKFIT
	 Reference Energy          =    -322.0070157322842306 [Eh]
	 Singles Energy            =      -0.0000000000000000 [Eh]
	 Same-Spin Energy          =      -0.3137703163420700 [Eh]
	 Opposite-Spin Energy      =      -0.9941136082069516 [Eh]
	 Correlation Energy        =      -1.3078839245490217 [Eh]
	 Total Energy              =    -323.3148996568332336 [Eh]

	 ================> DF-SCS-MP2 Energies <==================
	-----------------------------------------------------------
	 SCS Same-Spin Scale       =       0.3333333333333333 [-]
	 SCS Opposite-Spin Scale   =       1.2000000000000000 [-]
	 SCS Same-Spin Energy      =      -0.1045901054473567 [Eh]
	 SCS Opposite-Spin Energy  =      -1.1929363298483420 [Eh]
	 SCS Correlation Energy    =      -1.2975264352956986 [Eh]
	 SCS Total Energy          =    -323.3045421675799389 [Eh]
	-----------------------------------------------------------

  Dipole Moment: [D]
     X:    -0.7240      Y:    -2.6168      Z:     0.7057     Total:     2.8053

*** Psi4 exiting successfully. Buy a developer a beer!
