                               Psi4 1.4a3.dev225

  ==> Input File <==

--------------------------------------------------------------------------
#psi4
#
memory 32 gb

molecule  {
0 1
  O       -0.1791250    -0.4779340     0.0014420
  O        1.2676250     1.2989270     0.0090110
  N        2.0163350    -0.8804990    -0.0657410
  C       -1.2686920     0.4722670    -0.0022460
  C       -2.5451940    -0.3377090     0.0025190
  C        1.0558770     0.0965110    -0.0009640
  H       -1.1847720     1.1155630     0.8776850
  H       -1.1852960     1.1054120    -0.8894660
  H       -3.4102260     0.3314020    -0.0008760
  H       -2.5967230    -0.9775020    -0.8809700
  H       -2.5978479    -0.9794375     0.9093041
  H        1.7497370    -1.8166910     0.2040380
  H        2.9498840    -0.5811480     0.1773000
units angstrom
no_reorient  #important for SAPT in psi4, default
symmetry c1  #important for SAPT in psi4, default
}

set PROPERTIES_ORIGIN ["COM"]
properties('MP2/aug-cc-pvtz', properties = ['dipole'])
--------------------------------------------------------------------------

    Molecular point group: c1
  Charge       = 0
  Multiplicity = 1
  Basis Set: AUG-CC-PVTZ
    Blend: AUG-CC-PVTZ
  Basis Set: (AUG-CC-PVTZ AUX)
    Blend: AUG-CC-PVTZ-JKFIT

    Orbital Energies [Eh]
    ---------------------

    Doubly Occupied:

       1A    -20.601664     2A    -20.530216     3A    -15.589379
       4A    -11.405678     5A    -11.288378     6A    -11.227313
       7A     -1.457038     8A     -1.350886     9A     -1.216932
      10A     -1.034462    11A     -0.874242    12A     -0.799837
      13A     -0.744680    14A     -0.700837    15A     -0.683138
      16A     -0.642583    17A     -0.597303    18A     -0.580672
      19A     -0.546098    20A     -0.520181    21A     -0.513898
      22A     -0.462905    23A     -0.457597    24A     -0.431087

  @DF-RHF Final Energy:  -322.01221397889606

   => Energetics <=

    Nuclear Repulsion Energy =            246.0240245512735271
    One-Electron Energy =                -927.5584680690171808
    Two-Electron Energy =                 359.5222295388475686
    Total Energy =                       -322.0122139788960567
  Basis Set: (AUG-CC-PVTZ AUX)
    Blend: AUG-CC-PVTZ-RI
    Molecular point group: c1

    Geometry (in Angstrom), charge = 0, multiplicity = 1:

       Center              X                  Y                   Z               Mass
    ------------   -----------------  -----------------  -----------------  -----------------
         O           -0.249030212661    -0.497680083905     0.005502201185    15.994914619570
         O            1.197719787339     1.279180916095     0.013071201185    15.994914619570
         N            1.946429787339    -0.900245083905    -0.061680798815    14.003074004430
         C           -1.338597212661     0.452520916095     0.001814201185    12.000000000000
         C           -2.615099212661    -0.357455083905     0.006579201185    12.000000000000
         C            0.985971787339     0.076764916095     0.003096201185    12.000000000000
         H           -1.254677212661     1.095816916095     0.881745201185     1.007825032230
         H           -1.255201212661     1.085665916095    -0.885405798815     1.007825032230
         H           -3.480131212661     0.311655916095     0.003184201185     1.007825032230
         H           -2.666628212661    -0.997248083905    -0.876909798815     1.007825032230
         H           -2.667753112661    -0.999183583905     0.913364301185     1.007825032230
         H            1.679831787339    -1.836437083905     0.208098201185     1.007825032230
         H            2.879978787339    -0.600894083905     0.181360201185     1.007825032230

  Basis Set: AUG-CC-PVTZ
    Blend: AUG-CC-PVTZ
  Basis Set: (AUG-CC-PVTZ AUX)
    Blend: AUG-CC-PVTZ-JKFIT
	 Reference Energy          =    -322.0122139788960567 [Eh]
	 Singles Energy            =      -0.0000000000000000 [Eh]
	 Same-Spin Energy          =      -0.3133023095188477 [Eh]
	 Opposite-Spin Energy      =      -0.9936362292446108 [Eh]
	 Correlation Energy        =      -1.3069385387634584 [Eh]
	 Total Energy              =    -323.3191525176595178 [Eh]

	 ================> DF-SCS-MP2 Energies <==================
	-----------------------------------------------------------
	 SCS Same-Spin Scale       =       0.3333333333333333 [-]
	 SCS Opposite-Spin Scale   =       1.2000000000000000 [-]
	 SCS Same-Spin Energy      =      -0.1044341031729492 [Eh]
	 SCS Opposite-Spin Energy  =      -1.1923634750935330 [Eh]
	 SCS Correlation Energy    =      -1.2967975782664822 [Eh]
	 SCS Total Energy          =    -323.3090115571625347 [Eh]
	-----------------------------------------------------------

  Dipole Moment: [D]
     X:    -0.6090      Y:    -2.1912      Z:     0.7075     Total:     2.3818

*** Psi4 exiting successfully. Buy a developer a beer!
