                               Psi4 1.4a3.dev225

  ==> Input File <==

--------------------------------------------------------------------------
#psi4
#
memory 32 gb

molecule  {
0 1
  O       -0.1791250    -0.4779340     0.0014420
  O        1.2676250     1.2989270     0.0090110
  N        2.0163350    -0.8804990    -0.0657410
  C       -1.2686920     0.4722670    -0.0022460
  C       -2.5451940    -0.3377090     0.0025190
  C        1.0558770     0.0965110    -0.0009640
  H       -1.1847720     1.1155630     0.8776850
  H       -1.1852960     1.1054120    -0.8894660
  H       -3.4102260     0.3314020    -0.0008760
  H       -2.5967230    -0.9775020    -0.8809700
  H       -2.5969010    -0.9678970     0.8929970
  H        1.6558622    -1.7967772     0.1596568
  H        2.9498840    -0.5811480     0.1773000
units angstrom
no_reorient  #important for SAPT in psi4, default
symmetry c1  #important for SAPT in psi4, default
}

set PROPERTIES_ORIGIN ["COM"]
properties('MP2/aug-cc-pvtz', properties = ['dipole'])
--------------------------------------------------------------------------

    Molecular point group: c1
  Charge       = 0
  Multiplicity = 1
  Basis Set: AUG-CC-PVTZ
    Blend: AUG-CC-PVTZ
  Basis Set: (AUG-CC-PVTZ AUX)
    Blend: AUG-CC-PVTZ-JKFIT

    Orbital Energies [Eh]
    ---------------------

    Doubly Occupied:

       1A    -20.602236     2A    -20.528820     3A    -15.589223
       4A    -11.403716     5A    -11.288628     6A    -11.225290
       7A     -1.457438     8A     -1.350349     9A     -1.217551
      10A     -1.035407    11A     -0.874493    12A     -0.797538
      13A     -0.744083    14A     -0.705417    15A     -0.683719
      16A     -0.643837    17A     -0.598509    18A     -0.580794
      19A     -0.546826    20A     -0.521974    21A     -0.514631
      22A     -0.463241    23A     -0.455892    24A     -0.430182

  @DF-RHF Final Energy:  -322.01165176824662

   => Energetics <=

    Nuclear Repulsion Energy =            246.2698748465968492
    One-Electron Energy =                -928.0434669920595070
    Two-Electron Energy =                 359.7619403772160354
    Total Energy =                       -322.0116517682466224
  Basis Set: (AUG-CC-PVTZ AUX)
    Blend: AUG-CC-PVTZ-RI
    Molecular point group: c1

    Geometry (in Angstrom), charge = 0, multiplicity = 1:

       Center              X                  Y                   Z               Mass
    ------------   -----------------  -----------------  -----------------  -----------------
         O           -0.247978472004    -0.498036077811     0.006189060056    15.994914619570
         O            1.198771527996     1.278824922189     0.013758060056    15.994914619570
         N            1.947481527996    -0.900601077811    -0.060993939944    14.003074004430
         C           -1.337545472004     0.452164922189     0.002501060056    12.000000000000
         C           -2.614047472004    -0.357811077811     0.007266060056    12.000000000000
         C            0.987023527996     0.076408922189     0.003783060056    12.000000000000
         H           -1.253625472004     1.095460922189     0.882432060056     1.007825032230
         H           -1.254149472004     1.085309922189    -0.884718939944     1.007825032230
         H           -3.479079472004     0.311299922189     0.003871060056     1.007825032230
         H           -2.665576472004    -0.997604077811    -0.876222939944     1.007825032230
         H           -2.665754472004    -0.987999077811     0.897744060056     1.007825032230
         H            1.587008727996    -1.816879277811     0.164403860056     1.007825032230
         H            2.881030527996    -0.601250077811     0.182047060056     1.007825032230

  Basis Set: AUG-CC-PVTZ
    Blend: AUG-CC-PVTZ
  Basis Set: (AUG-CC-PVTZ AUX)
    Blend: AUG-CC-PVTZ-JKFIT
	 Reference Energy          =    -322.0116517682466224 [Eh]
	 Singles Energy            =      -0.0000000000000000 [Eh]
	 Same-Spin Energy          =      -0.3134107587009097 [Eh]
	 Opposite-Spin Energy      =      -0.9935656112156327 [Eh]
	 Correlation Energy        =      -1.3069763699165424 [Eh]
	 Total Energy              =    -323.3186281381631488 [Eh]

	 ================> DF-SCS-MP2 Energies <==================
	-----------------------------------------------------------
	 SCS Same-Spin Scale       =       0.3333333333333333 [-]
	 SCS Opposite-Spin Scale   =       1.2000000000000000 [-]
	 SCS Same-Spin Energy      =      -0.1044702529003032 [Eh]
	 SCS Opposite-Spin Energy  =      -1.1922787334587592 [Eh]
	 SCS Correlation Energy    =      -1.2967489863590624 [Eh]
	 SCS Total Energy          =    -323.3084007546056569 [Eh]
	-----------------------------------------------------------

  Dipole Moment: [D]
     X:    -0.6779      Y:    -2.1928      Z:     0.6556     Total:     2.3870

*** Psi4 exiting successfully. Buy a developer a beer!
