                               Psi4 1.4a3.dev225

  ==> Input File <==

--------------------------------------------------------------------------
#psi4
#
memory 32 gb

molecule  {
0 1
  O       -0.1791250    -0.4779340     0.0014420
  O        1.2676250     1.2989270     0.0090110
  N        2.0163350    -0.8804990    -0.0657410
  C       -1.2686920     0.4722670    -0.0022460
  C       -2.5451940    -0.3377090     0.0025190
  C        1.0558770     0.0965110    -0.0009640
  H       -1.1847720     1.1155630     0.8776850
  H       -1.1852960     1.1054120    -0.8894660
  H       -3.4497751     0.3619936    -0.0010312
  H       -2.5967230    -0.9775020    -0.8809700
  H       -2.5969010    -0.9678970     0.8929970
  H        1.7497370    -1.8166910     0.2040380
  H        2.9498840    -0.5811480     0.1773000
units angstrom
no_reorient  #important for SAPT in psi4, default
symmetry c1  #important for SAPT in psi4, default
}

set PROPERTIES_ORIGIN ["COM"]
properties('MP2/aug-cc-pvtz', properties = ['dipole'])
--------------------------------------------------------------------------

    Molecular point group: c1
  Charge       = 0
  Multiplicity = 1
  Basis Set: AUG-CC-PVTZ
    Blend: AUG-CC-PVTZ
  Basis Set: (AUG-CC-PVTZ AUX)
    Blend: AUG-CC-PVTZ-JKFIT

    Orbital Energies [Eh]
    ---------------------

    Doubly Occupied:

       1A    -20.602032     2A    -20.530430     3A    -15.589591
       4A    -11.405968     5A    -11.288621     6A    -11.230963
       7A     -1.457358     8A     -1.351157     9A     -1.217153
      10A     -1.033408    11A     -0.872472    12A     -0.800234
      13A     -0.744638    14A     -0.700804    15A     -0.683645
      16A     -0.642344    17A     -0.599002    18A     -0.580583
      19A     -0.536802    20A     -0.522464    21A     -0.514632
      22A     -0.463311    23A     -0.457698    24A     -0.431283

  @DF-RHF Final Energy:  -322.01064204262173

   => Energetics <=

    Nuclear Repulsion Energy =            245.8968909885911387
    One-Electron Energy =                -927.3018838548737222
    Two-Electron Energy =                 359.3943508236608295
    Total Energy =                       -322.0106420426217255
  Basis Set: (AUG-CC-PVTZ AUX)
    Blend: AUG-CC-PVTZ-RI
    Molecular point group: c1

    Geometry (in Angstrom), charge = 0, multiplicity = 1:

       Center              X                  Y                   Z               Mass
    ------------   -----------------  -----------------  -----------------  -----------------
         O           -0.248593320154    -0.498156927162     0.005688518429    15.994914619570
         O            1.198156679846     1.278704072838     0.013257518429    15.994914619570
         N            1.946866679846    -0.900721927162    -0.061494481571    14.003074004430
         C           -1.338160320154     0.452044072838     0.002000518429    12.000000000000
         C           -2.614662320154    -0.357931927162     0.006765518429    12.000000000000
         C            0.986408679846     0.076288072838     0.003282518429    12.000000000000
         H           -1.254240320154     1.095340072838     0.881931518429     1.007825032230
         H           -1.254764320154     1.085189072838    -0.885219481571     1.007825032230
         H           -3.519243420154     0.341770672838     0.003215318429     1.007825032230
         H           -2.666191320154    -0.997724927162    -0.876723481571     1.007825032230
         H           -2.666369320154    -0.988119927162     0.897243518429     1.007825032230
         H            1.680268679846    -1.836913927162     0.208284518429     1.007825032230
         H            2.880415679846    -0.601370927162     0.181546518429     1.007825032230

  Basis Set: AUG-CC-PVTZ
    Blend: AUG-CC-PVTZ
  Basis Set: (AUG-CC-PVTZ AUX)
    Blend: AUG-CC-PVTZ-JKFIT
	 Reference Energy          =    -322.0106420426217255 [Eh]
	 Singles Energy            =      -0.0000000000000000 [Eh]
	 Same-Spin Energy          =      -0.3132806035451773 [Eh]
	 Opposite-Spin Energy      =      -0.9938232970051604 [Eh]
	 Correlation Energy        =      -1.3071039005503375 [Eh]
	 Total Energy              =    -323.3177459431720422 [Eh]

	 ================> DF-SCS-MP2 Energies <==================
	-----------------------------------------------------------
	 SCS Same-Spin Scale       =       0.3333333333333333 [-]
	 SCS Opposite-Spin Scale   =       1.2000000000000000 [-]
	 SCS Same-Spin Energy      =      -0.1044268678483924 [Eh]
	 SCS Opposite-Spin Energy  =      -1.1925879564061923 [Eh]
	 SCS Correlation Energy    =      -1.2970148242545847 [Eh]
	 SCS Total Energy          =    -323.3076568668763002 [Eh]
	-----------------------------------------------------------

  Dipole Moment: [D]
     X:    -0.5855      Y:    -2.2099      Z:     0.7154     Total:     2.3955

*** Psi4 exiting successfully. Buy a developer a beer!
