                               Psi4 1.4a3.dev225

  ==> Input File <==

--------------------------------------------------------------------------
#psi4
#
memory 32 gb

molecule  {
0 1
  O       -0.1791250    -0.4779340     0.0014420
  O        1.2676250     1.2989270     0.0090110
  N        2.0163350    -0.8804990    -0.0657410
  C       -1.2686920     0.4722670    -0.0022460
  C       -2.5451940    -0.3377090     0.0025190
  C        1.0558770     0.0965110    -0.0009640
  H       -1.1847720     1.1155630     0.8776850
  H       -1.1852960     1.1054120    -0.8894660
  H       -3.5684223     0.4537684    -0.0014969
  H       -2.5967230    -0.9775020    -0.8809700
  H       -2.5969010    -0.9678970     0.8929970
  H        1.7497370    -1.8166910     0.2040380
  H        2.9498840    -0.5811480     0.1773000
units angstrom
no_reorient  #important for SAPT in psi4, default
symmetry c1  #important for SAPT in psi4, default
}

set PROPERTIES_ORIGIN ["COM"]
properties('MP2/aug-cc-pvtz', properties = ['dipole'])
--------------------------------------------------------------------------

    Molecular point group: c1
  Charge       = 0
  Multiplicity = 1
  Basis Set: AUG-CC-PVTZ
    Blend: AUG-CC-PVTZ
  Basis Set: (AUG-CC-PVTZ AUX)
    Blend: AUG-CC-PVTZ-JKFIT

    Orbital Energies [Eh]
    ---------------------

    Doubly Occupied:

       1A    -20.603610     2A    -20.531390     3A    -15.590475
       4A    -11.407175     5A    -11.290438     6A    -11.248113
       7A     -1.458725     8A     -1.352329     9A     -1.218083
      10A     -1.030575    11A     -0.866746    12A     -0.801198
      13A     -0.745002    14A     -0.701081    15A     -0.685163
      16A     -0.642275    17A     -0.600840    18A     -0.581382
      19A     -0.524749    20A     -0.518287    21A     -0.506309
      22A     -0.464592    23A     -0.457905    24A     -0.432088

  @DF-RHF Final Energy:  -321.99273207854185

   => Energetics <=

    Nuclear Repulsion Energy =            245.3453662553283436
    One-Electron Energy =                -926.1591321702226196
    Two-Electron Energy =                 358.8210338363523988
    Total Energy =                       -321.9927320785418488
  Basis Set: (AUG-CC-PVTZ AUX)
    Blend: AUG-CC-PVTZ-RI
    Molecular point group: c1

    Geometry (in Angstrom), charge = 0, multiplicity = 1:

       Center              X                  Y                   Z               Mass
    ------------   -----------------  -----------------  -----------------  -----------------
         O           -0.247250493253    -0.499195617248     0.005693789135    15.994914619570
         O            1.199499506747     1.277665382752     0.013262789135    15.994914619570
         N            1.948209506747    -0.901760617248    -0.061489210865    14.003074004430
         C           -1.336817493253     0.451005382752     0.002005789135    12.000000000000
         C           -2.613319493253    -0.358970617248     0.006770789135    12.000000000000
         C            0.987751506747     0.075249382752     0.003287789135    12.000000000000
         H           -1.252897493253     1.094301382752     0.881936789135     1.007825032230
         H           -1.253421493253     1.084150382752    -0.885214210865     1.007825032230
         H           -3.636547793253     0.432506782752     0.002754889135     1.007825032230
         H           -2.664848493253    -0.998763617248    -0.876718210865     1.007825032230
         H           -2.665026493253    -0.989158617248     0.897248789135     1.007825032230
         H            1.681611506747    -1.837952617248     0.208289789135     1.007825032230
         H            2.881758506747    -0.602409617248     0.181551789135     1.007825032230

  Basis Set: AUG-CC-PVTZ
    Blend: AUG-CC-PVTZ
  Basis Set: (AUG-CC-PVTZ AUX)
    Blend: AUG-CC-PVTZ-JKFIT
	 Reference Energy          =    -321.9927320785418488 [Eh]
	 Singles Energy            =      -0.0000000000000000 [Eh]
	 Same-Spin Energy          =      -0.3131714418600267 [Eh]
	 Opposite-Spin Energy      =      -0.9949549050426124 [Eh]
	 Correlation Energy        =      -1.3081263469026392 [Eh]
	 Total Energy              =    -323.3008584254444600 [Eh]

	 ================> DF-SCS-MP2 Energies <==================
	-----------------------------------------------------------
	 SCS Same-Spin Scale       =       0.3333333333333333 [-]
	 SCS Opposite-Spin Scale   =       1.2000000000000000 [-]
	 SCS Same-Spin Energy      =      -0.1043904806200089 [Eh]
	 SCS Opposite-Spin Energy  =      -1.1939458860511349 [Eh]
	 SCS Correlation Energy    =      -1.2983363666711438 [Eh]
	 SCS Total Energy          =    -323.2910684452129999 [Eh]
	-----------------------------------------------------------

  Dipole Moment: [D]
     X:    -0.4845      Y:    -2.2549      Z:     0.7155     Total:     2.4148

*** Psi4 exiting successfully. Buy a developer a beer!
