                               Psi4 1.4a3.dev225

  ==> Input File <==

--------------------------------------------------------------------------
#psi4
#
memory 32 gb

molecule  {
0 1
  O       -0.1958744    -0.4968046     0.0015435
  O        1.2676250     1.2989270     0.0090110
  N        2.0163350    -0.8804990    -0.0657410
  C       -1.2686920     0.4722670    -0.0022460
  C       -2.5451940    -0.3377090     0.0025190
  C        1.0558770     0.0965110    -0.0009640
  H       -1.1847720     1.1155630     0.8776850
  H       -1.1852960     1.1054120    -0.8894660
  H       -3.4102260     0.3314020    -0.0008760
  H       -2.5967230    -0.9775020    -0.8809700
  H       -2.5969010    -0.9678970     0.8929970
  H        1.7497370    -1.8166910     0.2040380
  H        2.9498840    -0.5811480     0.1773000
units angstrom
no_reorient  #important for SAPT in psi4, default
symmetry c1  #important for SAPT in psi4, default
}

set PROPERTIES_ORIGIN ["COM"]
properties('MP2/aug-cc-pvtz', properties = ['dipole'])
--------------------------------------------------------------------------

    Molecular point group: c1
  Charge       = 0
  Multiplicity = 1
  Basis Set: AUG-CC-PVTZ
    Blend: AUG-CC-PVTZ
  Basis Set: (AUG-CC-PVTZ AUX)
    Blend: AUG-CC-PVTZ-JKFIT

    Orbital Energies [Eh]
    ---------------------

    Doubly Occupied:

       1A    -20.601444     2A    -20.534246     3A    -15.591075
       4A    -11.408674     5A    -11.286458     6A    -11.223203
       7A     -1.450560     8A     -1.352012     9A     -1.218052
      10A     -1.032058    11A     -0.871087    12A     -0.801479
      13A     -0.744411    14A     -0.698858    15A     -0.680337
      16A     -0.643297    17A     -0.597284    18A     -0.581268
      19A     -0.543159    20A     -0.521687    21A     -0.513900
      22A     -0.463229    23A     -0.459176    24A     -0.432369

  @DF-RHF Final Energy:  -322.01014481016784

   => Energetics <=

    Nuclear Repulsion Energy =            245.6294728422467415
    One-Electron Energy =                -926.7805877899364759
    Two-Electron Energy =                 359.1409701375218901
    Total Energy =                       -322.0101448101678443
  Basis Set: (AUG-CC-PVTZ AUX)
    Blend: AUG-CC-PVTZ-RI
    Molecular point group: c1

    Geometry (in Angstrom), charge = 0, multiplicity = 1:

       Center              X                  Y                   Z               Mass
    ------------   -----------------  -----------------  -----------------  -----------------
         O           -0.262781770179    -0.513291723806     0.005770030280    15.994914619570
         O            1.200717629821     1.282439876194     0.013237530280    15.994914619570
         N            1.949427629821    -0.896986123806    -0.061514469720    14.003074004430
         C           -1.335599370179     0.455779876194     0.001980530280    12.000000000000
         C           -2.612101370179    -0.354196123806     0.006745530280    12.000000000000
         C            0.988969629821     0.080023876194     0.003262530280    12.000000000000
         H           -1.251679370179     1.099075876194     0.881911530280     1.007825032230
         H           -1.252203370179     1.088924876194    -0.885239469720     1.007825032230
         H           -3.477133370179     0.314914876194     0.003350530280     1.007825032230
         H           -2.663630370179    -0.993989123806    -0.876743469720     1.007825032230
         H           -2.663808370179    -0.984384123806     0.897223530280     1.007825032230
         H            1.682829629821    -1.833178123806     0.208264530280     1.007825032230
         H            2.882976629821    -0.597635123806     0.181526530280     1.007825032230

  Basis Set: AUG-CC-PVTZ
    Blend: AUG-CC-PVTZ
  Basis Set: (AUG-CC-PVTZ AUX)
    Blend: AUG-CC-PVTZ-JKFIT
	 Reference Energy          =    -322.0101448101678443 [Eh]
	 Singles Energy            =      -0.0000000000000000 [Eh]
	 Same-Spin Energy          =      -0.3137398699767870 [Eh]
	 Opposite-Spin Energy      =      -0.9946862173710904 [Eh]
	 Correlation Energy        =      -1.3084260873478775 [Eh]
	 Total Energy              =    -323.3185708975157127 [Eh]

	 ================> DF-SCS-MP2 Energies <==================
	-----------------------------------------------------------
	 SCS Same-Spin Scale       =       0.3333333333333333 [-]
	 SCS Opposite-Spin Scale   =       1.2000000000000000 [-]
	 SCS Same-Spin Energy      =      -0.1045799566589290 [Eh]
	 SCS Opposite-Spin Energy  =      -1.1936234608453085 [Eh]
	 SCS Correlation Energy    =      -1.2982034175042374 [Eh]
	 SCS Total Energy          =    -323.3083482276720702 [Eh]
	-----------------------------------------------------------

  Dipole Moment: [D]
     X:    -0.4567      Y:    -2.1386      Z:     0.7136     Total:     2.3003

*** Psi4 exiting successfully. Buy a developer a beer!
