                               Psi4 1.4a3.dev225

  ==> Input File <==

--------------------------------------------------------------------------
#psi4
#
memory 32 gb

molecule  {
0 1
  O       -0.1791250    -0.4779340     0.0014420
  O        1.2676250     1.2989270     0.0090110
  N        2.0163350    -0.8804990    -0.0657410
  C       -1.2686920     0.4722670    -0.0022460
  C       -2.5451940    -0.3377090     0.0025190
  C        1.0558770     0.0965110    -0.0009640
  H       -1.1847720     1.1155630     0.8776850
  H       -1.1852960     1.1054120    -0.8894660
  H       -3.4102260     0.3314020    -0.0008760
  H       -2.5967230    -0.9775020    -0.8809700
  H       -2.5969010    -0.9678970     0.8929970
  H        1.7444584    -1.8352275     0.2093796
  H        2.9498840    -0.5811480     0.1773000
units angstrom
no_reorient  #important for SAPT in psi4, default
symmetry c1  #important for SAPT in psi4, default
}

set PROPERTIES_ORIGIN ["COM"]
properties('MP2/aug-cc-pvtz', properties = ['dipole'])
--------------------------------------------------------------------------

    Molecular point group: c1
  Charge       = 0
  Multiplicity = 1
  Basis Set: AUG-CC-PVTZ
    Blend: AUG-CC-PVTZ
  Basis Set: (AUG-CC-PVTZ AUX)
    Blend: AUG-CC-PVTZ-JKFIT

    Orbital Energies [Eh]
    ---------------------

    Doubly Occupied:

       1A    -20.601453     2A    -20.530112     3A    -15.591046
       4A    -11.405529     5A    -11.288041     6A    -11.224834
       7A     -1.456777     8A     -1.350739     9A     -1.214195
      10A     -1.035014    11A     -0.874919    12A     -0.799186
      13A     -0.740841    14A     -0.700170    15A     -0.683130
      16A     -0.641020    17A     -0.598402    18A     -0.580645
      19A     -0.546072    20A     -0.521751    21A     -0.514015
      22A     -0.462852    23A     -0.457316    24A     -0.430651

  @DF-RHF Final Energy:  -322.01168421851617

   => Energetics <=

    Nuclear Repulsion Energy =            246.0022295744948906
    One-Electron Energy =                -927.5304091548006227
    Two-Electron Energy =                 359.5164953617895662
    Total Energy =                       -322.0116842185161659
  Basis Set: (AUG-CC-PVTZ AUX)
    Blend: AUG-CC-PVTZ-RI
    Molecular point group: c1

    Geometry (in Angstrom), charge = 0, multiplicity = 1:

       Center              X                  Y                   Z               Mass
    ------------   -----------------  -----------------  -----------------  -----------------
         O           -0.248981187288    -0.497600904481     0.005626306671    15.994914619570
         O            1.197768812712     1.279260095519     0.013195306671    15.994914619570
         N            1.946478812712    -0.900165904481    -0.061556693329    14.003074004430
         C           -1.338548187288     0.452600095519     0.001938306671    12.000000000000
         C           -2.615050187288    -0.357375904481     0.006703306671    12.000000000000
         C            0.986020812712     0.076844095519     0.003220306671    12.000000000000
         H           -1.254628187288     1.095896095519     0.881869306671     1.007825032230
         H           -1.255152187288     1.085745095519    -0.885281693329     1.007825032230
         H           -3.480082187288     0.311735095519     0.003308306671     1.007825032230
         H           -2.666579187288    -0.997168904481    -0.876785693329     1.007825032230
         H           -2.666757187288    -0.987563904481     0.897181306671     1.007825032230
         H            1.674602212712    -1.854894404481     0.213563906671     1.007825032230
         H            2.880027812712    -0.600814904481     0.181484306671     1.007825032230

  Basis Set: AUG-CC-PVTZ
    Blend: AUG-CC-PVTZ
  Basis Set: (AUG-CC-PVTZ AUX)
    Blend: AUG-CC-PVTZ-JKFIT
	 Reference Energy          =    -322.0116842185161659 [Eh]
	 Singles Energy            =      -0.0000000000000000 [Eh]
	 Same-Spin Energy          =      -0.3134317360397487 [Eh]
	 Opposite-Spin Energy      =      -0.9938477863704566 [Eh]
	 Correlation Energy        =      -1.3072795224102052 [Eh]
	 Total Energy              =    -323.3189637409263923 [Eh]

	 ================> DF-SCS-MP2 Energies <==================
	-----------------------------------------------------------
	 SCS Same-Spin Scale       =       0.3333333333333333 [-]
	 SCS Opposite-Spin Scale   =       1.2000000000000000 [-]
	 SCS Same-Spin Energy      =      -0.1044772453465829 [Eh]
	 SCS Opposite-Spin Energy  =      -1.1926173436445477 [Eh]
	 SCS Correlation Energy    =      -1.2970945889911307 [Eh]
	 SCS Total Energy          =    -323.3087788075072808 [Eh]
	-----------------------------------------------------------

  Dipole Moment: [D]
     X:    -0.6165      Y:    -2.2158      Z:     0.7195     Total:     2.4099

*** Psi4 exiting successfully. Buy a developer a beer!
