                               Psi4 1.4a3.dev225

  ==> Input File <==

--------------------------------------------------------------------------
#psi4
#
memory 32 gb

molecule  {
0 1
  O       -0.1791250    -0.4779340     0.0014420
  O        1.2676250     1.2989270     0.0090110
  N        2.0163350    -0.8804990    -0.0657410
  C       -1.2686920     0.4722670    -0.0022460
  C       -2.5451940    -0.3377090     0.0025190
  C        0.9947558     0.0296778     0.0300627
  H       -1.1847720     1.1155630     0.8776850
  H       -1.1852960     1.1054120    -0.8894660
  H       -3.4102260     0.3314020    -0.0008760
  H       -2.5967230    -0.9775020    -0.8809700
  H       -2.5969010    -0.9678970     0.8929970
  H        1.7497370    -1.8166910     0.2040380
  H        2.9498840    -0.5811480     0.1773000
units angstrom
no_reorient  #important for SAPT in psi4, default
symmetry c1  #important for SAPT in psi4, default
}

set PROPERTIES_ORIGIN ["COM"]
properties('MP2/aug-cc-pvtz', properties = ['dipole'])
--------------------------------------------------------------------------

    Molecular point group: c1
  Charge       = 0
  Multiplicity = 1
  Basis Set: AUG-CC-PVTZ
    Blend: AUG-CC-PVTZ
  Basis Set: (AUG-CC-PVTZ AUX)
    Blend: AUG-CC-PVTZ-JKFIT

    Orbital Energies [Eh]
    ---------------------

    Doubly Occupied:

       1A    -20.621578     2A    -20.509551     3A    -15.589887
       4A    -11.406860     5A    -11.298748     6A    -11.231468
       7A     -1.489516     8A     -1.309933     9A     -1.211163
      10A     -1.051448    11A     -0.892579    12A     -0.806325
      13A     -0.744186    14A     -0.713321    15A     -0.699761
      16A     -0.641099    17A     -0.601084    18A     -0.565803
      19A     -0.555508    20A     -0.522215    21A     -0.518873
      22A     -0.467565    23A     -0.436764    24A     -0.415307

  @DF-RHF Final Energy:  -321.99873274560787

   => Energetics <=

    Nuclear Repulsion Energy =            246.4107963733198119
    One-Electron Energy =                -928.2179802901117682
    Two-Electron Energy =                 359.8084511711840605
    Total Energy =                       -321.9987327456078674
  Basis Set: (AUG-CC-PVTZ AUX)
    Blend: AUG-CC-PVTZ-RI
    Molecular point group: c1

    Geometry (in Angstrom), charge = 0, multiplicity = 1:

       Center              X                  Y                   Z               Mass
    ------------   -----------------  -----------------  -----------------  -----------------
         O           -0.240804281305    -0.488804303999     0.001505626513    15.994914619570
         O            1.205945718695     1.288056696001     0.009074626513    15.994914619570
         N            1.954655718695    -0.891369303999    -0.065677373487    14.003074004430
         C           -1.330371281305     0.461396696001    -0.002182373487    12.000000000000
         C           -2.606873281305    -0.348579303999     0.002582626513    12.000000000000
         C            0.933076518695     0.018807496001     0.030126326513    12.000000000000
         H           -1.246451281305     1.104692696001     0.877748626513     1.007825032230
         H           -1.246975281305     1.094541696001    -0.889402373487     1.007825032230
         H           -3.471905281305     0.320531696001    -0.000812373487     1.007825032230
         H           -2.658402281305    -0.988372303999    -0.880906373487     1.007825032230
         H           -2.658580281305    -0.978767303999     0.893060626513     1.007825032230
         H            1.688057718695    -1.827561303999     0.204101626513     1.007825032230
         H            2.888204718695    -0.592018303999     0.177363626513     1.007825032230

  Basis Set: AUG-CC-PVTZ
    Blend: AUG-CC-PVTZ
  Basis Set: (AUG-CC-PVTZ AUX)
    Blend: AUG-CC-PVTZ-JKFIT
	 Reference Energy          =    -321.9987327456078674 [Eh]
	 Singles Energy            =      -0.0000000000000000 [Eh]
	 Same-Spin Energy          =      -0.3138456338771595 [Eh]
	 Opposite-Spin Energy      =      -0.9943298136606606 [Eh]
	 Correlation Energy        =      -1.3081754475378200 [Eh]
	 Total Energy              =    -323.3069081931456594 [Eh]

	 ================> DF-SCS-MP2 Energies <==================
	-----------------------------------------------------------
	 SCS Same-Spin Scale       =       0.3333333333333333 [-]
	 SCS Opposite-Spin Scale   =       1.2000000000000000 [-]
	 SCS Same-Spin Energy      =      -0.1046152112923865 [Eh]
	 SCS Opposite-Spin Energy  =      -1.1931957763927927 [Eh]
	 SCS Correlation Energy    =      -1.2978109876851791 [Eh]
	 SCS Total Energy          =    -323.2965437332930492 [Eh]
	-----------------------------------------------------------

  Dipole Moment: [D]
     X:    -1.2994      Y:    -2.6880      Z:     0.7437     Total:     3.0769

*** Psi4 exiting successfully. Buy a developer a beer!
