                               Psi4 1.4a3.dev225

  ==> Input File <==

--------------------------------------------------------------------------
#psi4
#
memory 32 gb

molecule  {
0 1
  O       -0.1791250    -0.4779340     0.0014420
  O        1.2676250     1.2989270     0.0090110
  N        2.0163350    -0.8804990    -0.0657410
  C       -1.2686920     0.4722670    -0.0022460
  C       -2.4607581    -0.2841321     0.0022038
  C        1.0558770     0.0965110    -0.0009640
  H       -1.1847720     1.1155630     0.8776850
  H       -1.1852960     1.1054120    -0.8894660
  H       -3.4102260     0.3314020    -0.0008760
  H       -2.5967230    -0.9775020    -0.8809700
  H       -2.5969010    -0.9678970     0.8929970
  H        1.7497370    -1.8166910     0.2040380
  H        2.9498840    -0.5811480     0.1773000
units angstrom
no_reorient  #important for SAPT in psi4, default
symmetry c1  #important for SAPT in psi4, default
}

set PROPERTIES_ORIGIN ["COM"]
properties('MP2/aug-cc-pvtz', properties = ['dipole'])
--------------------------------------------------------------------------

    Molecular point group: c1
  Charge       = 0
  Multiplicity = 1
  Basis Set: AUG-CC-PVTZ
    Blend: AUG-CC-PVTZ
  Basis Set: (AUG-CC-PVTZ AUX)
    Blend: AUG-CC-PVTZ-JKFIT

    Orbital Energies [Eh]
    ---------------------

    Doubly Occupied:

       1A    -20.601813     2A    -20.530421     3A    -15.589531
       4A    -11.405885     5A    -11.283806     6A    -11.229650
       7A     -1.458070     8A     -1.351928     9A     -1.217524
      10A     -1.055429    11A     -0.867340    12A     -0.801368
      13A     -0.745943    14A     -0.702434    15A     -0.687198
      16A     -0.643850    17A     -0.599770    18A     -0.588263
      19A     -0.550200    20A     -0.515540    21A     -0.505996
      22A     -0.459415    23A     -0.457263    24A     -0.430999

  @DF-RHF Final Energy:  -322.00069113263197

   => Energetics <=

    Nuclear Repulsion Energy =            247.5810781000767236
    One-Electron Energy =                -930.6042660041589443
    Two-Electron Energy =                 361.0224967714502213
    Total Energy =                       -322.0006911326319710
  Basis Set: (AUG-CC-PVTZ AUX)
    Blend: AUG-CC-PVTZ-RI
    Molecular point group: c1

    Geometry (in Angstrom), charge = 0, multiplicity = 1:

       Center              X                  Y                   Z               Mass
    ------------   -----------------  -----------------  -----------------  -----------------
         O           -0.260419449606    -0.505030680979     0.005729238026    15.994914619570
         O            1.186330550394     1.271830319021     0.013298238026    15.994914619570
         N            1.935040550394    -0.907595680979    -0.061453761974    14.003074004430
         C           -1.349986449606     0.445170319021     0.002041238026    12.000000000000
         C           -2.542052549606    -0.311228780979     0.006491038026    12.000000000000
         C            0.974582550394     0.069414319021     0.003323238026    12.000000000000
         H           -1.266066449606     1.088466319021     0.881972238026     1.007825032230
         H           -1.266590449606     1.078315319021    -0.885178761974     1.007825032230
         H           -3.491520449606     0.304305319021     0.003411238026     1.007825032230
         H           -2.678017449606    -1.004598680979    -0.876682761974     1.007825032230
         H           -2.678195449606    -0.994993680979     0.897284238026     1.007825032230
         H            1.668442550394    -1.843787680979     0.208325238026     1.007825032230
         H            2.868589550394    -0.608244680979     0.181587238026     1.007825032230

  Basis Set: AUG-CC-PVTZ
    Blend: AUG-CC-PVTZ
  Basis Set: (AUG-CC-PVTZ AUX)
    Blend: AUG-CC-PVTZ-JKFIT
	 Reference Energy          =    -322.0006911326319710 [Eh]
	 Singles Energy            =      -0.0000000000000000 [Eh]
	 Same-Spin Energy          =      -0.3143204370094487 [Eh]
	 Opposite-Spin Energy      =      -0.9946567920295830 [Eh]
	 Correlation Energy        =      -1.3089772290390318 [Eh]
	 Total Energy              =    -323.3096683616710152 [Eh]

	 ================> DF-SCS-MP2 Energies <==================
	-----------------------------------------------------------
	 SCS Same-Spin Scale       =       0.3333333333333333 [-]
	 SCS Opposite-Spin Scale   =       1.2000000000000000 [-]
	 SCS Same-Spin Energy      =      -0.1047734790031496 [Eh]
	 SCS Opposite-Spin Energy  =      -1.1935881504354995 [Eh]
	 SCS Correlation Energy    =      -1.2983616294386491 [Eh]
	 SCS Total Energy          =    -323.2990527620706303 [Eh]
	-----------------------------------------------------------

  Dipole Moment: [D]
     X:    -0.6448      Y:    -2.1943      Z:     0.7148     Total:     2.3962

*** Psi4 exiting successfully. Buy a developer a beer!
