                               Psi4 1.4a3.dev225

  ==> Input File <==

--------------------------------------------------------------------------
#psi4
#
memory 32 gb

molecule  {
0 1
  O       -0.1791250    -0.4779340     0.0014420
  O        1.2676250     1.2989270     0.0090110
  N        2.0163350    -0.8804990    -0.0657410
  C       -1.2686920     0.4722670    -0.0022460
  C       -2.5451940    -0.3377090     0.0025190
  C        1.0558770     0.0965110    -0.0009640
  H       -1.1847720     1.1155630     0.8776850
  H       -1.1852960     1.1054120    -0.8894660
  H       -3.3311278     0.2702188    -0.0005656
  H       -2.5967230    -0.9775020    -0.8809700
  H       -2.5969010    -0.9678970     0.8929970
  H        1.7497370    -1.8166910     0.2040380
  H        2.9498840    -0.5811480     0.1773000
units angstrom
no_reorient  #important for SAPT in psi4, default
symmetry c1  #important for SAPT in psi4, default
}

set PROPERTIES_ORIGIN ["COM"]
properties('MP2/aug-cc-pvtz', properties = ['dipole'])
--------------------------------------------------------------------------

    Molecular point group: c1
  Charge       = 0
  Multiplicity = 1
  Basis Set: AUG-CC-PVTZ
    Blend: AUG-CC-PVTZ
  Basis Set: (AUG-CC-PVTZ AUX)
    Blend: AUG-CC-PVTZ-JKFIT

    Orbital Energies [Eh]
    ---------------------

    Doubly Occupied:

       1A    -20.600944     2A    -20.529761     3A    -15.588970
       4A    -11.405097     5A    -11.287351     6A    -11.212324
       7A     -1.456388     8A     -1.350328     9A     -1.216506
      10A     -1.040448    11A     -0.882586    12A     -0.799801
      13A     -0.744818    14A     -0.701400    15A     -0.682644
      16A     -0.643433    17A     -0.597814    18A     -0.583077
      19A     -0.562706    20A     -0.520932    21A     -0.513122
      22A     -0.462443    23A     -0.457337    24A     -0.430717

  @DF-RHF Final Energy:  -322.00653399797216

   => Energetics <=

    Nuclear Repulsion Energy =            246.5601201626308807
    One-Electron Energy =                -928.5914156196431577
    Two-Electron Energy =                 360.0247614590400644
    Total Energy =                       -322.0065339979721557
  Basis Set: (AUG-CC-PVTZ AUX)
    Blend: AUG-CC-PVTZ-RI
    Molecular point group: c1

    Geometry (in Angstrom), charge = 0, multiplicity = 1:

       Center              X                  Y                   Z               Mass
    ------------   -----------------  -----------------  -----------------  -----------------
         O           -0.249936148188    -0.497118237077     0.005683248855    15.994914619570
         O            1.196813851812     1.279742762923     0.013252248855    15.994914619570
         N            1.945523851812    -0.899683237077    -0.061499751145    14.003074004430
         C           -1.339503148188     0.453082762923     0.001995248855    12.000000000000
         C           -2.616005148188    -0.356893237077     0.006760248855    12.000000000000
         C            0.985065851812     0.077326762923     0.003277248855    12.000000000000
         H           -1.255583148188     1.096378762923     0.881926248855     1.007825032230
         H           -1.256107148188     1.086227762923    -0.885224751145     1.007825032230
         H           -3.401938948188     0.251034562923     0.003675648855     1.007825032230
         H           -2.667534148188    -0.996686237077    -0.876728751145     1.007825032230
         H           -2.667712148188    -0.987081237077     0.897238248855     1.007825032230
         H            1.678925851812    -1.835875237077     0.208279248855     1.007825032230
         H            2.879072851812    -0.600332237077     0.181541248855     1.007825032230

  Basis Set: AUG-CC-PVTZ
    Blend: AUG-CC-PVTZ
  Basis Set: (AUG-CC-PVTZ AUX)
    Blend: AUG-CC-PVTZ-JKFIT
	 Reference Energy          =    -322.0065339979721557 [Eh]
	 Singles Energy            =      -0.0000000000000000 [Eh]
	 Same-Spin Energy          =      -0.3134014525007756 [Eh]
	 Opposite-Spin Energy      =      -0.9931112223026169 [Eh]
	 Correlation Energy        =      -1.3065126748033924 [Eh]
	 Total Energy              =    -323.3130466727755561 [Eh]

	 ================> DF-SCS-MP2 Energies <==================
	-----------------------------------------------------------
	 SCS Same-Spin Scale       =       0.3333333333333333 [-]
	 SCS Opposite-Spin Scale   =       1.2000000000000000 [-]
	 SCS Same-Spin Energy      =      -0.1044671508335918 [Eh]
	 SCS Opposite-Spin Energy  =      -1.1917334667631403 [Eh]
	 SCS Correlation Energy    =      -1.2962006175967322 [Eh]
	 SCS Total Energy          =    -323.3027346155689088 [Eh]
	-----------------------------------------------------------

  Dipole Moment: [D]
     X:    -0.6574      Y:    -2.1783      Z:     0.7153     Total:     2.3851

*** Psi4 exiting successfully. Buy a developer a beer!
