                               Psi4 1.4a3.dev225

  ==> Input File <==

--------------------------------------------------------------------------
#psi4
#
memory 32 gb

molecule  {
0 1
  O       -0.1337290    -0.4143332    -0.1281465
  O        1.2676250     1.2989270     0.0090110
  N        2.0163350    -0.8804990    -0.0657410
  C       -1.2686920     0.4722670    -0.0022460
  C       -2.5451940    -0.3377090     0.0025190
  C        1.0558770     0.0965110    -0.0009640
  H       -1.1847720     1.1155630     0.8776850
  H       -1.1852960     1.1054120    -0.8894660
  H       -3.4102260     0.3314020    -0.0008760
  H       -2.5967230    -0.9775020    -0.8809700
  H       -2.5969010    -0.9678970     0.8929970
  H        1.7497370    -1.8166910     0.2040380
  H        2.9498840    -0.5811480     0.1773000
units angstrom
no_reorient  #important for SAPT in psi4, default
symmetry c1  #important for SAPT in psi4, default
}

set PROPERTIES_ORIGIN ["COM"]
properties('MP2/aug-cc-pvtz', properties = ['dipole'])
--------------------------------------------------------------------------

    Molecular point group: c1
  Charge       = 0
  Multiplicity = 1
  Basis Set: AUG-CC-PVTZ
    Blend: AUG-CC-PVTZ
  Basis Set: (AUG-CC-PVTZ AUX)
    Blend: AUG-CC-PVTZ-JKFIT

    Orbital Energies [Eh]
    ---------------------

    Doubly Occupied:

       1A    -20.600634     2A    -20.518182     3A    -15.585436
       4A    -11.396629     5A    -11.292758     6A    -11.229559
       7A     -1.477222     8A     -1.345151     9A     -1.214311
      10A     -1.043822    11A     -0.888063    12A     -0.795586
      13A     -0.746020    14A     -0.705790    15A     -0.691587
      16A     -0.641346    17A     -0.601054    18A     -0.579490
      19A     -0.555413    20A     -0.521817    21A     -0.513432
      22A     -0.459413    23A     -0.451621    24A     -0.427346

  @DF-RHF Final Energy:  -322.01157931803192

   => Energetics <=

    Nuclear Repulsion Energy =            247.4321503067850756
    One-Electron Energy =                -930.3240970660638141
    Two-Electron Energy =                 360.8803674412468467
    Total Energy =                       -322.0115793180319201
  Basis Set: (AUG-CC-PVTZ AUX)
    Blend: AUG-CC-PVTZ-RI
    Molecular point group: c1

    Geometry (in Angstrom), charge = 0, multiplicity = 1:

       Center              X                  Y                   Z               Mass
    ------------   -----------------  -----------------  -----------------  -----------------
         O           -0.211799045996    -0.445633994687    -0.100624803438    15.994914619570
         O            1.189554954004     1.267626205313     0.036532696562    15.994914619570
         N            1.938264954004    -0.911799794687    -0.038219303438    14.003074004430
         C           -1.346762045996     0.440966205313     0.025275696562    12.000000000000
         C           -2.623264045996    -0.369009794687     0.030040696562    12.000000000000
         C            0.977806954004     0.065210205313     0.026557696562    12.000000000000
         H           -1.262842045996     1.084262205313     0.905206696562     1.007825032230
         H           -1.263366045996     1.074111205313    -0.861944303438     1.007825032230
         H           -3.488296045996     0.300101205313     0.026645696562     1.007825032230
         H           -2.674793045996    -1.008802794687    -0.853448303438     1.007825032230
         H           -2.674971045996    -0.999197794687     0.920518696562     1.007825032230
         H            1.671666954004    -1.847991794687     0.231559696562     1.007825032230
         H            2.871813954004    -0.612448794687     0.204821696562     1.007825032230

  Basis Set: AUG-CC-PVTZ
    Blend: AUG-CC-PVTZ
  Basis Set: (AUG-CC-PVTZ AUX)
    Blend: AUG-CC-PVTZ-JKFIT
	 Reference Energy          =    -322.0115793180319201 [Eh]
	 Singles Energy            =      -0.0000000000000000 [Eh]
	 Same-Spin Energy          =      -0.3123919973741349 [Eh]
	 Opposite-Spin Energy      =      -0.9908791998186027 [Eh]
	 Correlation Energy        =      -1.3032711971927378 [Eh]
	 Total Energy              =    -323.3148505152246344 [Eh]

	 ================> DF-SCS-MP2 Energies <==================
	-----------------------------------------------------------
	 SCS Same-Spin Scale       =       0.3333333333333333 [-]
	 SCS Opposite-Spin Scale   =       1.2000000000000000 [-]
	 SCS Same-Spin Energy      =      -0.1041306657913783 [Eh]
	 SCS Opposite-Spin Energy  =      -1.1890550397823232 [Eh]
	 SCS Correlation Energy    =      -1.2931857055737015 [Eh]
	 SCS Total Energy          =    -323.3047650236056256 [Eh]
	-----------------------------------------------------------

  Dipole Moment: [D]
     X:    -1.0246      Y:    -2.3883      Z:     0.8658     Total:     2.7392

*** Psi4 exiting successfully. Buy a developer a beer!
