                               Psi4 1.4a3.dev225

  ==> Input File <==

--------------------------------------------------------------------------
#psi4
#
memory 32 gb

molecule  {
0 1
  O       -0.1791250    -0.4779340     0.0014420
  O        1.2676250     1.2989270     0.0090110
  N        2.0163350    -0.8804990    -0.0657410
  C       -1.2686920     0.4722670    -0.0022460
  C       -2.5451940    -0.3377090     0.0025190
  C        1.0558770     0.0965110    -0.0009640
  H       -1.1847720     1.1155630     0.8776850
  H       -1.1852960     1.1054120    -0.8894660
  H       -3.4102260     0.3314020    -0.0008760
  H       -2.5967230    -0.9775020    -0.8809700
  H       -2.5969010    -0.9678970     0.8929970
  H        1.7497370    -1.8166910     0.2040380
  H        3.1347367    -0.5218733     0.2254247
units angstrom
no_reorient  #important for SAPT in psi4, default
symmetry c1  #important for SAPT in psi4, default
}

set PROPERTIES_ORIGIN ["COM"]
properties('MP2/aug-cc-pvtz', properties = ['dipole'])
--------------------------------------------------------------------------

    Molecular point group: c1
  Charge       = 0
  Multiplicity = 1
  Basis Set: AUG-CC-PVTZ
    Blend: AUG-CC-PVTZ
  Basis Set: (AUG-CC-PVTZ AUX)
    Blend: AUG-CC-PVTZ-JKFIT

    Orbital Energies [Eh]
    ---------------------

    Doubly Occupied:

       1A    -20.601126     2A    -20.527884     3A    -15.603387
       4A    -11.404234     5A    -11.287677     6A    -11.224452
       7A     -1.455462     8A     -1.348782     9A     -1.196990
      10A     -1.032792    11A     -0.868652    12A     -0.793560
      13A     -0.740566    14A     -0.683043    15A     -0.673286
      16A     -0.619815    17A     -0.596830    18A     -0.578333
      19A     -0.543152    20A     -0.520687    21A     -0.513490
      22A     -0.462088    23A     -0.455847    24A     -0.426627

  @DF-RHF Final Energy:  -321.98295787411661

   => Energetics <=

    Nuclear Repulsion Energy =            245.1594034146320098
    One-Electron Energy =                -925.9672039791714724
    Two-Electron Energy =                 358.8248426904228268
    Total Energy =                       -321.9829578741166074
  Basis Set: (AUG-CC-PVTZ AUX)
    Blend: AUG-CC-PVTZ-RI
    Molecular point group: c1

    Geometry (in Angstrom), charge = 0, multiplicity = 1:

       Center              X                  Y                   Z               Mass
    ------------   -----------------  -----------------  -----------------  -----------------
         O           -0.251133057913    -0.498481557143     0.005142095517    15.994914619570
         O            1.195616942087     1.278379442857     0.012711095517    15.994914619570
         N            1.944326942087    -0.901046557143    -0.062040904483    14.003074004430
         C           -1.340700057913     0.451719442857     0.001454095517    12.000000000000
         C           -2.617202057913    -0.358256557143     0.006219095517    12.000000000000
         C            0.983868942087     0.075963442857     0.002736095517    12.000000000000
         H           -1.256780057913     1.095015442857     0.881385095517     1.007825032230
         H           -1.257304057913     1.084864442857    -0.885765904483     1.007825032230
         H           -3.482234057913     0.310854442857     0.002824095517     1.007825032230
         H           -2.668731057913    -0.998049557143    -0.877269904483     1.007825032230
         H           -2.668909057913    -0.988444557143     0.896697095517     1.007825032230
         H            1.677728942087    -1.837238557143     0.207738095517     1.007825032230
         H            3.062728642087    -0.542420857143     0.229124795517     1.007825032230

  Basis Set: AUG-CC-PVTZ
    Blend: AUG-CC-PVTZ
  Basis Set: (AUG-CC-PVTZ AUX)
    Blend: AUG-CC-PVTZ-JKFIT
	 Reference Energy          =    -321.9829578741166074 [Eh]
	 Singles Energy            =      -0.0000000000000000 [Eh]
	 Same-Spin Energy          =      -0.3144177249318426 [Eh]
	 Opposite-Spin Energy      =      -0.9970346487268535 [Eh]
	 Correlation Energy        =      -1.3114523736586960 [Eh]
	 Total Energy              =    -323.2944102477753177 [Eh]

	 ================> DF-SCS-MP2 Energies <==================
	-----------------------------------------------------------
	 SCS Same-Spin Scale       =       0.3333333333333333 [-]
	 SCS Opposite-Spin Scale   =       1.2000000000000000 [-]
	 SCS Same-Spin Energy      =      -0.1048059083106142 [Eh]
	 SCS Opposite-Spin Energy  =      -1.1964415784722242 [Eh]
	 SCS Correlation Energy    =      -1.3012474867828383 [Eh]
	 SCS Total Energy          =    -323.2842053608994206 [Eh]
	-----------------------------------------------------------

  Dipole Moment: [D]
     X:    -0.4150      Y:    -2.1465      Z:     0.7562     Total:     2.3133

*** Psi4 exiting successfully. Buy a developer a beer!
