                               Psi4 1.4a3.dev225

  ==> Input File <==

--------------------------------------------------------------------------
#psi4
#
memory 32 gb

molecule  {
0 1
  O       -0.2480623    -0.5516227     0.0018408
  O        1.2676250     1.2989270     0.0090110
  N        2.0163350    -0.8804990    -0.0657410
  C       -1.2686920     0.4722670    -0.0022460
  C       -2.5451940    -0.3377090     0.0025190
  C        1.0558770     0.0965110    -0.0009640
  H       -1.1847720     1.1155630     0.8776850
  H       -1.1852960     1.1054120    -0.8894660
  H       -3.4102260     0.3314020    -0.0008760
  H       -2.5967230    -0.9775020    -0.8809700
  H       -2.5969010    -0.9678970     0.8929970
  H        1.7497370    -1.8166910     0.2040380
  H        2.9498840    -0.5811480     0.1773000
units angstrom
no_reorient  #important for SAPT in psi4, default
symmetry c1  #important for SAPT in psi4, default
}

set PROPERTIES_ORIGIN ["COM"]
properties('MP2/aug-cc-pvtz', properties = ['dipole'])
--------------------------------------------------------------------------

    Molecular point group: c1
  Charge       = 0
  Multiplicity = 1
  Basis Set: AUG-CC-PVTZ
    Blend: AUG-CC-PVTZ
  Basis Set: (AUG-CC-PVTZ AUX)
    Blend: AUG-CC-PVTZ-JKFIT

    Orbital Energies [Eh]
    ---------------------

    Doubly Occupied:

       1A    -20.600633     2A    -20.545610     3A    -15.596185
       4A    -11.417054     5A    -11.281974     6A    -11.218421
       7A     -1.435642     8A     -1.352905     9A     -1.221558
      10A     -1.023171    11A     -0.859708    12A     -0.805949
      13A     -0.744346    14A     -0.692966    15A     -0.672718
      16A     -0.645050    17A     -0.594669    18A     -0.582268
      19A     -0.535630    20A     -0.520767    21A     -0.511660
      22A     -0.463660    23A     -0.461700    24A     -0.435897

  @DF-RHF Final Energy:  -321.99762197226335

   => Energetics <=

    Nuclear Repulsion Energy =            244.2707285456188231
    One-Electron Energy =                -924.0964171937348510
    Two-Electron Energy =                 357.8280666758527104
    Total Energy =                       -321.9976219722633459
  Basis Set: (AUG-CC-PVTZ AUX)
    Blend: AUG-CC-PVTZ-RI
    Molecular point group: c1

    Geometry (in Angstrom), charge = 0, multiplicity = 1:

       Center              X                  Y                   Z               Mass
    ------------   -----------------  -----------------  -----------------  -----------------
         O           -0.305595579591    -0.558263291654     0.006013928684    15.994914619570
         O            1.210091720409     1.292286408346     0.013184128684    15.994914619570
         N            1.958801720409    -0.887139591654    -0.061567871316    14.003074004430
         C           -1.326225279591     0.465626408346     0.001927128684    12.000000000000
         C           -2.602727279591    -0.344349591654     0.006692128684    12.000000000000
         C            0.998343720409     0.089870408346     0.003209128684    12.000000000000
         H           -1.242305279591     1.108922408346     0.881858128684     1.007825032230
         H           -1.242829279591     1.098771408346    -0.885292871316     1.007825032230
         H           -3.467759279591     0.324761408346     0.003297128684     1.007825032230
         H           -2.654256279591    -0.984142591654    -0.876796871316     1.007825032230
         H           -2.654434279591    -0.974537591654     0.897170128684     1.007825032230
         H            1.692203720409    -1.823331591654     0.208211128684     1.007825032230
         H            2.892350720409    -0.587788591654     0.181473128684     1.007825032230

  Basis Set: AUG-CC-PVTZ
    Blend: AUG-CC-PVTZ
  Basis Set: (AUG-CC-PVTZ AUX)
    Blend: AUG-CC-PVTZ-JKFIT
	 Reference Energy          =    -321.9976219722633459 [Eh]
	 Singles Energy            =      -0.0000000000000000 [Eh]
	 Same-Spin Energy          =      -0.3151667365808919 [Eh]
	 Opposite-Spin Energy      =      -0.9984911363459616 [Eh]
	 Correlation Energy        =      -1.3136578729268535 [Eh]
	 Total Energy              =    -323.3112798451901995 [Eh]

	 ================> DF-SCS-MP2 Energies <==================
	-----------------------------------------------------------
	 SCS Same-Spin Scale       =       0.3333333333333333 [-]
	 SCS Opposite-Spin Scale   =       1.2000000000000000 [-]
	 SCS Same-Spin Energy      =      -0.1050555788602973 [Eh]
	 SCS Opposite-Spin Energy  =      -1.1981893636151539 [Eh]
	 SCS Correlation Energy    =      -1.3032449424754513 [Eh]
	 SCS Total Energy          =    -323.3008669147387764 [Eh]
	-----------------------------------------------------------

  Dipole Moment: [D]
     X:     0.0015      Y:    -1.9697      Z:     0.7082     Total:     2.0932

*** Psi4 exiting successfully. Buy a developer a beer!
