                               Psi4 1.4a3.dev225

  ==> Input File <==

--------------------------------------------------------------------------
#psi4
#
memory 32 gb

molecule  {
0 1
  O       -0.1791250    -0.4779340     0.0014420
  O        1.2676250     1.2989270     0.0090110
  N        2.0163350    -0.8804990    -0.0657410
  C       -1.2686920     0.4722670    -0.0022460
  C       -2.5451940    -0.3377090     0.0025190
  C        1.0524084     0.0768147    -0.0011274
  H       -1.1847720     1.1155630     0.8776850
  H       -1.1852960     1.1054120    -0.8894660
  H       -3.4102260     0.3314020    -0.0008760
  H       -2.5967230    -0.9775020    -0.8809700
  H       -2.5969010    -0.9678970     0.8929970
  H        1.7497370    -1.8166910     0.2040380
  H        2.9498840    -0.5811480     0.1773000
units angstrom
no_reorient  #important for SAPT in psi4, default
symmetry c1  #important for SAPT in psi4, default
}

set PROPERTIES_ORIGIN ["COM"]
properties('MP2/aug-cc-pvtz', properties = ['dipole'])
--------------------------------------------------------------------------

    Molecular point group: c1
  Charge       = 0
  Multiplicity = 1
  Basis Set: AUG-CC-PVTZ
    Blend: AUG-CC-PVTZ
  Basis Set: (AUG-CC-PVTZ AUX)
    Blend: AUG-CC-PVTZ-JKFIT

    Orbital Energies [Eh]
    ---------------------

    Doubly Occupied:

       1A    -20.604083     2A    -20.524744     3A    -15.591735
       4A    -11.405998     5A    -11.289300     6A    -11.225568
       7A     -1.458126     8A     -1.340075     9A     -1.221247
      10A     -1.037239    11A     -0.878193    12A     -0.801712
      13A     -0.746507    14A     -0.704043    15A     -0.684657
      16A     -0.639041    17A     -0.597983    18A     -0.578645
      19A     -0.547530    20A     -0.521448    21A     -0.514069
      22A     -0.462934    23A     -0.452579    24A     -0.428999

  @DF-RHF Final Energy:  -322.01135674989143

   => Energetics <=

    Nuclear Repulsion Energy =            246.0864348961203518
    One-Electron Energy =                -927.6826744299864913
    Two-Electron Energy =                 359.5848827839746491
    Total Energy =                       -322.0113567498914335
  Basis Set: (AUG-CC-PVTZ AUX)
    Blend: AUG-CC-PVTZ-RI
    Molecular point group: c1

    Geometry (in Angstrom), charge = 0, multiplicity = 1:

       Center              X                  Y                   Z               Mass
    ------------   -----------------  -----------------  -----------------  -----------------
         O           -0.248573503501    -0.495156438156     0.005708781569    15.994914619570
         O            1.198176496499     1.281704561844     0.013277781569    15.994914619570
         N            1.946886496499    -0.897721438156    -0.061474218431    14.003074004430
         C           -1.338140503501     0.455044561844     0.002020781569    12.000000000000
         C           -2.614642503501    -0.354931438156     0.006785781569    12.000000000000
         C            0.982959896499     0.059592261844     0.003139381569    12.000000000000
         H           -1.254220503501     1.098340561844     0.881951781569     1.007825032230
         H           -1.254744503501     1.088189561844    -0.885199218431     1.007825032230
         H           -3.479674503501     0.314179561844     0.003390781569     1.007825032230
         H           -2.666171503501    -0.994724438156    -0.876703218431     1.007825032230
         H           -2.666349503501    -0.985119438156     0.897263781569     1.007825032230
         H            1.680288496499    -1.833913438156     0.208304781569     1.007825032230
         H            2.880435496499    -0.598370438156     0.181566781569     1.007825032230

  Basis Set: AUG-CC-PVTZ
    Blend: AUG-CC-PVTZ
  Basis Set: (AUG-CC-PVTZ AUX)
    Blend: AUG-CC-PVTZ-JKFIT
	 Reference Energy          =    -322.0113567498914335 [Eh]
	 Singles Energy            =      -0.0000000000000000 [Eh]
	 Same-Spin Energy          =      -0.3135000789734957 [Eh]
	 Opposite-Spin Energy      =      -0.9937586218646998 [Eh]
	 Correlation Energy        =      -1.3072587008381955 [Eh]
	 Total Energy              =    -323.3186154507296237 [Eh]

	 ================> DF-SCS-MP2 Energies <==================
	-----------------------------------------------------------
	 SCS Same-Spin Scale       =       0.3333333333333333 [-]
	 SCS Opposite-Spin Scale   =       1.2000000000000000 [-]
	 SCS Same-Spin Energy      =      -0.1045000263244986 [Eh]
	 SCS Opposite-Spin Energy  =      -1.1925103462376396 [Eh]
	 SCS Correlation Energy    =      -1.2970103725621382 [Eh]
	 SCS Total Energy          =    -323.3083671224535465 [Eh]
	-----------------------------------------------------------

  Dipole Moment: [D]
     X:    -0.6576      Y:    -2.3670      Z:     0.7116     Total:     2.5577

*** Psi4 exiting successfully. Buy a developer a beer!
