                               Psi4 1.4a3.dev225

  ==> Input File <==

--------------------------------------------------------------------------
#psi4
#
memory 32 gb

molecule  {
0 1
  O       -0.1791250    -0.4779340     0.0014420
  O        1.2676250     1.2989270     0.0090110
  N        2.0163350    -0.8804990    -0.0657410
  C       -1.2686920     0.4722670    -0.0022460
  C       -2.5451940    -0.3377090     0.0025190
  C        1.0558770     0.0965110    -0.0009640
  H       -1.1847720     1.1155630     0.8776850
  H       -1.1852960     1.1054120    -0.8894660
  H       -3.4102260     0.3314020    -0.0008760
  H       -2.5967230    -0.9775020    -0.8809700
  H       -2.5969010    -0.9678970     0.8929970
  H        1.7550156    -1.7981545     0.1986964
  H        2.9498840    -0.5811480     0.1773000
units angstrom
no_reorient  #important for SAPT in psi4, default
symmetry c1  #important for SAPT in psi4, default
}

set PROPERTIES_ORIGIN ["COM"]
properties('MP2/aug-cc-pvtz', properties = ['dipole'])
--------------------------------------------------------------------------

    Molecular point group: c1
  Charge       = 0
  Multiplicity = 1
  Basis Set: AUG-CC-PVTZ
    Blend: AUG-CC-PVTZ
  Basis Set: (AUG-CC-PVTZ AUX)
    Blend: AUG-CC-PVTZ-JKFIT

    Orbital Energies [Eh]
    ---------------------

    Doubly Occupied:

       1A    -20.601776     2A    -20.530244     3A    -15.587601
       4A    -11.405755     5A    -11.288232     6A    -11.224916
       7A     -1.457210     8A     -1.350949     9A     -1.219792
      10A     -1.035368    11A     -0.875755    12A     -0.801004
      13A     -0.748534    14A     -0.701566    15A     -0.683378
      16A     -0.643999    17A     -0.598665    18A     -0.580897
      19A     -0.546289    20A     -0.521986    21A     -0.514167
      22A     -0.463101    23A     -0.457824    24A     -0.431493

  @DF-RHF Final Energy:  -322.01303648215162

   => Energetics <=

    Nuclear Repulsion Energy =            246.2079188698282337
    One-Electron Energy =                -927.9009081280647706
    Two-Electron Energy =                 359.6799527760849742
    Total Energy =                       -322.0130364821516196
  Basis Set: (AUG-CC-PVTZ AUX)
    Blend: AUG-CC-PVTZ-RI
    Molecular point group: c1

    Geometry (in Angstrom), charge = 0, multiplicity = 1:

       Center              X                  Y                   Z               Mass
    ------------   -----------------  -----------------  -----------------  -----------------
         O           -0.249100671710    -0.498020489787     0.005747217138    15.994914619570
         O            1.197649328290     1.278840510213     0.013316217138    15.994914619570
         N            1.946359328290    -0.900585489787    -0.061435782862    14.003074004430
         C           -1.338667671710     0.452180510213     0.002059217138    12.000000000000
         C           -2.615169671710    -0.357795489787     0.006824217138    12.000000000000
         C            0.985901328290     0.076424510213     0.003341217138    12.000000000000
         H           -1.254747671710     1.095476510213     0.881990217138     1.007825032230
         H           -1.255271671710     1.085325510213    -0.885160782862     1.007825032230
         H           -3.480201671710     0.311315510213     0.003429217138     1.007825032230
         H           -2.666698671710    -0.997588489787    -0.876664782862     1.007825032230
         H           -2.666876671710    -0.987983489787     0.897302217138     1.007825032230
         H            1.685039928290    -1.818240989787     0.203001617138     1.007825032230
         H            2.879908328290    -0.601234489787     0.181605217138     1.007825032230

  Basis Set: AUG-CC-PVTZ
    Blend: AUG-CC-PVTZ
  Basis Set: (AUG-CC-PVTZ AUX)
    Blend: AUG-CC-PVTZ-JKFIT
	 Reference Energy          =    -322.0130364821516196 [Eh]
	 Singles Energy            =      -0.0000000000000000 [Eh]
	 Same-Spin Energy          =      -0.3132000410482800 [Eh]
	 Opposite-Spin Energy      =      -0.9932127135521041 [Eh]
	 Correlation Energy        =      -1.3064127546003841 [Eh]
	 Total Energy              =    -323.3194492367520070 [Eh]

	 ================> DF-SCS-MP2 Energies <==================
	-----------------------------------------------------------
	 SCS Same-Spin Scale       =       0.3333333333333333 [-]
	 SCS Opposite-Spin Scale   =       1.2000000000000000 [-]
	 SCS Same-Spin Energy      =      -0.1044000136827600 [Eh]
	 SCS Opposite-Spin Energy  =      -1.1918552562625249 [Eh]
	 SCS Correlation Energy    =      -1.2962552699452849 [Eh]
	 SCS Total Energy          =    -323.3092917520968967 [Eh]
	-----------------------------------------------------------

  Dipole Moment: [D]
     X:    -0.6096      Y:    -2.1795      Z:     0.7113     Total:     2.3723

*** Psi4 exiting successfully. Buy a developer a beer!
