                               Psi4 1.4a3.dev225

  ==> Input File <==

--------------------------------------------------------------------------
#psi4
#
memory 32 gb

molecule  {
0 1
  O       -0.1969382    -0.4968520     0.0446994
  O        1.2676250     1.2989270     0.0090110
  N        2.0163350    -0.8804990    -0.0657410
  C       -1.2686920     0.4722670    -0.0022460
  C       -2.5451940    -0.3377090     0.0025190
  C        1.0558770     0.0965110    -0.0009640
  H       -1.1847720     1.1155630     0.8776850
  H       -1.1852960     1.1054120    -0.8894660
  H       -3.4102260     0.3314020    -0.0008760
  H       -2.5967230    -0.9775020    -0.8809700
  H       -2.5969010    -0.9678970     0.8929970
  H        1.7497370    -1.8166910     0.2040380
  H        2.9498840    -0.5811480     0.1773000
units angstrom
no_reorient  #important for SAPT in psi4, default
symmetry c1  #important for SAPT in psi4, default
}

set PROPERTIES_ORIGIN ["COM"]
properties('MP2/aug-cc-pvtz', properties = ['dipole'])
--------------------------------------------------------------------------

    Molecular point group: c1
  Charge       = 0
  Multiplicity = 1
  Basis Set: AUG-CC-PVTZ
    Blend: AUG-CC-PVTZ
  Basis Set: (AUG-CC-PVTZ AUX)
    Blend: AUG-CC-PVTZ-JKFIT

    Orbital Energies [Eh]
    ---------------------

    Doubly Occupied:

       1A    -20.601469     2A    -20.534445     3A    -15.591186
       4A    -11.408958     5A    -11.286371     6A    -11.223116
       7A     -1.450162     8A     -1.352020     9A     -1.218135
      10A     -1.031850    11A     -0.870775    12A     -0.801642
      13A     -0.744448    14A     -0.699054    15A     -0.679853
      16A     -0.643312    17A     -0.598044    18A     -0.580542
      19A     -0.543142    20A     -0.521470    21A     -0.514008
      22A     -0.463237    23A     -0.459122    24A     -0.432473

  @DF-RHF Final Energy:  -322.00974402928807

   => Energetics <=

    Nuclear Repulsion Energy =            245.5912601394381056
    One-Electron Energy =                -926.7043411334040002
    Two-Electron Energy =                 359.1033369646778510
    Total Energy =                       -322.0097440292880719
  Basis Set: (AUG-CC-PVTZ AUX)
    Blend: AUG-CC-PVTZ-RI
    Molecular point group: c1

    Geometry (in Angstrom), charge = 0, multiplicity = 1:

       Center              X                  Y                   Z               Mass
    ------------   -----------------  -----------------  -----------------  -----------------
         O           -0.263654488385    -0.513330609727     0.041174184836    15.994914619570
         O            1.200908711615     1.282448390273     0.005485784836    15.994914619570
         N            1.949618711615    -0.896977609727    -0.069266215164    14.003074004430
         C           -1.335408288385     0.455788390273    -0.005771215164    12.000000000000
         C           -2.611910288385    -0.354187609727    -0.001006215164    12.000000000000
         C            0.989160711615     0.080032390273    -0.004489215164    12.000000000000
         H           -1.251488288385     1.099084390273     0.874159784836     1.007825032230
         H           -1.252012288385     1.088933390273    -0.892991215164     1.007825032230
         H           -3.476942288385     0.314923390273    -0.004401215164     1.007825032230
         H           -2.663439288385    -0.993980609727    -0.884495215164     1.007825032230
         H           -2.663617288385    -0.984375609727     0.889471784836     1.007825032230
         H            1.683020711615    -1.833169609727     0.200512784836     1.007825032230
         H            2.883167711615    -0.597626609727     0.173774784836     1.007825032230

  Basis Set: AUG-CC-PVTZ
    Blend: AUG-CC-PVTZ
  Basis Set: (AUG-CC-PVTZ AUX)
    Blend: AUG-CC-PVTZ-JKFIT
	 Reference Energy          =    -322.0097440292880719 [Eh]
	 Singles Energy            =      -0.0000000000000000 [Eh]
	 Same-Spin Energy          =      -0.3137632390140185 [Eh]
	 Opposite-Spin Energy      =      -0.9947516891686186 [Eh]
	 Correlation Energy        =      -1.3085149281826371 [Eh]
	 Total Energy              =    -323.3182589574707322 [Eh]

	 ================> DF-SCS-MP2 Energies <==================
	-----------------------------------------------------------
	 SCS Same-Spin Scale       =       0.3333333333333333 [-]
	 SCS Opposite-Spin Scale   =       1.2000000000000000 [-]
	 SCS Same-Spin Energy      =      -0.1045877463380062 [Eh]
	 SCS Opposite-Spin Energy  =      -1.1937020270023422 [Eh]
	 SCS Correlation Energy    =      -1.2982897733403485 [Eh]
	 SCS Total Energy          =    -323.3080338026284153 [Eh]
	-----------------------------------------------------------

  Dipole Moment: [D]
     X:    -0.4467      Y:    -2.1358      Z:     0.6597     Total:     2.2795

*** Psi4 exiting successfully. Buy a developer a beer!
