                               Psi4 1.4a3.dev225

  ==> Input File <==

--------------------------------------------------------------------------
#psi4
#
memory 32 gb

molecule  {
0 1
  O       -0.1154960    -0.3996161     0.0010252
  O        1.2676250     1.2989270     0.0090110
  N        2.0163350    -0.8804990    -0.0657410
  C       -1.2686920     0.4722670    -0.0022460
  C       -2.5451940    -0.3377090     0.0025190
  C        1.0558770     0.0965110    -0.0009640
  H       -1.1847720     1.1155630     0.8776850
  H       -1.1852960     1.1054120    -0.8894660
  H       -3.4102260     0.3314020    -0.0008760
  H       -2.5967230    -0.9775020    -0.8809700
  H       -2.5969010    -0.9678970     0.8929970
  H        1.7497370    -1.8166910     0.2040380
  H        2.9498840    -0.5811480     0.1773000
units angstrom
no_reorient  #important for SAPT in psi4, default
symmetry c1  #important for SAPT in psi4, default
}

set PROPERTIES_ORIGIN ["COM"]
properties('MP2/aug-cc-pvtz', properties = ['dipole'])
--------------------------------------------------------------------------

    Molecular point group: c1
  Charge       = 0
  Multiplicity = 1
  Basis Set: AUG-CC-PVTZ
    Blend: AUG-CC-PVTZ
  Basis Set: (AUG-CC-PVTZ AUX)
    Blend: AUG-CC-PVTZ-JKFIT

    Orbital Energies [Eh]
    ---------------------

    Doubly Occupied:

       1A    -20.601674     2A    -20.512388     3A    -15.582450
       4A    -11.392404     5A    -11.295821     6A    -11.231922
       7A     -1.488897     8A     -1.342622     9A     -1.212489
      10A     -1.048558    11A     -0.894017    12A     -0.794657
      13A     -0.747293    14A     -0.707979    15A     -0.696997
      16A     -0.639635    17A     -0.605294    18A     -0.577968
      19A     -0.559316    20A     -0.522592    21A     -0.512159
      22A     -0.460953    23A     -0.448255    24A     -0.425102

  @DF-RHF Final Energy:  -322.01239484564513

   => Energetics <=

    Nuclear Repulsion Energy =            248.0987418218854259
    One-Electron Energy =                -931.6193881328817952
    Two-Electron Energy =                 361.5082514653512931
    Total Energy =                       -322.0123948456451330
  Basis Set: (AUG-CC-PVTZ AUX)
    Blend: AUG-CC-PVTZ-RI
    Molecular point group: c1

    Geometry (in Angstrom), charge = 0, multiplicity = 1:

       Center              X                  Y                   Z               Mass
    ------------   -----------------  -----------------  -----------------  -----------------
         O           -0.196841092390    -0.433560408387     0.005344828319    15.994914619570
         O            1.186279907610     1.264982691613     0.013330628319    15.994914619570
         N            1.934989907610    -0.914443308387    -0.061421371681    14.003074004430
         C           -1.350037092390     0.438322691613     0.002073628319    12.000000000000
         C           -2.626539092390    -0.371653308387     0.006838628319    12.000000000000
         C            0.974531907610     0.062566691613     0.003355628319    12.000000000000
         H           -1.266117092390     1.081618691613     0.882004628319     1.007825032230
         H           -1.266641092390     1.071467691613    -0.885146371681     1.007825032230
         H           -3.491571092390     0.297457691613     0.003443628319     1.007825032230
         H           -2.678068092390    -1.011446308387    -0.876650371681     1.007825032230
         H           -2.678246092390    -1.001841308387     0.897316628319     1.007825032230
         H            1.668391907610    -1.850635308387     0.208357628319     1.007825032230
         H            2.868538907610    -0.615092308387     0.181619628319     1.007825032230

  Basis Set: AUG-CC-PVTZ
    Blend: AUG-CC-PVTZ
  Basis Set: (AUG-CC-PVTZ AUX)
    Blend: AUG-CC-PVTZ-JKFIT
	 Reference Energy          =    -322.0123948456451330 [Eh]
	 Singles Energy            =      -0.0000000000000000 [Eh]
	 Same-Spin Energy          =      -0.3118680007788004 [Eh]
	 Opposite-Spin Energy      =      -0.9894143406108584 [Eh]
	 Correlation Energy        =      -1.3012823413896588 [Eh]
	 Total Energy              =    -323.3136771870347843 [Eh]

	 ================> DF-SCS-MP2 Energies <==================
	-----------------------------------------------------------
	 SCS Same-Spin Scale       =       0.3333333333333333 [-]
	 SCS Opposite-Spin Scale   =       1.2000000000000000 [-]
	 SCS Same-Spin Energy      =      -0.1039560002596001 [Eh]
	 SCS Opposite-Spin Energy  =      -1.1872972087330300 [Eh]
	 SCS Correlation Energy    =      -1.2912532089926301 [Eh]
	 SCS Total Energy          =    -323.3036480546377902 [Eh]
	-----------------------------------------------------------

  Dipole Moment: [D]
     X:    -1.2548      Y:    -2.4500      Z:     0.7225     Total:     2.8459

*** Psi4 exiting successfully. Buy a developer a beer!
