                               Psi4 1.4a3.dev225

  ==> Input File <==

--------------------------------------------------------------------------
#psi4
#
memory 32 gb

molecule  {
0 1
  O       -0.2844175    -0.5866179     0.0020329
  O        1.2676250     1.2989270     0.0090110
  N        2.0163350    -0.8804990    -0.0657410
  C       -1.2686920     0.4722670    -0.0022460
  C       -2.5451940    -0.3377090     0.0025190
  C        1.0558770     0.0965110    -0.0009640
  H       -1.1847720     1.1155630     0.8776850
  H       -1.1852960     1.1054120    -0.8894660
  H       -3.4102260     0.3314020    -0.0008760
  H       -2.5967230    -0.9775020    -0.8809700
  H       -2.5969010    -0.9678970     0.8929970
  H        1.7497370    -1.8166910     0.2040380
  H        2.9498840    -0.5811480     0.1773000
units angstrom
no_reorient  #important for SAPT in psi4, default
symmetry c1  #important for SAPT in psi4, default
}

set PROPERTIES_ORIGIN ["COM"]
properties('MP2/aug-cc-pvtz', properties = ['dipole'])
--------------------------------------------------------------------------

    Molecular point group: c1
  Charge       = 0
  Multiplicity = 1
  Basis Set: AUG-CC-PVTZ
    Blend: AUG-CC-PVTZ
  Basis Set: (AUG-CC-PVTZ AUX)
    Blend: AUG-CC-PVTZ-JKFIT

    Orbital Energies [Eh]
    ---------------------

    Doubly Occupied:

       1A    -20.599885     2A    -20.552530     3A    -15.599534
       4A    -11.422034     5A    -11.279412     6A    -11.215433
       7A     -1.429440     8A     -1.351254     9A     -1.223930
      10A     -1.017641    11A     -0.853297    12A     -0.808970
      13A     -0.744632    14A     -0.689710    15A     -0.668504
      16A     -0.645594    17A     -0.593809    18A     -0.582627
      19A     -0.532240    20A     -0.519651    21A     -0.509090
      22A     -0.464057    23A     -0.460823    24A     -0.437938

  @DF-RHF Final Energy:  -321.98599005959454

   => Energetics <=

    Nuclear Repulsion Energy =            243.4195987866173425
    One-Electron Energy =                -922.4071071375445854
    Two-Electron Energy =                 357.0015182913326726
    Total Energy =                       -321.9859900595945419
  Basis Set: (AUG-CC-PVTZ AUX)
    Blend: AUG-CC-PVTZ-RI
    Molecular point group: c1

    Geometry (in Angstrom), charge = 0, multiplicity = 1:

       Center              X                  Y                   Z               Mass
    ------------   -----------------  -----------------  -----------------  -----------------
         O           -0.335420588911    -0.586972586780     0.006171523314    15.994914619570
         O            1.216621911089     1.298572313220     0.013149623314    15.994914619570
         N            1.965331911089    -0.880853686780    -0.061602376686    14.003074004430
         C           -1.319695088911     0.471912313220     0.001892623314    12.000000000000
         C           -2.596197088911    -0.338063686780     0.006657623314    12.000000000000
         C            1.004873911089     0.096156313220     0.003174623314    12.000000000000
         H           -1.235775088911     1.115208313220     0.881823623314     1.007825032230
         H           -1.236299088911     1.105057313220    -0.885327376686     1.007825032230
         H           -3.461229088911     0.331047313220     0.003262623314     1.007825032230
         H           -2.647726088911    -0.977856686780    -0.876831376686     1.007825032230
         H           -2.647904088911    -0.968251686780     0.897135623314     1.007825032230
         H            1.698733911089    -1.817045686780     0.208176623314     1.007825032230
         H            2.898880911089    -0.581502686780     0.181438623314     1.007825032230

  Basis Set: AUG-CC-PVTZ
    Blend: AUG-CC-PVTZ
  Basis Set: (AUG-CC-PVTZ AUX)
    Blend: AUG-CC-PVTZ-JKFIT
	 Reference Energy          =    -321.9859900595945419 [Eh]
	 Singles Energy            =      -0.0000000000000000 [Eh]
	 Same-Spin Energy          =      -0.3162419432338139 [Eh]
	 Opposite-Spin Energy      =      -1.0012901594559365 [Eh]
	 Correlation Energy        =      -1.3175321026897504 [Eh]
	 Total Energy              =    -323.3035221622843096 [Eh]

	 ================> DF-SCS-MP2 Energies <==================
	-----------------------------------------------------------
	 SCS Same-Spin Scale       =       0.3333333333333333 [-]
	 SCS Opposite-Spin Scale   =       1.2000000000000000 [-]
	 SCS Same-Spin Energy      =      -0.1054139810779380 [Eh]
	 SCS Opposite-Spin Energy  =      -1.2015481913471238 [Eh]
	 SCS Correlation Energy    =      -1.3069621724250617 [Eh]
	 SCS Total Energy          =    -323.2929522320196156 [Eh]
	-----------------------------------------------------------

  Dipole Moment: [D]
     X:     0.2983      Y:    -1.8637      Z:     0.7048     Total:     2.0147

*** Psi4 exiting successfully. Buy a developer a beer!
