                               Psi4 1.4a3.dev225

  ==> Input File <==

--------------------------------------------------------------------------
#psi4
#
memory 32 gb

molecule  {
0 1
  O       -0.1626393    -0.4578583    -0.0418199
  O        1.2676250     1.2989270     0.0090110
  N        2.0163350    -0.8804990    -0.0657410
  C       -1.2686920     0.4722670    -0.0022460
  C       -2.5451940    -0.3377090     0.0025190
  C        1.0558770     0.0965110    -0.0009640
  H       -1.1847720     1.1155630     0.8776850
  H       -1.1852960     1.1054120    -0.8894660
  H       -3.4102260     0.3314020    -0.0008760
  H       -2.5967230    -0.9775020    -0.8809700
  H       -2.5969010    -0.9678970     0.8929970
  H        1.7497370    -1.8166910     0.2040380
  H        2.9498840    -0.5811480     0.1773000
units angstrom
no_reorient  #important for SAPT in psi4, default
symmetry c1  #important for SAPT in psi4, default
}

set PROPERTIES_ORIGIN ["COM"]
properties('MP2/aug-cc-pvtz', properties = ['dipole'])
--------------------------------------------------------------------------

    Molecular point group: c1
  Charge       = 0
  Multiplicity = 1
  Basis Set: AUG-CC-PVTZ
    Blend: AUG-CC-PVTZ
  Basis Set: (AUG-CC-PVTZ AUX)
    Blend: AUG-CC-PVTZ-JKFIT

    Orbital Energies [Eh]
    ---------------------

    Doubly Occupied:

       1A    -20.601538     2A    -20.526005     3A    -15.587760
       4A    -11.402440     5A    -11.289817     6A    -11.226553
       7A     -1.463957     8A     -1.349227     9A     -1.215848
      10A     -1.038333    11A     -0.879777    12A     -0.798494
      13A     -0.744958    14A     -0.702627    15A     -0.686444
      16A     -0.641950    17A     -0.599292    18A     -0.580618
      19A     -0.549310    20A     -0.522115    21A     -0.513954
      22A     -0.462219    23A     -0.455737    24A     -0.429742

  @DF-RHF Final Energy:  -322.01395304263161

   => Energetics <=

    Nuclear Repulsion Energy =            246.5852186415463905
    One-Electron Energy =                -928.6609152398734750
    Two-Electron Energy =                 360.0617435556955002
    Total Energy =                       -322.0139530426316128
  Basis Set: (AUG-CC-PVTZ AUX)
    Blend: AUG-CC-PVTZ-RI
    Molecular point group: c1

    Geometry (in Angstrom), charge = 0, multiplicity = 1:

       Center              X                  Y                   Z               Mass
    ------------   -----------------  -----------------  -----------------  -----------------
         O           -0.235516422519    -0.481341032832    -0.029804352729    15.994914619570
         O            1.194747877481     1.275444267168     0.021026547271    15.994914619570
         N            1.943457877481    -0.903981732832    -0.053725452729    14.003074004430
         C           -1.341569122519     0.448784267168     0.009769547271    12.000000000000
         C           -2.618071122519    -0.361191732832     0.014534547271    12.000000000000
         C            0.982999877481     0.073028267168     0.011051547271    12.000000000000
         H           -1.257649122519     1.092080267168     0.889700547271     1.007825032230
         H           -1.258173122519     1.081929267168    -0.877450452729     1.007825032230
         H           -3.483103122519     0.307919267168     0.011139547271     1.007825032230
         H           -2.669600122519    -1.000984732832    -0.868954452729     1.007825032230
         H           -2.669778122519    -0.991379732832     0.905012547271     1.007825032230
         H            1.676859877481    -1.840173732832     0.216053547271     1.007825032230
         H            2.877006877481    -0.604630732832     0.189315547271     1.007825032230

  Basis Set: AUG-CC-PVTZ
    Blend: AUG-CC-PVTZ
  Basis Set: (AUG-CC-PVTZ AUX)
    Blend: AUG-CC-PVTZ-JKFIT
	 Reference Energy          =    -322.0139530426316128 [Eh]
	 Singles Energy            =      -0.0000000000000000 [Eh]
	 Same-Spin Energy          =      -0.3129365514938222 [Eh]
	 Opposite-Spin Energy      =      -0.9924668776620521 [Eh]
	 Correlation Energy        =      -1.3054034291558743 [Eh]
	 Total Energy              =    -323.3193564717875006 [Eh]

	 ================> DF-SCS-MP2 Energies <==================
	-----------------------------------------------------------
	 SCS Same-Spin Scale       =       0.3333333333333333 [-]
	 SCS Opposite-Spin Scale   =       1.2000000000000000 [-]
	 SCS Same-Spin Energy      =      -0.1043121838312741 [Eh]
	 SCS Opposite-Spin Energy  =      -1.1909602531944625 [Eh]
	 SCS Correlation Energy    =      -1.2952724370257365 [Eh]
	 SCS Total Energy          =    -323.3092254796573570 [Eh]
	-----------------------------------------------------------

  Dipole Moment: [D]
     X:    -0.7662      Y:    -2.2607      Z:     0.7682     Total:     2.5076

*** Psi4 exiting successfully. Buy a developer a beer!
