                               Psi4 1.4a3.dev225

  ==> Input File <==

--------------------------------------------------------------------------
#psi4
#
memory 32 gb

molecule  {
0 1
  O       -0.1791250    -0.4779340     0.0014420
  O        1.2676250     1.2989270     0.0090110
  N        2.0163350    -0.8804990    -0.0657410
  C       -1.2686920     0.4722670    -0.0022460
  C       -2.5451940    -0.3377090     0.0025190
  C        1.0558770     0.0965110    -0.0009640
  H       -1.1847720     1.1155630     0.8776850
  H       -1.1852960     1.1054120    -0.8894660
  H       -3.4102260     0.3314020    -0.0008760
  H       -2.5920044    -0.9189148    -0.8000671
  H       -2.5969010    -0.9678970     0.8929970
  H        1.7497370    -1.8166910     0.2040380
  H        2.9498840    -0.5811480     0.1773000
units angstrom
no_reorient  #important for SAPT in psi4, default
symmetry c1  #important for SAPT in psi4, default
}

set PROPERTIES_ORIGIN ["COM"]
properties('MP2/aug-cc-pvtz', properties = ['dipole'])
--------------------------------------------------------------------------

    Molecular point group: c1
  Charge       = 0
  Multiplicity = 1
  Basis Set: AUG-CC-PVTZ
    Blend: AUG-CC-PVTZ
  Basis Set: (AUG-CC-PVTZ AUX)
    Blend: AUG-CC-PVTZ-JKFIT

    Orbital Energies [Eh]
    ---------------------

    Doubly Occupied:

       1A    -20.601433     2A    -20.530016     3A    -15.589265
       4A    -11.405497     5A    -11.287122     6A    -11.212471
       7A     -1.456813     8A     -1.350681     9A     -1.216815
      10A     -1.040212    11A     -0.882005    12A     -0.801182
      13A     -0.744467    14A     -0.701058    15A     -0.684807
      16A     -0.642718    17A     -0.603210    18A     -0.585399
      19A     -0.546367    20A     -0.528448    21A     -0.514480
      22A     -0.463407    23A     -0.457404    24A     -0.430960

  @DF-RHF Final Energy:  -322.00640926486744

   => Energetics <=

    Nuclear Repulsion Energy =            246.5342312885010188
    One-Electron Energy =                -928.5288063013823603
    Two-Electron Energy =                 359.9881657480138983
    Total Energy =                       -322.0064092648674432
  Basis Set: (AUG-CC-PVTZ AUX)
    Blend: AUG-CC-PVTZ-RI
    Molecular point group: c1

    Geometry (in Angstrom), charge = 0, multiplicity = 1:

       Center              X                  Y                   Z               Mass
    ------------   -----------------  -----------------  -----------------  -----------------
         O           -0.249094333734    -0.498473776146     0.004771117957    15.994914619570
         O            1.197655666266     1.278387223854     0.012340117957    15.994914619570
         N            1.946365666266    -0.901038776146    -0.062411882043    14.003074004430
         C           -1.338661333734     0.451727223854     0.001083117957    12.000000000000
         C           -2.615163333734    -0.358248776146     0.005848117957    12.000000000000
         C            0.985907666266     0.075971223854     0.002365117957    12.000000000000
         H           -1.254741333734     1.095023223854     0.881014117957     1.007825032230
         H           -1.255265333734     1.084872223854    -0.886136882043     1.007825032230
         H           -3.480195333734     0.310862223854     0.002453117957     1.007825032230
         H           -2.661973733734    -0.939454576146    -0.796737982043     1.007825032230
         H           -2.666870333734    -0.988436776146     0.896326117957     1.007825032230
         H            1.679767666266    -1.837230776146     0.207367117957     1.007825032230
         H            2.879914666266    -0.601687776146     0.180629117957     1.007825032230

  Basis Set: AUG-CC-PVTZ
    Blend: AUG-CC-PVTZ
  Basis Set: (AUG-CC-PVTZ AUX)
    Blend: AUG-CC-PVTZ-JKFIT
	 Reference Energy          =    -322.0064092648674432 [Eh]
	 Singles Energy            =      -0.0000000000000000 [Eh]
	 Same-Spin Energy          =      -0.3133940660026204 [Eh]
	 Opposite-Spin Energy      =      -0.9931183234000254 [Eh]
	 Correlation Energy        =      -1.3065123894026458 [Eh]
	 Total Energy              =    -323.3129216542700988 [Eh]

	 ================> DF-SCS-MP2 Energies <==================
	-----------------------------------------------------------
	 SCS Same-Spin Scale       =       0.3333333333333333 [-]
	 SCS Opposite-Spin Scale   =       1.2000000000000000 [-]
	 SCS Same-Spin Energy      =      -0.1044646886675401 [Eh]
	 SCS Opposite-Spin Energy  =      -1.1917419880800304 [Eh]
	 SCS Correlation Energy    =      -1.2962066767475706 [Eh]
	 SCS Total Energy          =    -323.3026159416149881 [Eh]
	-----------------------------------------------------------

  Dipole Moment: [D]
     X:    -0.6300      Y:    -2.2242      Z:     0.6843     Total:     2.4109

*** Psi4 exiting successfully. Buy a developer a beer!
