                               Psi4 1.4a3.dev225

  ==> Input File <==

--------------------------------------------------------------------------
#psi4
#
memory 32 gb

molecule  {
0 1
  O       -0.1791250    -0.4779340     0.0014420
  O        1.2676250     1.2989270     0.0090110
  N        2.0163350    -0.8804990    -0.0657410
  C       -1.2686920     0.4722670    -0.0022460
  C       -2.5451940    -0.3377090     0.0025190
  C        1.0558770     0.0965110    -0.0009640
  H       -1.1847720     1.1155630     0.8776850
  H       -1.1852960     1.1054120    -0.8894660
  H       -3.4102260     0.3314020    -0.0008760
  H       -2.5967230    -0.9775020    -0.8809700
  H       -2.5969010    -0.9678970     0.8929970
  H        1.7338601    -1.8140798     0.1968336
  H        2.9498840    -0.5811480     0.1773000
units angstrom
no_reorient  #important for SAPT in psi4, default
symmetry c1  #important for SAPT in psi4, default
}

set PROPERTIES_ORIGIN ["COM"]
properties('MP2/aug-cc-pvtz', properties = ['dipole'])
--------------------------------------------------------------------------

    Molecular point group: c1
  Charge       = 0
  Multiplicity = 1
  Basis Set: AUG-CC-PVTZ
    Blend: AUG-CC-PVTZ
  Basis Set: (AUG-CC-PVTZ AUX)
    Blend: AUG-CC-PVTZ-JKFIT

    Orbital Energies [Eh]
    ---------------------

    Doubly Occupied:

       1A    -20.601701     2A    -20.529948     3A    -15.589349
       4A    -11.405308     5A    -11.288209     6A    -11.224939
       7A     -1.457045     8A     -1.350754     9A     -1.216989
      10A     -1.035214    11A     -0.875145    12A     -0.799569
      13A     -0.744541    14A     -0.701700    15A     -0.683321
      16A     -0.642869    17A     -0.598525    18A     -0.580766
      19A     -0.546285    20A     -0.521881    21A     -0.514171
      22A     -0.463000    23A     -0.457303    24A     -0.430926

  @DF-RHF Final Energy:  -322.01270132173278

   => Energetics <=

    Nuclear Repulsion Energy =            246.1298747000624303
    One-Electron Energy =                -927.7662374497059545
    Two-Electron Energy =                 359.6236614279106902
    Total Energy =                       -322.0127013217327772
  Basis Set: (AUG-CC-PVTZ AUX)
    Blend: AUG-CC-PVTZ-RI
    Molecular point group: c1

    Geometry (in Angstrom), charge = 0, multiplicity = 1:

       Center              X                  Y                   Z               Mass
    ------------   -----------------  -----------------  -----------------  -----------------
         O           -0.248861237703    -0.497840250209     0.005768299961    15.994914619570
         O            1.197888762297     1.279020749791     0.013337299961    15.994914619570
         N            1.946598762297    -0.900405250209    -0.061414700039    14.003074004430
         C           -1.338428237703     0.452360749791     0.002080299961    12.000000000000
         C           -2.614930237703    -0.357615250209     0.006845299961    12.000000000000
         C            0.986140762297     0.076604749791     0.003362299961    12.000000000000
         H           -1.254508237703     1.095656749791     0.882011299961     1.007825032230
         H           -1.255032237703     1.085505749791    -0.885139700039     1.007825032230
         H           -3.479962237703     0.311495749791     0.003450299961     1.007825032230
         H           -2.666459237703    -0.997408250209    -0.876643700039     1.007825032230
         H           -2.666637237703    -0.987803250209     0.897323299961     1.007825032230
         H            1.664123862297    -1.833986050209     0.201159899961     1.007825032230
         H            2.880147762297    -0.601054250209     0.181626299961     1.007825032230

  Basis Set: AUG-CC-PVTZ
    Blend: AUG-CC-PVTZ
  Basis Set: (AUG-CC-PVTZ AUX)
    Blend: AUG-CC-PVTZ-JKFIT
	 Reference Energy          =    -322.0127013217327772 [Eh]
	 Singles Energy            =      -0.0000000000000000 [Eh]
	 Same-Spin Energy          =      -0.3133219009989275 [Eh]
	 Opposite-Spin Energy      =      -0.9935178102747971 [Eh]
	 Correlation Energy        =      -1.3068397112737247 [Eh]
	 Total Energy              =    -323.3195410330064874 [Eh]

	 ================> DF-SCS-MP2 Energies <==================
	-----------------------------------------------------------
	 SCS Same-Spin Scale       =       0.3333333333333333 [-]
	 SCS Opposite-Spin Scale   =       1.2000000000000000 [-]
	 SCS Same-Spin Energy      =      -0.1044406336663092 [Eh]
	 SCS Opposite-Spin Energy  =      -1.1922213723297566 [Eh]
	 SCS Correlation Energy    =      -1.2966620059960656 [Eh]
	 SCS Total Energy          =    -323.3093633277288177 [Eh]
	-----------------------------------------------------------

  Dipole Moment: [D]
     X:    -0.6237      Y:    -2.1980      Z:     0.7056     Total:     2.3912

*** Psi4 exiting successfully. Buy a developer a beer!
