                               Psi4 1.4a3.dev225

  ==> Input File <==

--------------------------------------------------------------------------
#psi4
#
memory 32 gb

molecule  {
0 1
  O       -0.1791250    -0.4779340     0.0014420
  O        1.2676250     1.2989270     0.0090110
  N        2.0163350    -0.8804990    -0.0657410
  C       -1.2686920     0.4722670    -0.0022460
  C       -2.5451940    -0.3377090     0.0025190
  C        1.0558770     0.0965110    -0.0009640
  H       -1.1847720     1.1155630     0.8776850
  H       -1.1852960     1.1054120    -0.8894660
  H       -3.4102260     0.3314020    -0.0008760
  H       -2.5943637    -0.9482084    -0.8405185
  H       -2.5969010    -0.9678970     0.8929970
  H        1.7497370    -1.8166910     0.2040380
  H        2.9498840    -0.5811480     0.1773000
units angstrom
no_reorient  #important for SAPT in psi4, default
symmetry c1  #important for SAPT in psi4, default
}

set PROPERTIES_ORIGIN ["COM"]
properties('MP2/aug-cc-pvtz', properties = ['dipole'])
--------------------------------------------------------------------------

    Molecular point group: c1
  Charge       = 0
  Multiplicity = 1
  Basis Set: AUG-CC-PVTZ
    Blend: AUG-CC-PVTZ
  Basis Set: (AUG-CC-PVTZ AUX)
    Blend: AUG-CC-PVTZ-JKFIT

    Orbital Energies [Eh]
    ---------------------

    Doubly Occupied:

       1A    -20.601511     2A    -20.530086     3A    -15.589304
       4A    -11.405559     5A    -11.287592     6A    -11.218714
       7A     -1.456889     8A     -1.350750     9A     -1.216853
      10A     -1.037392    11A     -0.878389    12A     -0.800569
      13A     -0.744542    14A     -0.700942    15A     -0.683954
      16A     -0.642610    17A     -0.600356    18A     -0.583266
      19A     -0.546167    20A     -0.525333    21A     -0.514524
      22A     -0.463220    23A     -0.457479    24A     -0.431007

  @DF-RHF Final Energy:  -322.01161752639757

   => Energetics <=

    Nuclear Repulsion Energy =            246.3115904453575808
    One-Electron Energy =                -928.1123970198283359
    Two-Electron Energy =                 359.7891890480731263
    Total Energy =                       -322.0116175263975720
  Basis Set: (AUG-CC-PVTZ AUX)
    Blend: AUG-CC-PVTZ-RI
    Molecular point group: c1

    Geometry (in Angstrom), charge = 0, multiplicity = 1:

       Center              X                  Y                   Z               Mass
    ------------   -----------------  -----------------  -----------------  -----------------
         O           -0.249067631617    -0.498142236640     0.005228939365    15.994914619570
         O            1.197682368383     1.278718763360     0.012797939365    15.994914619570
         N            1.946392368383    -0.900707236640    -0.061954060635    14.003074004430
         C           -1.338634631617     0.452058763360     0.001540939365    12.000000000000
         C           -2.615136631617    -0.357917236640     0.006305939365    12.000000000000
         C            0.985934368383     0.076302763360     0.002822939365    12.000000000000
         H           -1.254714631617     1.095354763360     0.881471939365     1.007825032230
         H           -1.255238631617     1.085203763360    -0.885679060635     1.007825032230
         H           -3.480168631617     0.311193763360     0.002910939365     1.007825032230
         H           -2.664306331617    -0.968416636640    -0.836731560635     1.007825032230
         H           -2.666843631617    -0.988105236640     0.896783939365     1.007825032230
         H            1.679794368383    -1.836899236640     0.207824939365     1.007825032230
         H            2.879941368383    -0.601356236640     0.181086939365     1.007825032230

  Basis Set: AUG-CC-PVTZ
    Blend: AUG-CC-PVTZ
  Basis Set: (AUG-CC-PVTZ AUX)
    Blend: AUG-CC-PVTZ-JKFIT
	 Reference Energy          =    -322.0116175263975720 [Eh]
	 Singles Energy            =      -0.0000000000000000 [Eh]
	 Same-Spin Energy          =      -0.3133489572440068 [Eh]
	 Opposite-Spin Energy      =      -0.9932838939052508 [Eh]
	 Correlation Energy        =      -1.3066328511492578 [Eh]
	 Total Energy              =    -323.3182503775468035 [Eh]

	 ================> DF-SCS-MP2 Energies <==================
	-----------------------------------------------------------
	 SCS Same-Spin Scale       =       0.3333333333333333 [-]
	 SCS Opposite-Spin Scale   =       1.2000000000000000 [-]
	 SCS Same-Spin Energy      =      -0.1044496524146689 [Eh]
	 SCS Opposite-Spin Energy  =      -1.1919406726863009 [Eh]
	 SCS Correlation Energy    =      -1.2963903251009699 [Eh]
	 SCS Total Energy          =    -323.3080078514985303 [Eh]
	-----------------------------------------------------------

  Dipole Moment: [D]
     X:    -0.6221      Y:    -2.2121      Z:     0.6984     Total:     2.4017

*** Psi4 exiting successfully. Buy a developer a beer!
