                               Psi4 1.4a3.dev225

  ==> Input File <==

--------------------------------------------------------------------------
#psi4
#
memory 32 gb

molecule  {
0 1
  O       -0.1791250    -0.4779340     0.0014420
  O        1.2676250     1.2989270     0.0090110
  N        2.0163350    -0.8804990    -0.0657410
  C       -1.2686920     0.4722670    -0.0022460
  C       -2.5451940    -0.3377090     0.0025190
  C        1.0558770     0.0965110    -0.0009640
  H       -1.1847720     1.1155630     0.8776850
  H       -1.1852960     1.1054120    -0.8894660
  H       -3.4102260     0.3314020    -0.0008760
  H       -2.5967230    -0.9775020    -0.8809700
  H       -2.5969010    -0.9678970     0.8929970
  H        1.8025232    -1.6313256     0.1506219
  H        2.9498840    -0.5811480     0.1773000
units angstrom
no_reorient  #important for SAPT in psi4, default
symmetry c1  #important for SAPT in psi4, default
}

set PROPERTIES_ORIGIN ["COM"]
properties('MP2/aug-cc-pvtz', properties = ['dipole'])
--------------------------------------------------------------------------

    Molecular point group: c1
  Charge       = 0
  Multiplicity = 1
  Basis Set: AUG-CC-PVTZ
    Blend: AUG-CC-PVTZ
  Basis Set: (AUG-CC-PVTZ AUX)
    Blend: AUG-CC-PVTZ-JKFIT

    Orbital Energies [Eh]
    ---------------------

    Doubly Occupied:

       1A    -20.603226     2A    -20.531185     3A    -15.569527
       4A    -11.407028     5A    -11.289090     6A    -11.225287
       7A     -1.459614     8A     -1.352101     9A     -1.255422
      10A     -1.037278    11A     -0.882485    12A     -0.820058
      13A     -0.778075    14A     -0.706036    15A     -0.684500
      16A     -0.652924    17A     -0.599957    18A     -0.581999
      19A     -0.547179    20A     -0.523166    21A     -0.514839
      22A     -0.464316    23A     -0.459952    24A     -0.435827

  @DF-RHF Final Energy:  -321.96615657320518

   => Energetics <=

    Nuclear Repulsion Energy =            247.3179239833319798
    One-Electron Energy =                -929.8060136159490412
    Two-Electron Energy =                 360.5219330594118787
    Total Energy =                       -321.9661565732051827
  Basis Set: (AUG-CC-PVTZ AUX)
    Blend: AUG-CC-PVTZ-RI
    Molecular point group: c1

    Geometry (in Angstrom), charge = 0, multiplicity = 1:

       Center              X                  Y                   Z               Mass
    ------------   -----------------  -----------------  -----------------  -----------------
         O           -0.249638353874    -0.499908628191     0.006291315371    15.994914619570
         O            1.197111646126     1.276952371809     0.013860315371    15.994914619570
         N            1.945821646126    -0.902473628191    -0.060891684629    14.003074004430
         C           -1.339205353874     0.450292371809     0.002603315371    12.000000000000
         C           -2.615707353874    -0.359683628191     0.007368315371    12.000000000000
         C            0.985363646126     0.074536371809     0.003885315371    12.000000000000
         H           -1.255285353874     1.093588371809     0.882534315371     1.007825032230
         H           -1.255809353874     1.083437371809    -0.884616684629     1.007825032230
         H           -3.480739353874     0.309427371809     0.003973315371     1.007825032230
         H           -2.667236353874    -0.999476628191    -0.876120684629     1.007825032230
         H           -2.667414353874    -0.989871628191     0.897846315371     1.007825032230
         H            1.732009846126    -1.653300228191     0.155471215371     1.007825032230
         H            2.879370646126    -0.603122628191     0.182149315371     1.007825032230

  Basis Set: AUG-CC-PVTZ
    Blend: AUG-CC-PVTZ
  Basis Set: (AUG-CC-PVTZ AUX)
    Blend: AUG-CC-PVTZ-JKFIT
	 Reference Energy          =    -321.9661565732051827 [Eh]
	 Singles Energy            =      -0.0000000000000000 [Eh]
	 Same-Spin Energy          =      -0.3123642556764325 [Eh]
	 Opposite-Spin Energy      =      -0.9911437154860679 [Eh]
	 Correlation Energy        =      -1.3035079711625004 [Eh]
	 Total Energy              =    -323.2696645443676857 [Eh]

	 ================> DF-SCS-MP2 Energies <==================
	-----------------------------------------------------------
	 SCS Same-Spin Scale       =       0.3333333333333333 [-]
	 SCS Opposite-Spin Scale   =       1.2000000000000000 [-]
	 SCS Same-Spin Energy      =      -0.1041214185588108 [Eh]
	 SCS Opposite-Spin Energy  =      -1.1893724585832814 [Eh]
	 SCS Correlation Energy    =      -1.2934938771420923 [Eh]
	 SCS Total Energy          =    -323.2596504503472943 [Eh]
	-----------------------------------------------------------

  Dipole Moment: [D]
     X:    -0.5865      Y:    -2.0138      Z:     0.6796     Total:     2.2048

*** Psi4 exiting successfully. Buy a developer a beer!
