                               Psi4 1.4a3.dev225

  ==> Input File <==

--------------------------------------------------------------------------
#psi4
#
memory 32 gb

molecule  {
0 1
  O       -0.1791250    -0.4779340     0.0014420
  O        1.2676250     1.2989270     0.0090110
  N        2.0163350    -0.8804990    -0.0657410
  C       -1.2686920     0.4722670    -0.0022460
  C       -2.5029761    -0.3109205     0.0023614
  C        1.0558770     0.0965110    -0.0009640
  H       -1.1847720     1.1155630     0.8776850
  H       -1.1852960     1.1054120    -0.8894660
  H       -3.4102260     0.3314020    -0.0008760
  H       -2.5967230    -0.9775020    -0.8809700
  H       -2.5969010    -0.9678970     0.8929970
  H        1.7497370    -1.8166910     0.2040380
  H        2.9498840    -0.5811480     0.1773000
units angstrom
no_reorient  #important for SAPT in psi4, default
symmetry c1  #important for SAPT in psi4, default
}

set PROPERTIES_ORIGIN ["COM"]
properties('MP2/aug-cc-pvtz', properties = ['dipole'])
--------------------------------------------------------------------------

    Molecular point group: c1
  Charge       = 0
  Multiplicity = 1
  Basis Set: AUG-CC-PVTZ
    Blend: AUG-CC-PVTZ
  Basis Set: (AUG-CC-PVTZ AUX)
    Blend: AUG-CC-PVTZ-JKFIT

    Orbital Energies [Eh]
    ---------------------

    Doubly Occupied:

       1A    -20.601702     2A    -20.530296     3A    -15.589440
       4A    -11.405763     5A    -11.286117     6A    -11.226930
       7A     -1.457492     8A     -1.351347     9A     -1.217188
      10A     -1.044551    11A     -0.871441    12A     -0.800723
      13A     -0.745257    14A     -0.701616    15A     -0.685042
      16A     -0.643153    17A     -0.598567    18A     -0.583392
      19A     -0.545331    20A     -0.519612    21A     -0.513777
      22A     -0.461682    23A     -0.457504    24A     -0.431062

  @DF-RHF Final Energy:  -322.00965407265926

   => Energetics <=

    Nuclear Repulsion Energy =            246.8265155348536837
    One-Electron Energy =                -929.1343720598169966
    Two-Electron Energy =                 360.2982024523040536
    Total Energy =                       -322.0096540726592593
  Basis Set: (AUG-CC-PVTZ AUX)
    Blend: AUG-CC-PVTZ-RI
    Molecular point group: c1

    Geometry (in Angstrom), charge = 0, multiplicity = 1:

       Center              X                  Y                   Z               Mass
    ------------   -----------------  -----------------  -----------------  -----------------
         O           -0.254730182815    -0.501420695794     0.005707999965    15.994914619570
         O            1.192019817185     1.275440304206     0.013276999965    15.994914619570
         N            1.940729817185    -0.903985695794    -0.061475000035    14.003074004430
         C           -1.344297182815     0.448780304206     0.002019999965    12.000000000000
         C           -2.578581282815    -0.334407195794     0.006627399965    12.000000000000
         C            0.980271817185     0.073024304206     0.003301999965    12.000000000000
         H           -1.260377182815     1.092076304206     0.881950999965     1.007825032230
         H           -1.260901182815     1.081925304206    -0.885200000035     1.007825032230
         H           -3.485831182815     0.307915304206     0.003389999965     1.007825032230
         H           -2.672328182815    -1.000988695794    -0.876704000035     1.007825032230
         H           -2.672506182815    -0.991383695794     0.897262999965     1.007825032230
         H            1.674131817185    -1.840177695794     0.208303999965     1.007825032230
         H            2.874278817185    -0.604634695794     0.181565999965     1.007825032230

  Basis Set: AUG-CC-PVTZ
    Blend: AUG-CC-PVTZ
  Basis Set: (AUG-CC-PVTZ AUX)
    Blend: AUG-CC-PVTZ-JKFIT
	 Reference Energy          =    -322.0096540726592593 [Eh]
	 Singles Energy            =      -0.0000000000000000 [Eh]
	 Same-Spin Energy          =      -0.3137195671034850 [Eh]
	 Opposite-Spin Energy      =      -0.9939181210579404 [Eh]
	 Correlation Energy        =      -1.3076376881614253 [Eh]
	 Total Energy              =    -323.3172917608206944 [Eh]

	 ================> DF-SCS-MP2 Energies <==================
	-----------------------------------------------------------
	 SCS Same-Spin Scale       =       0.3333333333333333 [-]
	 SCS Opposite-Spin Scale   =       1.2000000000000000 [-]
	 SCS Same-Spin Energy      =      -0.1045731890344950 [Eh]
	 SCS Opposite-Spin Energy  =      -1.1927017452695285 [Eh]
	 SCS Correlation Energy    =      -1.2972749343040235 [Eh]
	 SCS Total Energy          =    -323.3069290069632871 [Eh]
	-----------------------------------------------------------

  Dipole Moment: [D]
     X:    -0.6294      Y:    -2.1974      Z:     0.7151     Total:     2.3950

*** Psi4 exiting successfully. Buy a developer a beer!
