                               Psi4 1.4a3.dev225

  ==> Input File <==

--------------------------------------------------------------------------
#psi4
#
memory 32 gb

molecule  {
0 1
  I       -2.0593870    -0.0000050     0.0008870
  C        2.1361270    -1.2244290    -0.0138000
  C        2.1361340     1.2244190    -0.0142730
  C        2.8182870    -0.0000010    -0.0208120
  C        0.7335970    -1.2186540    -0.0045600
  C        0.7335920     1.2186470    -0.0050340
  C        0.0490750     0.0000020     0.0008410
  C        2.8915970    -2.5298050     0.0156450
  C        2.8915460     2.5298400     0.0146700
  H        3.9079530    -0.0000080    -0.0344780
  H        0.1843020    -2.1569090    -0.0057920
  H        0.1843020     2.1569060    -0.0066320
  H        3.8558710    -2.4380930    -0.4900960
  H        2.3252680    -3.3261570    -0.4730740
  H        3.0845820    -2.8430750     1.0467350
  H        2.4294265     3.1799338    -0.3860100
  H        3.0830690     2.8443520     1.0456540
  H        3.8565230     2.4375450    -0.4896130
units angstrom
no_reorient  #important for SAPT in psi4, default
symmetry c1  #important for SAPT in psi4, default
}

set PROPERTIES_ORIGIN ["COM"]
properties('MP2/aug-cc-pvtz', properties = ['dipole'])
--------------------------------------------------------------------------

    Molecular point group: c1
  Charge       = 0
  Multiplicity = 1
  Basis Set: AUG-CC-PVTZ
    Blend: AUG-CC-PVTZ
  Basis Set: (AUG-CC-PVTZ AUX)
    Blend: AUG-CC-PVTZ-JKFIT + DEF2-UNIVERSAL-JKFIT

    Orbital Energies [Eh]
    ---------------------

    Doubly Occupied:

       1A    -11.290251     2A    -11.255110     3A    -11.254431
       4A    -11.242499     5A    -11.242220     6A    -11.235780
       7A    -11.231610     8A    -11.207547     9A     -7.717102
      10A     -5.548797    11A     -5.539231    12A     -5.539194
      13A     -2.278464    14A     -2.273520    15A     -2.273515
      16A     -2.262870    17A     -2.262864    18A     -1.167609
      19A     -1.071809    20A     -1.048093    21A     -0.965135
      22A     -0.941349    23A     -0.895009    24A     -0.799979
      25A     -0.786818    26A     -0.688734    27A     -0.663776
      28A     -0.610664    29A     -0.589852    30A     -0.581610
      31A     -0.575719    32A     -0.565971    33A     -0.549639
      34A     -0.541160    35A     -0.499287    36A     -0.495312
      37A     -0.450237    38A     -0.391888    39A     -0.367177
      40A     -0.331221    41A     -0.318295

  @DF-RHF Final Energy:  -602.91906134466547

   => Energetics <=

    Nuclear Repulsion Energy =            525.2412477292069752
    One-Electron Energy =               -1973.2179208398772516
    Two-Electron Energy =                 845.0576117660046975
    Total Energy =                       -602.9190613446654652
  Basis Set: (AUG-CC-PVTZ AUX)
    Blend: AUG-CC-PVTZ-RI + DEF2-QZVPP-RI
    Molecular point group: c1

    Geometry (in Angstrom), charge = 0, multiplicity = 1:

       Center              X                  Y                   Z               Mass
    ------------   -----------------  -----------------  -----------------  -----------------
         I           -1.776703906555     0.000628906112     0.000917177171   126.904471900000
         C            2.418810093445    -1.223795093888    -0.013769822829    12.000000000000
         C            2.418817093445     1.225052906112    -0.014242822829    12.000000000000
         C            3.100970093445     0.000632906112    -0.020781822829    12.000000000000
         C            1.016280093445    -1.218020093888    -0.004529822829    12.000000000000
         C            1.016275093445     1.219280906112    -0.005003822829    12.000000000000
         C            0.331758093445     0.000635906112     0.000871177171    12.000000000000
         C            3.174280093445    -2.529171093888     0.015675177171    12.000000000000
         C            3.174229093445     2.530473906112     0.014700177171    12.000000000000
         H            4.190636093445     0.000625906112    -0.034447822829     1.007825032230
         H            0.466985093445    -2.156275093888    -0.005761822829     1.007825032230
         H            0.466985093445     2.157539906112    -0.006601822829     1.007825032230
         H            4.138554093445    -2.437459093888    -0.490065822829     1.007825032230
         H            2.607951093445    -3.325523093888    -0.473043822829     1.007825032230
         H            3.367265093445    -2.842441093888     1.046765177171     1.007825032230
         H            2.712109593445     3.180567706112    -0.385979822829     1.007825032230
         H            3.365752093445     2.844985906112     1.045684177171     1.007825032230
         H            4.139206093445     2.438178906112    -0.489582822829     1.007825032230

  Basis Set: AUG-CC-PVTZ
    Blend: AUG-CC-PVTZ
  Basis Set: (AUG-CC-PVTZ AUX)
    Blend: AUG-CC-PVTZ-JKFIT + DEF2-UNIVERSAL-JKFIT
	 Reference Energy          =    -602.9190613446654652 [Eh]
	 Singles Energy            =      -0.0000000000000000 [Eh]
	 Same-Spin Energy          =      -0.4259328459781422 [Eh]
	 Opposite-Spin Energy      =      -1.2994169227967221 [Eh]
	 Correlation Energy        =      -1.7253497687748642 [Eh]
	 Total Energy              =    -604.6444111134403556 [Eh]

	 ================> DF-SCS-MP2 Energies <==================
	-----------------------------------------------------------
	 SCS Same-Spin Scale       =       0.3333333333333333 [-]
	 SCS Opposite-Spin Scale   =       1.2000000000000000 [-]
	 SCS Same-Spin Energy      =      -0.1419776153260474 [Eh]
	 SCS Opposite-Spin Energy  =      -1.5593003073560665 [Eh]
	 SCS Correlation Energy    =      -1.7012779226821140 [Eh]
	 SCS Total Energy          =    -604.6203392673476174 [Eh]
	-----------------------------------------------------------

  Dipole Moment: [D]
     X:     2.1988      Y:     0.0747      Z:     0.0591     Total:     2.2009

*** Psi4 exiting successfully. Buy a developer a beer!
