                               Psi4 1.4a3.dev225

  ==> Input File <==

--------------------------------------------------------------------------
#psi4
#
memory 32 gb

molecule  {
0 1
  I       -2.0593870    -0.0000050     0.0008870
  C        2.1792724    -1.2474914    -0.0142241
  C        2.1361340     1.2244190    -0.0142730
  C        2.8182870    -0.0000010    -0.0208120
  C        0.7335970    -1.2186540    -0.0045600
  C        0.7335920     1.2186470    -0.0050340
  C        0.0490750     0.0000020     0.0008410
  C        2.8915970    -2.5298050     0.0156450
  C        2.8915460     2.5298400     0.0146700
  H        3.9079530    -0.0000080    -0.0344780
  H        0.1843020    -2.1569090    -0.0057920
  H        0.1843020     2.1569060    -0.0066320
  H        3.8558710    -2.4380930    -0.4900960
  H        2.3252680    -3.3261570    -0.4730740
  H        3.0845820    -2.8430750     1.0467350
  H        2.3258810     3.3255980    -0.4757890
  H        3.0830690     2.8443520     1.0456540
  H        3.8565230     2.4375450    -0.4896130
units angstrom
no_reorient  #important for SAPT in psi4, default
symmetry c1  #important for SAPT in psi4, default
}

set PROPERTIES_ORIGIN ["COM"]
properties('MP2/aug-cc-pvtz', properties = ['dipole'])
--------------------------------------------------------------------------

    Molecular point group: c1
  Charge       = 0
  Multiplicity = 1
  Basis Set: AUG-CC-PVTZ
    Blend: AUG-CC-PVTZ
  Basis Set: (AUG-CC-PVTZ AUX)
    Blend: AUG-CC-PVTZ-JKFIT + DEF2-UNIVERSAL-JKFIT

    Orbital Energies [Eh]
    ---------------------

    Doubly Occupied:

       1A    -11.289833     2A    -11.258878     3A    -11.255817
       4A    -11.246457     5A    -11.242342     6A    -11.236978
       7A    -11.232013     8A    -11.231447     9A     -7.717016
      10A     -5.548733    11A     -5.539139    12A     -5.539088
      13A     -2.278401    14A     -2.273447    15A     -2.273438
      16A     -2.262758    17A     -2.262751    18A     -1.164520
      19A     -1.069309    20A     -1.047987    21A     -0.952099
      22A     -0.937525    23A     -0.893530    24A     -0.795516
      25A     -0.783895    26A     -0.686073    27A     -0.659203
      28A     -0.602701    29A     -0.592054    30A     -0.579141
      31A     -0.571996    32A     -0.561267    33A     -0.544750
      34A     -0.534994    35A     -0.502713    36A     -0.496039
      37A     -0.447747    38A     -0.391825    39A     -0.367003
      40A     -0.325838    41A     -0.319353

  @DF-RHF Final Energy:  -602.94928759909783

   => Energetics <=

    Nuclear Repulsion Energy =            523.7228910028502469
    One-Electron Energy =               -1970.3131312759928733
    Two-Electron Energy =                 843.6409526740447973
    Total Energy =                       -602.9492875990978291
  Basis Set: (AUG-CC-PVTZ AUX)
    Blend: AUG-CC-PVTZ-RI + DEF2-QZVPP-RI
    Molecular point group: c1

    Geometry (in Angstrom), charge = 0, multiplicity = 1:

       Center              X                  Y                   Z               Mass
    ------------   -----------------  -----------------  -----------------  -----------------
         I           -1.778485948742     0.001189073503     0.001329164523   126.904471900000
         C            2.460173451258    -1.246297326497    -0.013781935477    12.000000000000
         C            2.417035051258     1.225613073503    -0.013830835477    12.000000000000
         C            3.099188051258     0.001193073503    -0.020369835477    12.000000000000
         C            1.014498051258    -1.217459926497    -0.004117835477    12.000000000000
         C            1.014493051258     1.219841073503    -0.004591835477    12.000000000000
         C            0.329976051258     0.001196073503     0.001283164523    12.000000000000
         C            3.172498051258    -2.528610926497     0.016087164523    12.000000000000
         C            3.172447051258     2.531034073503     0.015112164523    12.000000000000
         H            4.188854051258     0.001186073503    -0.034035835477     1.007825032230
         H            0.465203051258    -2.155714926497    -0.005349835477     1.007825032230
         H            0.465203051258     2.158100073503    -0.006189835477     1.007825032230
         H            4.136772051258    -2.436898926497    -0.489653835477     1.007825032230
         H            2.606169051258    -3.324962926497    -0.472631835477     1.007825032230
         H            3.365483051258    -2.841880926497     1.047177164523     1.007825032230
         H            2.606782051258     3.326792073503    -0.475346835477     1.007825032230
         H            3.363970051258     2.845546073503     1.046096164523     1.007825032230
         H            4.137424051258     2.438739073503    -0.489170835477     1.007825032230

  Basis Set: AUG-CC-PVTZ
    Blend: AUG-CC-PVTZ
  Basis Set: (AUG-CC-PVTZ AUX)
    Blend: AUG-CC-PVTZ-JKFIT + DEF2-UNIVERSAL-JKFIT
	 Reference Energy          =    -602.9492875990978291 [Eh]
	 Singles Energy            =      -0.0000000000000000 [Eh]
	 Same-Spin Energy          =      -0.4263142697633082 [Eh]
	 Opposite-Spin Energy      =      -1.3008571645387819 [Eh]
	 Correlation Energy        =      -1.7271714343020901 [Eh]
	 Total Energy              =    -604.6764590333999649 [Eh]

	 ================> DF-SCS-MP2 Energies <==================
	-----------------------------------------------------------
	 SCS Same-Spin Scale       =       0.3333333333333333 [-]
	 SCS Opposite-Spin Scale   =       1.2000000000000000 [-]
	 SCS Same-Spin Energy      =      -0.1421047565877694 [Eh]
	 SCS Opposite-Spin Energy  =      -1.5610285974465381 [Eh]
	 SCS Correlation Energy    =      -1.7031333540343074 [Eh]
	 SCS Total Energy          =    -604.6524209531321503 [Eh]
	-----------------------------------------------------------

  Dipole Moment: [D]
     X:     2.2338      Y:    -0.0676      Z:     0.0835     Total:     2.2364

*** Psi4 exiting successfully. Buy a developer a beer!
