                               Psi4 1.4a3.dev225

  ==> Input File <==

--------------------------------------------------------------------------
#psi4
#
memory 32 gb

molecule  {
0 1
  I       -2.0593870    -0.0000050     0.0008870
  C        2.1164737    -1.2363580    -0.0266305
  C        2.1361340     1.2244190    -0.0142730
  C        2.8182870    -0.0000010    -0.0208120
  C        0.7335970    -1.2186540    -0.0045600
  C        0.7335920     1.2186470    -0.0050340
  C        0.0490750     0.0000020     0.0008410
  C        2.8915970    -2.5298050     0.0156450
  C        2.8915460     2.5298400     0.0146700
  H        3.9079530    -0.0000080    -0.0344780
  H        0.1843020    -2.1569090    -0.0057920
  H        0.1843020     2.1569060    -0.0066320
  H        3.8558710    -2.4380930    -0.4900960
  H        2.3252680    -3.3261570    -0.4730740
  H        3.0845820    -2.8430750     1.0467350
  H        2.3258810     3.3255980    -0.4757890
  H        3.0830690     2.8443520     1.0456540
  H        3.8565230     2.4375450    -0.4896130
units angstrom
no_reorient  #important for SAPT in psi4, default
symmetry c1  #important for SAPT in psi4, default
}

set PROPERTIES_ORIGIN ["COM"]
properties('MP2/aug-cc-pvtz', properties = ['dipole'])
--------------------------------------------------------------------------

    Molecular point group: c1
  Charge       = 0
  Multiplicity = 1
  Basis Set: AUG-CC-PVTZ
    Blend: AUG-CC-PVTZ
  Basis Set: (AUG-CC-PVTZ AUX)
    Blend: AUG-CC-PVTZ-JKFIT + DEF2-UNIVERSAL-JKFIT

    Orbital Energies [Eh]
    ---------------------

    Doubly Occupied:

       1A    -11.290546     2A    -11.255423     3A    -11.255280
       4A    -11.243022     5A    -11.240639     6A    -11.238614
       7A    -11.231910     8A    -11.231854     9A     -7.717424
      10A     -5.549126    11A     -5.539544    12A     -5.539513
      13A     -2.278794    14A     -2.273850    15A     -2.273837
      16A     -2.263180    17A     -2.263173    18A     -1.167584
      19A     -1.068203    20A     -1.045594    21A     -0.947806
      22A     -0.940238    23A     -0.895579    24A     -0.792194
      25A     -0.788559    26A     -0.688462    27A     -0.659952
      28A     -0.593669    29A     -0.589459    30A     -0.578512
      31A     -0.574060    32A     -0.560116    33A     -0.549379
      34A     -0.538017    35A     -0.499066    36A     -0.491185
      37A     -0.452127    38A     -0.391207    39A     -0.367478
      40A     -0.333805    41A     -0.317042

  @DF-RHF Final Energy:  -602.95267768742929

   => Energetics <=

    Nuclear Repulsion Energy =            524.2918889340295436
    One-Electron Energy =               -1971.4590858371830109
    Two-Electron Energy =                 844.2145192157242946
    Total Energy =                       -602.9526776874292864
  Basis Set: (AUG-CC-PVTZ AUX)
    Blend: AUG-CC-PVTZ-RI + DEF2-QZVPP-RI
    Molecular point group: c1

    Geometry (in Angstrom), charge = 0, multiplicity = 1:

       Center              X                  Y                   Z               Mass
    ------------   -----------------  -----------------  -----------------  -----------------
         I           -1.775237388622     0.000613145670     0.001970944310   126.904471900000
         C            2.400623311378    -1.235739854330    -0.025546555690    12.000000000000
         C            2.420283611378     1.225037145670    -0.013189055690    12.000000000000
         C            3.102436611378     0.000617145670    -0.019728055690    12.000000000000
         C            1.017746611378    -1.218035854330    -0.003476055690    12.000000000000
         C            1.017741611378     1.219265145670    -0.003950055690    12.000000000000
         C            0.333224611378     0.000620145670     0.001924944310    12.000000000000
         C            3.175746611378    -2.529186854330     0.016728944310    12.000000000000
         C            3.175695611378     2.530458145670     0.015753944310    12.000000000000
         H            4.192102611378     0.000610145670    -0.033394055690     1.007825032230
         H            0.468451611378    -2.156290854330    -0.004708055690     1.007825032230
         H            0.468451611378     2.157524145670    -0.005548055690     1.007825032230
         H            4.140020611378    -2.437474854330    -0.489012055690     1.007825032230
         H            2.609417611378    -3.325538854330    -0.471990055690     1.007825032230
         H            3.368731611378    -2.842456854330     1.047818944310     1.007825032230
         H            2.610030611378     3.326216145670    -0.474705055690     1.007825032230
         H            3.367218611378     2.844970145670     1.046737944310     1.007825032230
         H            4.140672611378     2.438163145670    -0.488529055690     1.007825032230

  Basis Set: AUG-CC-PVTZ
    Blend: AUG-CC-PVTZ
  Basis Set: (AUG-CC-PVTZ AUX)
    Blend: AUG-CC-PVTZ-JKFIT + DEF2-UNIVERSAL-JKFIT
	 Reference Energy          =    -602.9526776874292864 [Eh]
	 Singles Energy            =      -0.0000000000000000 [Eh]
	 Same-Spin Energy          =      -0.4258484275042268 [Eh]
	 Opposite-Spin Energy      =      -1.3001287639658861 [Eh]
	 Correlation Energy        =      -1.7259771914701130 [Eh]
	 Total Energy              =    -604.6786548788993514 [Eh]

	 ================> DF-SCS-MP2 Energies <==================
	-----------------------------------------------------------
	 SCS Same-Spin Scale       =       0.3333333333333333 [-]
	 SCS Opposite-Spin Scale   =       1.2000000000000000 [-]
	 SCS Same-Spin Energy      =      -0.1419494758347423 [Eh]
	 SCS Opposite-Spin Energy  =      -1.5601545167590631 [Eh]
	 SCS Correlation Energy    =      -1.7021039925938053 [Eh]
	 SCS Total Energy          =    -604.6547816800231203 [Eh]
	-----------------------------------------------------------

  Dipole Moment: [D]
     X:     2.1926      Y:     0.0058      Z:     0.0839     Total:     2.1943

*** Psi4 exiting successfully. Buy a developer a beer!
