                               Psi4 1.4a3.dev225

  ==> Input File <==

--------------------------------------------------------------------------
#psi4
#
memory 32 gb

molecule  {
0 1
  I       -2.0593870    -0.0000050     0.0008870
  C        2.1361270    -1.2244290    -0.0138000
  C        2.1361340     1.2244190    -0.0142730
  C        2.8182870    -0.0000010    -0.0208120
  C        0.6024673    -1.2835323    -0.0034673
  C        0.7335920     1.2186470    -0.0050340
  C        0.0490750     0.0000020     0.0008410
  C        2.8915970    -2.5298050     0.0156450
  C        2.8915460     2.5298400     0.0146700
  H        3.9079530    -0.0000080    -0.0344780
  H        0.1843020    -2.1569090    -0.0057920
  H        0.1843020     2.1569060    -0.0066320
  H        3.8558710    -2.4380930    -0.4900960
  H        2.3252680    -3.3261570    -0.4730740
  H        3.0845820    -2.8430750     1.0467350
  H        2.3258810     3.3255980    -0.4757890
  H        3.0830690     2.8443520     1.0456540
  H        3.8565230     2.4375450    -0.4896130
units angstrom
no_reorient  #important for SAPT in psi4, default
symmetry c1  #important for SAPT in psi4, default
}

set PROPERTIES_ORIGIN ["COM"]
properties('MP2/aug-cc-pvtz', properties = ['dipole'])
--------------------------------------------------------------------------

    Molecular point group: c1
  Charge       = 0
  Multiplicity = 1
  Basis Set: AUG-CC-PVTZ
    Blend: AUG-CC-PVTZ
  Basis Set: (AUG-CC-PVTZ AUX)
    Blend: AUG-CC-PVTZ-JKFIT + DEF2-UNIVERSAL-JKFIT

    Orbital Energies [Eh]
    ---------------------

    Doubly Occupied:

       1A    -11.296465     2A    -11.271911     3A    -11.261000
       4A    -11.248316     5A    -11.242725     6A    -11.237876
       7A    -11.234290     8A    -11.233312     9A     -7.711815
      10A     -5.543316    11A     -5.534088    12A     -5.534024
      13A     -2.272984    14A     -2.268187    15A     -2.268148
      16A     -2.257887    17A     -2.257880    18A     -1.160245
      19A     -1.062546    20A     -1.049964    21A     -0.952429
      22A     -0.942231    23A     -0.890767    24A     -0.803338
      25A     -0.776699    26A     -0.706295    27A     -0.656270
      28A     -0.610477    29A     -0.590225    30A     -0.581233
      31A     -0.577100    32A     -0.563005    33A     -0.549559
      34A     -0.535033    35A     -0.505292    36A     -0.495667
      37A     -0.432982    38A     -0.391461    39A     -0.362477
      40A     -0.321613    41A     -0.321194

  @DF-RHF Final Energy:  -602.92440082578787

   => Energetics <=

    Nuclear Repulsion Energy =            522.7987174196515525
    One-Electron Energy =               -1968.4215899432467722
    Two-Electron Energy =                 842.6984716978072356
    Total Energy =                       -602.9244008257878704
  Basis Set: (AUG-CC-PVTZ AUX)
    Blend: AUG-CC-PVTZ-RI + DEF2-QZVPP-RI
    Molecular point group: c1

    Geometry (in Angstrom), charge = 0, multiplicity = 1:

       Center              X                  Y                   Z               Mass
    ------------   -----------------  -----------------  -----------------  -----------------
         I           -1.769470743971     0.003352198937     0.001250700861   126.904471900000
         C            2.426043256029    -1.221071801063    -0.013436299139    12.000000000000
         C            2.426050256029     1.227776198937    -0.013909299139    12.000000000000
         C            3.108203256029     0.003356198937    -0.020448299139    12.000000000000
         C            0.892383556029    -1.280175101063    -0.003103599139    12.000000000000
         C            1.023508256029     1.222004198937    -0.004670299139    12.000000000000
         C            0.338991256029     0.003359198937     0.001204700861    12.000000000000
         C            3.181513256029    -2.526447801063     0.016008700861    12.000000000000
         C            3.181462256029     2.533197198937     0.015033700861    12.000000000000
         H            4.197869256029     0.003349198937    -0.034114299139     1.007825032230
         H            0.474218256029    -2.153551801063    -0.005428299139     1.007825032230
         H            0.474218256029     2.160263198937    -0.006268299139     1.007825032230
         H            4.145787256029    -2.434735801063    -0.489732299139     1.007825032230
         H            2.615184256029    -3.322799801063    -0.472710299139     1.007825032230
         H            3.374498256029    -2.839717801063     1.047098700861     1.007825032230
         H            2.615797256029     3.328955198937    -0.475425299139     1.007825032230
         H            3.372985256029     2.847709198937     1.046017700861     1.007825032230
         H            4.146439256029     2.440902198937    -0.489249299139     1.007825032230

  Basis Set: AUG-CC-PVTZ
    Blend: AUG-CC-PVTZ
  Basis Set: (AUG-CC-PVTZ AUX)
    Blend: AUG-CC-PVTZ-JKFIT + DEF2-UNIVERSAL-JKFIT
	 Reference Energy          =    -602.9244008257878704 [Eh]
	 Singles Energy            =      -0.0000000000000000 [Eh]
	 Same-Spin Energy          =      -0.4261542611395685 [Eh]
	 Opposite-Spin Energy      =      -1.3016835563326343 [Eh]
	 Correlation Energy        =      -1.7278378174722029 [Eh]
	 Total Energy              =    -604.6522386432600342 [Eh]

	 ================> DF-SCS-MP2 Energies <==================
	-----------------------------------------------------------
	 SCS Same-Spin Scale       =       0.3333333333333333 [-]
	 SCS Opposite-Spin Scale   =       1.2000000000000000 [-]
	 SCS Same-Spin Energy      =      -0.1420514203798562 [Eh]
	 SCS Opposite-Spin Energy  =      -1.5620202675991612 [Eh]
	 SCS Correlation Energy    =      -1.7040716879790174 [Eh]
	 SCS Total Energy          =    -604.6284725137668374 [Eh]
	-----------------------------------------------------------

  Dipole Moment: [D]
     X:     2.5082      Y:    -0.0329      Z:     0.0822     Total:     2.5097

*** Psi4 exiting successfully. Buy a developer a beer!
