                               Psi4 1.4a3.dev225

  ==> Input File <==

--------------------------------------------------------------------------
#psi4
#
memory 32 gb

molecule  {
0 1
  I       -2.0593870    -0.0000050     0.0008870
  C        2.1361270    -1.2244290    -0.0138000
  C        2.1361340     1.2244190    -0.0142730
  C        2.8182870    -0.0000010    -0.0208120
  C        0.7335970    -1.2186540    -0.0045600
  C        0.7335920     1.2186470    -0.0050340
  C        0.0490750     0.0000020     0.0008410
  C        2.8915970    -2.5298050     0.0156450
  C        2.8915460     2.5298400     0.0146700
  H        3.9079530    -0.0000080    -0.0344780
  H        0.1843020    -2.1569090    -0.0057920
  H        0.1843020     2.1569060    -0.0066320
  H        3.9039323    -2.4698440    -0.3912841
  H        2.3252680    -3.3261570    -0.4730740
  H        3.0845820    -2.8430750     1.0467350
  H        2.3258810     3.3255980    -0.4757890
  H        3.0830690     2.8443520     1.0456540
  H        3.8565230     2.4375450    -0.4896130
units angstrom
no_reorient  #important for SAPT in psi4, default
symmetry c1  #important for SAPT in psi4, default
}

set PROPERTIES_ORIGIN ["COM"]
properties('MP2/aug-cc-pvtz', properties = ['dipole'])
--------------------------------------------------------------------------

    Molecular point group: c1
  Charge       = 0
  Multiplicity = 1
  Basis Set: AUG-CC-PVTZ
    Blend: AUG-CC-PVTZ
  Basis Set: (AUG-CC-PVTZ AUX)
    Blend: AUG-CC-PVTZ-JKFIT + DEF2-UNIVERSAL-JKFIT

    Orbital Energies [Eh]
    ---------------------

    Doubly Occupied:

       1A    -11.290596     2A    -11.256531     3A    -11.255665
       4A    -11.242979     5A    -11.242631     6A    -11.236873
       7A    -11.232027     8A    -11.232002     9A     -7.717364
      10A     -5.549067    11A     -5.539487    12A     -5.539451
      13A     -2.278735    14A     -2.273787    15A     -2.273781
      16A     -2.263121    17A     -2.263115    18A     -1.167656
      19A     -1.066901    20A     -1.046836    21A     -0.949595
      22A     -0.939197    23A     -0.895378    24A     -0.794600
      25A     -0.787434    26A     -0.688651    27A     -0.660449
      28A     -0.595891    29A     -0.587668    30A     -0.576959
      31A     -0.571330    32A     -0.560283    33A     -0.549812
      34A     -0.539607    35A     -0.497699    36A     -0.494696
      37A     -0.451186    38A     -0.392070    39A     -0.367422
      40A     -0.331024    41A     -0.318736

  @DF-RHF Final Energy:  -602.95216535322345

   => Energetics <=

    Nuclear Repulsion Energy =            524.1732313249084427
    One-Electron Energy =               -1971.2142115324054430
    Two-Electron Energy =                 844.0888148542734370
    Total Energy =                       -602.9521653532234495
  Basis Set: (AUG-CC-PVTZ AUX)
    Blend: AUG-CC-PVTZ-RI + DEF2-QZVPP-RI
    Molecular point group: c1

    Geometry (in Angstrom), charge = 0, multiplicity = 1:

       Center              X                  Y                   Z               Mass
    ------------   -----------------  -----------------  -----------------  -----------------
         I           -1.776462853035     0.000134005259     0.000877933344   126.904471900000
         C            2.419051146965    -1.224289994741    -0.013809066656    12.000000000000
         C            2.419058146965     1.224558005259    -0.014282066656    12.000000000000
         C            3.101211146965     0.000138005259    -0.020821066656    12.000000000000
         C            1.016521146965    -1.218514994741    -0.004569066656    12.000000000000
         C            1.016516146965     1.218786005259    -0.005043066656    12.000000000000
         C            0.331999146965     0.000141005259     0.000831933344    12.000000000000
         C            3.174521146965    -2.529665994741     0.015635933344    12.000000000000
         C            3.174470146965     2.529979005259     0.014660933344    12.000000000000
         H            4.190877146965     0.000131005259    -0.034487066656     1.007825032230
         H            0.467226146965    -2.156769994741    -0.005801066656     1.007825032230
         H            0.467226146965     2.157045005259    -0.006641066656     1.007825032230
         H            4.186856446965    -2.469704994741    -0.391293166656     1.007825032230
         H            2.608192146965    -3.326017994741    -0.473083066656     1.007825032230
         H            3.367506146965    -2.842935994741     1.046725933344     1.007825032230
         H            2.608805146965     3.325737005259    -0.475798066656     1.007825032230
         H            3.365993146965     2.844491005259     1.045644933344     1.007825032230
         H            4.139447146965     2.437684005259    -0.489622066656     1.007825032230

  Basis Set: AUG-CC-PVTZ
    Blend: AUG-CC-PVTZ
  Basis Set: (AUG-CC-PVTZ AUX)
    Blend: AUG-CC-PVTZ-JKFIT + DEF2-UNIVERSAL-JKFIT
	 Reference Energy          =    -602.9521653532234495 [Eh]
	 Singles Energy            =      -0.0000000000000000 [Eh]
	 Same-Spin Energy          =      -0.4259136243904192 [Eh]
	 Opposite-Spin Energy      =      -1.3000892683036835 [Eh]
	 Correlation Energy        =      -1.7260028926941027 [Eh]
	 Total Energy              =    -604.6781682459175045 [Eh]

	 ================> DF-SCS-MP2 Energies <==================
	-----------------------------------------------------------
	 SCS Same-Spin Scale       =       0.3333333333333333 [-]
	 SCS Opposite-Spin Scale   =       1.2000000000000000 [-]
	 SCS Same-Spin Energy      =      -0.1419712081301397 [Eh]
	 SCS Opposite-Spin Energy  =      -1.5601071219644203 [Eh]
	 SCS Correlation Energy    =      -1.7020783300945599 [Eh]
	 SCS Total Energy          =    -604.6542436833179863 [Eh]
	-----------------------------------------------------------

  Dipole Moment: [D]
     X:     2.2212      Y:    -0.0024      Z:     0.1108     Total:     2.2239

*** Psi4 exiting successfully. Buy a developer a beer!
