                               Psi4 1.4a3.dev225

  ==> Input File <==

--------------------------------------------------------------------------
#psi4
#
memory 32 gb

molecule  {
0 1
  I       -2.0593870    -0.0000050     0.0008870
  C        2.1575991    -1.2361485    -0.0140110
  C        2.1361340     1.2244190    -0.0142730
  C        2.8182870    -0.0000010    -0.0208120
  C        0.7335970    -1.2186540    -0.0045600
  C        0.7335920     1.2186470    -0.0050340
  C        0.0490750     0.0000020     0.0008410
  C        2.8915970    -2.5298050     0.0156450
  C        2.8915460     2.5298400     0.0146700
  H        3.9079530    -0.0000080    -0.0344780
  H        0.1843020    -2.1569090    -0.0057920
  H        0.1843020     2.1569060    -0.0066320
  H        3.8558710    -2.4380930    -0.4900960
  H        2.3252680    -3.3261570    -0.4730740
  H        3.0845820    -2.8430750     1.0467350
  H        2.3258810     3.3255980    -0.4757890
  H        3.0830690     2.8443520     1.0456540
  H        3.8565230     2.4375450    -0.4896130
units angstrom
no_reorient  #important for SAPT in psi4, default
symmetry c1  #important for SAPT in psi4, default
}

set PROPERTIES_ORIGIN ["COM"]
properties('MP2/aug-cc-pvtz', properties = ['dipole'])
--------------------------------------------------------------------------

    Molecular point group: c1
  Charge       = 0
  Multiplicity = 1
  Basis Set: AUG-CC-PVTZ
    Blend: AUG-CC-PVTZ
  Basis Set: (AUG-CC-PVTZ AUX)
    Blend: AUG-CC-PVTZ-JKFIT + DEF2-UNIVERSAL-JKFIT

    Orbital Energies [Eh]
    ---------------------

    Doubly Occupied:

       1A    -11.290117     2A    -11.257263     3A    -11.255730
       4A    -11.244580     5A    -11.242480     6A    -11.236879
       7A    -11.232007     8A    -11.231731     9A     -7.717137
      10A     -5.548845    11A     -5.539261    12A     -5.539218
      13A     -2.278513    14A     -2.273560    15A     -2.273558
      16A     -2.262889    17A     -2.262882    18A     -1.165967
      19A     -1.067816    20A     -1.047593    21A     -0.950673
      22A     -0.938292    23A     -0.894408    24A     -0.794725
      25A     -0.785459    26A     -0.687257    27A     -0.659540
      28A     -0.598557    29A     -0.590683    30A     -0.578510
      31A     -0.572685    32A     -0.560675    33A     -0.546726
      34A     -0.536447    35A     -0.499008    36A     -0.497339
      37A     -0.449332    38A     -0.391992    39A     -0.367164
      40A     -0.328502    41A     -0.319036

  @DF-RHF Final Energy:  -602.95206014645964

   => Energetics <=

    Nuclear Repulsion Energy =            523.9870510330634943
    One-Electron Energy =               -1970.8481511860325099
    Two-Electron Energy =                 843.9090400065092581
    Total Energy =                       -602.9520601464596439
  Basis Set: (AUG-CC-PVTZ AUX)
    Blend: AUG-CC-PVTZ-RI + DEF2-QZVPP-RI
    Molecular point group: c1

    Geometry (in Angstrom), charge = 0, multiplicity = 1:

       Center              X                  Y                   Z               Mass
    ------------   -----------------  -----------------  -----------------  -----------------
         I           -1.777364794673     0.000602308290     0.001318140917   126.904471900000
         C            2.439621305327    -1.235541191710    -0.013579859083    12.000000000000
         C            2.418156205327     1.225026308290    -0.013841859083    12.000000000000
         C            3.100309205327     0.000606308290    -0.020380859083    12.000000000000
         C            1.015619205327    -1.218046691710    -0.004128859083    12.000000000000
         C            1.015614205327     1.219254308290    -0.004602859083    12.000000000000
         C            0.331097205327     0.000609308290     0.001272140917    12.000000000000
         C            3.173619205327    -2.529197691710     0.016076140917    12.000000000000
         C            3.173568205327     2.530447308290     0.015101140917    12.000000000000
         H            4.189975205327     0.000599308290    -0.034046859083     1.007825032230
         H            0.466324205327    -2.156301691710    -0.005360859083     1.007825032230
         H            0.466324205327     2.157513308290    -0.006200859083     1.007825032230
         H            4.137893205327    -2.437485691710    -0.489664859083     1.007825032230
         H            2.607290205327    -3.325549691710    -0.472642859083     1.007825032230
         H            3.366604205327    -2.842467691710     1.047166140917     1.007825032230
         H            2.607903205327     3.326205308290    -0.475357859083     1.007825032230
         H            3.365091205327     2.844959308290     1.046085140917     1.007825032230
         H            4.138545205327     2.438152308290    -0.489181859083     1.007825032230

  Basis Set: AUG-CC-PVTZ
    Blend: AUG-CC-PVTZ
  Basis Set: (AUG-CC-PVTZ AUX)
    Blend: AUG-CC-PVTZ-JKFIT + DEF2-UNIVERSAL-JKFIT
	 Reference Energy          =    -602.9520601464596439 [Eh]
	 Singles Energy            =      -0.0000000000000000 [Eh]
	 Same-Spin Energy          =      -0.4260755780242824 [Eh]
	 Opposite-Spin Energy      =      -1.3004253435326230 [Eh]
	 Correlation Energy        =      -1.7265009215569054 [Eh]
	 Total Energy              =    -604.6785610680165064 [Eh]

	 ================> DF-SCS-MP2 Energies <==================
	-----------------------------------------------------------
	 SCS Same-Spin Scale       =       0.3333333333333333 [-]
	 SCS Opposite-Spin Scale   =       1.2000000000000000 [-]
	 SCS Same-Spin Energy      =      -0.1420251926747608 [Eh]
	 SCS Opposite-Spin Energy  =      -1.5605104122391475 [Eh]
	 SCS Correlation Energy    =      -1.7025356049139084 [Eh]
	 SCS Total Energy          =    -604.6545957513735630 [Eh]
	-----------------------------------------------------------

  Dipole Moment: [D]
     X:     2.2170      Y:    -0.0334      Z:     0.0812     Total:     2.2187

*** Psi4 exiting successfully. Buy a developer a beer!
