                               Psi4 1.4a3.dev225

  ==> Input File <==

--------------------------------------------------------------------------
#psi4
#
memory 32 gb

molecule  {
0 1
  I       -2.0581028     0.0735784     0.0005331
  C        2.1361270    -1.2244290    -0.0138000
  C        2.1361340     1.2244190    -0.0142730
  C        2.8182870    -0.0000010    -0.0208120
  C        0.7335970    -1.2186540    -0.0045600
  C        0.7335920     1.2186470    -0.0050340
  C        0.0490750     0.0000020     0.0008410
  C        2.8915970    -2.5298050     0.0156450
  C        2.8915460     2.5298400     0.0146700
  H        3.9079530    -0.0000080    -0.0344780
  H        0.1843020    -2.1569090    -0.0057920
  H        0.1843020     2.1569060    -0.0066320
  H        3.8558710    -2.4380930    -0.4900960
  H        2.3252680    -3.3261570    -0.4730740
  H        3.0845820    -2.8430750     1.0467350
  H        2.3258810     3.3255980    -0.4757890
  H        3.0830690     2.8443520     1.0456540
  H        3.8565230     2.4375450    -0.4896130
units angstrom
no_reorient  #important for SAPT in psi4, default
symmetry c1  #important for SAPT in psi4, default
}

set PROPERTIES_ORIGIN ["COM"]
properties('MP2/aug-cc-pvtz', properties = ['dipole'])
--------------------------------------------------------------------------

    Molecular point group: c1
  Charge       = 0
  Multiplicity = 1
  Basis Set: AUG-CC-PVTZ
    Blend: AUG-CC-PVTZ
  Basis Set: (AUG-CC-PVTZ AUX)
    Blend: AUG-CC-PVTZ-JKFIT + DEF2-UNIVERSAL-JKFIT

    Orbital Energies [Eh]
    ---------------------

    Doubly Occupied:

       1A    -11.290397     2A    -11.255930     3A    -11.255372
       4A    -11.243189     5A    -11.242027     6A    -11.236826
       7A    -11.232136     8A    -11.231858     9A     -7.717245
      10A     -5.548948    11A     -5.539368    12A     -5.539333
      13A     -2.278616    14A     -2.273669    15A     -2.273663
      16A     -2.263004    17A     -2.262998    18A     -1.167586
      19A     -1.066982    20A     -1.046899    21A     -0.949379
      22A     -0.938961    23A     -0.895231    24A     -0.793967
      25A     -0.786920    26A     -0.688481    27A     -0.659955
      28A     -0.594864    29A     -0.589542    30A     -0.577877
      31A     -0.573291    32A     -0.560143    33A     -0.549110
      34A     -0.537234    35A     -0.498719    36A     -0.494929
      37A     -0.450530    38A     -0.392183    39A     -0.367237
      40A     -0.331248    41A     -0.318673

  @DF-RHF Final Energy:  -602.95315703845358

   => Energetics <=

    Nuclear Repulsion Energy =            524.2937525080006935
    One-Electron Energy =               -1971.4647786176701629
    Two-Electron Energy =                 844.2178690712160005
    Total Energy =                       -602.9531570384535826
  Basis Set: (AUG-CC-PVTZ AUX)
    Blend: AUG-CC-PVTZ-RI + DEF2-QZVPP-RI
    Molecular point group: c1

    Geometry (in Angstrom), charge = 0, multiplicity = 1:

       Center              X                  Y                   Z               Mass
    ------------   -----------------  -----------------  -----------------  -----------------
         I           -1.775672384654     0.033324836565     0.001146930911   126.904471900000
         C            2.418557415346    -1.264682563435    -0.013186169089    12.000000000000
         C            2.418564415346     1.184165436565    -0.013659169089    12.000000000000
         C            3.100717415346    -0.040254563435    -0.020198169089    12.000000000000
         C            1.016027415346    -1.258907563435    -0.003946169089    12.000000000000
         C            1.016022415346     1.178393436565    -0.004420169089    12.000000000000
         C            0.331505415346    -0.040251563435     0.001454830911    12.000000000000
         C            3.174027415346    -2.570058563435     0.016258830911    12.000000000000
         C            3.173976415346     2.489586436565     0.015283830911    12.000000000000
         H            4.190383415346    -0.040261563435    -0.033864169089     1.007825032230
         H            0.466732415346    -2.197162563435    -0.005178169089     1.007825032230
         H            0.466732415346     2.116652436565    -0.006018169089     1.007825032230
         H            4.138301415346    -2.478346563435    -0.489482169089     1.007825032230
         H            2.607698415346    -3.366410563435    -0.472460169089     1.007825032230
         H            3.367012415346    -2.883328563435     1.047348830911     1.007825032230
         H            2.608311415346     3.285344436565    -0.475175169089     1.007825032230
         H            3.365499415346     2.804098436565     1.046267830911     1.007825032230
         H            4.138953415346     2.397291436565    -0.488999169089     1.007825032230

  Basis Set: AUG-CC-PVTZ
    Blend: AUG-CC-PVTZ
  Basis Set: (AUG-CC-PVTZ AUX)
    Blend: AUG-CC-PVTZ-JKFIT + DEF2-UNIVERSAL-JKFIT
	 Reference Energy          =    -602.9531570384535826 [Eh]
	 Singles Energy            =      -0.0000000000000000 [Eh]
	 Same-Spin Energy          =      -0.4258875854340960 [Eh]
	 Opposite-Spin Energy      =      -1.3001155836083149 [Eh]
	 Correlation Energy        =      -1.7260031690424109 [Eh]
	 Total Energy              =    -604.6791602074960110 [Eh]

	 ================> DF-SCS-MP2 Energies <==================
	-----------------------------------------------------------
	 SCS Same-Spin Scale       =       0.3333333333333333 [-]
	 SCS Opposite-Spin Scale   =       1.2000000000000000 [-]
	 SCS Same-Spin Energy      =      -0.1419625284780320 [Eh]
	 SCS Opposite-Spin Energy  =      -1.5601387003299778 [Eh]
	 SCS Correlation Energy    =      -1.7021012288080097 [Eh]
	 SCS Total Energy          =    -604.6552582672616154 [Eh]
	-----------------------------------------------------------

  Dipole Moment: [D]
     X:     2.2022      Y:    -0.0162      Z:     0.0791     Total:     2.2037

*** Psi4 exiting successfully. Buy a developer a beer!
