                               Psi4 1.4a3.dev225

  ==> Input File <==

--------------------------------------------------------------------------
#psi4
#
memory 32 gb

molecule  {
0 1
  I       -2.0593870    -0.0000050     0.0008870
  C        2.1361270    -1.2244290    -0.0138000
  C        2.1361340     1.2244190    -0.0142730
  C        2.8182870    -0.0000010    -0.0208120
  C        0.7335970    -1.2186540    -0.0045600
  C        0.7335920     1.2186470    -0.0050340
  C        0.2490750     0.0000027     0.0008366
  C        2.8915970    -2.5298050     0.0156450
  C        2.8915460     2.5298400     0.0146700
  H        3.9079530    -0.0000080    -0.0344780
  H        0.1843020    -2.1569090    -0.0057920
  H        0.1843020     2.1569060    -0.0066320
  H        3.8558710    -2.4380930    -0.4900960
  H        2.3252680    -3.3261570    -0.4730740
  H        3.0845820    -2.8430750     1.0467350
  H        2.3258810     3.3255980    -0.4757890
  H        3.0830690     2.8443520     1.0456540
  H        3.8565230     2.4375450    -0.4896130
units angstrom
no_reorient  #important for SAPT in psi4, default
symmetry c1  #important for SAPT in psi4, default
}

set PROPERTIES_ORIGIN ["COM"]
properties('MP2/aug-cc-pvtz', properties = ['dipole'])
--------------------------------------------------------------------------

    Molecular point group: c1
  Charge       = 0
  Multiplicity = 1
  Basis Set: AUG-CC-PVTZ
    Blend: AUG-CC-PVTZ
  Basis Set: (AUG-CC-PVTZ AUX)
    Blend: AUG-CC-PVTZ-JKFIT + DEF2-UNIVERSAL-JKFIT

    Orbital Energies [Eh]
    ---------------------

    Doubly Occupied:

       1A    -11.296912     2A    -11.265684     3A    -11.265666
       4A    -11.242923     5A    -11.242873     6A    -11.241060
       7A    -11.237664     8A    -11.237664     9A     -7.695296
      10A     -5.526061    11A     -5.517803    12A     -5.517693
      13A     -2.254749    14A     -2.251136    15A     -2.251016
      16A     -2.241828    17A     -2.241819    18A     -1.198576
      19A     -1.082497    20A     -1.058306    21A     -0.963648
      22A     -0.955259    23A     -0.868457    24A     -0.805074
      25A     -0.792908    26A     -0.705607    27A     -0.682695
      28A     -0.605022    29A     -0.600765    30A     -0.598521
      31A     -0.582650    32A     -0.567475    33A     -0.549542
      34A     -0.544881    35A     -0.522145    36A     -0.509633
      37A     -0.396663    38A     -0.380280    39A     -0.351133
      40A     -0.344215    41A     -0.329717

  @DF-RHF Final Energy:  -602.92685362569512

   => Energetics <=

    Nuclear Repulsion Energy =            525.1181736555129191
    One-Electron Energy =               -1973.0430232207118024
    Two-Electron Energy =                 844.9979959395037667
    Total Energy =                       -602.9268536256951165
  Basis Set: (AUG-CC-PVTZ AUX)
    Blend: AUG-CC-PVTZ-RI + DEF2-QZVPP-RI
    Molecular point group: c1

    Geometry (in Angstrom), charge = 0, multiplicity = 1:

       Center              X                  Y                   Z               Mass
    ------------   -----------------  -----------------  -----------------  -----------------
         I           -1.786599995662    -0.000003974552     0.001307453553   126.904471900000
         C            2.408914004338    -1.224427974552    -0.013379546447    12.000000000000
         C            2.408921004338     1.224420025448    -0.013852546447    12.000000000000
         C            3.091074004338     0.000000025448    -0.020391546447    12.000000000000
         C            1.006384004338    -1.218652974552    -0.004139546447    12.000000000000
         C            1.006379004338     1.218648025448    -0.004613546447    12.000000000000
         C            0.521862004338     0.000003725448     0.001257053553    12.000000000000
         C            3.164384004338    -2.529803974552     0.016065453553    12.000000000000
         C            3.164333004338     2.529841025448     0.015090453553    12.000000000000
         H            4.180740004338    -0.000006974552    -0.034057546447     1.007825032230
         H            0.457089004338    -2.156907974552    -0.005371546447     1.007825032230
         H            0.457089004338     2.156907025448    -0.006211546447     1.007825032230
         H            4.128658004338    -2.438091974552    -0.489675546447     1.007825032230
         H            2.598055004338    -3.326155974552    -0.472653546447     1.007825032230
         H            3.357369004338    -2.843073974552     1.047155453553     1.007825032230
         H            2.598668004338     3.325599025448    -0.475368546447     1.007825032230
         H            3.355856004338     2.844353025448     1.046074453553     1.007825032230
         H            4.129310004338     2.437546025448    -0.489192546447     1.007825032230

  Basis Set: AUG-CC-PVTZ
    Blend: AUG-CC-PVTZ
  Basis Set: (AUG-CC-PVTZ AUX)
    Blend: AUG-CC-PVTZ-JKFIT + DEF2-UNIVERSAL-JKFIT
	 Reference Energy          =    -602.9268536256951165 [Eh]
	 Singles Energy            =      -0.0000000000000000 [Eh]
	 Same-Spin Energy          =      -0.4257339267017312 [Eh]
	 Opposite-Spin Energy      =      -1.2981525508727372 [Eh]
	 Correlation Energy        =      -1.7238864775744682 [Eh]
	 Total Energy              =    -604.6507401032696407 [Eh]

	 ================> DF-SCS-MP2 Energies <==================
	-----------------------------------------------------------
	 SCS Same-Spin Scale       =       0.3333333333333333 [-]
	 SCS Opposite-Spin Scale   =       1.2000000000000000 [-]
	 SCS Same-Spin Energy      =      -0.1419113089005770 [Eh]
	 SCS Opposite-Spin Energy  =      -1.5577830610472845 [Eh]
	 SCS Correlation Energy    =      -1.6996943699478615 [Eh]
	 SCS Total Energy          =    -604.6265479956430227 [Eh]
	-----------------------------------------------------------

  Dipole Moment: [D]
     X:     3.3724      Y:     0.0001      Z:     0.0827     Total:     3.3734

*** Psi4 exiting successfully. Buy a developer a beer!
