                               Psi4 1.4a3.dev225

  ==> Input File <==

--------------------------------------------------------------------------
#psi4
#
memory 32 gb

molecule  {
0 1
  I       -2.0593870    -0.0000050     0.0008870
  C        2.1361270    -1.2244290    -0.0138000
  C        2.1361340     1.2244190    -0.0142730
  C        2.8182870    -0.0000010    -0.0208120
  C        0.7335970    -1.2186540    -0.0045600
  C        0.7335920     1.2186470    -0.0050340
  C       -0.0745591     0.0782304     0.0009193
  C        2.8915970    -2.5298050     0.0156450
  C        2.8915460     2.5298400     0.0146700
  H        3.9079530    -0.0000080    -0.0344780
  H        0.1843020    -2.1569090    -0.0057920
  H        0.1843020     2.1569060    -0.0066320
  H        3.8558710    -2.4380930    -0.4900960
  H        2.3252680    -3.3261570    -0.4730740
  H        3.0845820    -2.8430750     1.0467350
  H        2.3258810     3.3255980    -0.4757890
  H        3.0830690     2.8443520     1.0456540
  H        3.8565230     2.4375450    -0.4896130
units angstrom
no_reorient  #important for SAPT in psi4, default
symmetry c1  #important for SAPT in psi4, default
}

set PROPERTIES_ORIGIN ["COM"]
properties('MP2/aug-cc-pvtz', properties = ['dipole'])
--------------------------------------------------------------------------

    Molecular point group: c1
  Charge       = 0
  Multiplicity = 1
  Basis Set: AUG-CC-PVTZ
    Blend: AUG-CC-PVTZ
  Basis Set: (AUG-CC-PVTZ AUX)
    Blend: AUG-CC-PVTZ-JKFIT + DEF2-UNIVERSAL-JKFIT

    Orbital Energies [Eh]
    ---------------------

    Doubly Occupied:

       1A    -11.292753     2A    -11.253481     3A    -11.252296
       4A    -11.250811     5A    -11.242001     6A    -11.236612
       7A    -11.230710     8A    -11.230072     9A     -7.725803
      10A     -5.557893    11A     -5.547943    12A     -5.547874
      13A     -2.288604    14A     -2.282675    15A     -2.282520
      16A     -2.271602    17A     -2.271596    18A     -1.155809
      19A     -1.063384    20A     -1.044101    21A     -0.948744
      22A     -0.928765    23A     -0.909733    24A     -0.793863
      25A     -0.776809    26A     -0.680566    27A     -0.650171
      28A     -0.595381    29A     -0.586651    30A     -0.575047
      31A     -0.563228    32A     -0.557972    33A     -0.550011
      34A     -0.531337    35A     -0.490702    36A     -0.488515
      37A     -0.469421    38A     -0.401816    39A     -0.371518
      40A     -0.329201    41A     -0.305611

  @DF-RHF Final Energy:  -602.93086415312212

   => Energetics <=

    Nuclear Repulsion Energy =            524.0817680303410953
    One-Electron Energy =               -1970.9580552732961678
    Two-Electron Energy =                 843.9454230898330707
    Total Energy =                       -602.9308641531221156
  Basis Set: (AUG-CC-PVTZ AUX)
    Blend: AUG-CC-PVTZ-RI + DEF2-QZVPP-RI
    Molecular point group: c1

    Geometry (in Angstrom), charge = 0, multiplicity = 1:

       Center              X                  Y                   Z               Mass
    ------------   -----------------  -----------------  -----------------  -----------------
         I           -1.769858489374    -0.004050672757     0.001303175504   126.904471900000
         C            2.425655510626    -1.228474672757    -0.013383824496    12.000000000000
         C            2.425662510626     1.220373327243    -0.013856824496    12.000000000000
         C            3.107815510626    -0.004046672757    -0.020395824496    12.000000000000
         C            1.023125510626    -1.222699672757    -0.004143824496    12.000000000000
         C            1.023120510626     1.214601327243    -0.004617824496    12.000000000000
         C            0.214969410626     0.074184727243     0.001335475504    12.000000000000
         C            3.181125510626    -2.533850672757     0.016061175504    12.000000000000
         C            3.181074510626     2.525794327243     0.015086175504    12.000000000000
         H            4.197481510626    -0.004053672757    -0.034061824496     1.007825032230
         H            0.473830510626    -2.160954672757    -0.005375824496     1.007825032230
         H            0.473830510626     2.152860327243    -0.006215824496     1.007825032230
         H            4.145399510626    -2.442138672757    -0.489679824496     1.007825032230
         H            2.614796510626    -3.330202672757    -0.472657824496     1.007825032230
         H            3.374110510626    -2.847120672757     1.047151175504     1.007825032230
         H            2.615409510626     3.321552327243    -0.475372824496     1.007825032230
         H            3.372597510626     2.840306327243     1.046070175504     1.007825032230
         H            4.146051510626     2.433499327243    -0.489196824496     1.007825032230

  Basis Set: AUG-CC-PVTZ
    Blend: AUG-CC-PVTZ
  Basis Set: (AUG-CC-PVTZ AUX)
    Blend: AUG-CC-PVTZ-JKFIT + DEF2-UNIVERSAL-JKFIT
	 Reference Energy          =    -602.9308641531221156 [Eh]
	 Singles Energy            =      -0.0000000000000000 [Eh]
	 Same-Spin Energy          =      -0.4273731087816860 [Eh]
	 Opposite-Spin Energy      =      -1.3038729710471242 [Eh]
	 Correlation Energy        =      -1.7312460798288103 [Eh]
	 Total Energy              =    -604.6621102329509085 [Eh]

	 ================> DF-SCS-MP2 Energies <==================
	-----------------------------------------------------------
	 SCS Same-Spin Scale       =       0.3333333333333333 [-]
	 SCS Opposite-Spin Scale   =       1.2000000000000000 [-]
	 SCS Same-Spin Energy      =      -0.1424577029272286 [Eh]
	 SCS Opposite-Spin Energy  =      -1.5646475652565490 [Eh]
	 SCS Correlation Energy    =      -1.7071052681837777 [Eh]
	 SCS Total Energy          =    -604.6379694213059111 [Eh]
	-----------------------------------------------------------

  Dipole Moment: [D]
     X:     1.7020      Y:    -0.0281      Z:     0.0768     Total:     1.7040

*** Psi4 exiting successfully. Buy a developer a beer!
