                               Psi4 1.4a3.dev225

  ==> Input File <==

--------------------------------------------------------------------------
#psi4
#
memory 32 gb

molecule  {
0 1
  I       -2.0593870    -0.0000050     0.0008870
  C        2.0118825    -1.1464126    -0.0125810
  C        2.1361340     1.2244190    -0.0142730
  C        2.8182870    -0.0000010    -0.0208120
  C        0.7335970    -1.2186540    -0.0045600
  C        0.7335920     1.2186470    -0.0050340
  C        0.0490750     0.0000020     0.0008410
  C        2.8915970    -2.5298050     0.0156450
  C        2.8915460     2.5298400     0.0146700
  H        3.9079530    -0.0000080    -0.0344780
  H        0.1843020    -2.1569090    -0.0057920
  H        0.1843020     2.1569060    -0.0066320
  H        3.8558710    -2.4380930    -0.4900960
  H        2.3252680    -3.3261570    -0.4730740
  H        3.0845820    -2.8430750     1.0467350
  H        2.3258810     3.3255980    -0.4757890
  H        3.0830690     2.8443520     1.0456540
  H        3.8565230     2.4375450    -0.4896130
units angstrom
no_reorient  #important for SAPT in psi4, default
symmetry c1  #important for SAPT in psi4, default
}

set PROPERTIES_ORIGIN ["COM"]
properties('MP2/aug-cc-pvtz', properties = ['dipole'])
--------------------------------------------------------------------------

    Molecular point group: c1
  Charge       = 0
  Multiplicity = 1
  Basis Set: AUG-CC-PVTZ
    Blend: AUG-CC-PVTZ
  Basis Set: (AUG-CC-PVTZ AUX)
    Blend: AUG-CC-PVTZ-JKFIT + DEF2-UNIVERSAL-JKFIT

    Orbital Energies [Eh]
    ---------------------

    Doubly Occupied:

       1A    -11.292439     2A    -11.255611     3A    -11.246685
       4A    -11.243295     5A    -11.237624     6A    -11.232476
       7A    -11.231948     8A    -11.229797     9A     -7.717820
      10A     -5.549452    11A     -5.539974    12A     -5.539959
      13A     -2.279117    14A     -2.274235    15A     -2.274178
      16A     -2.263665    17A     -2.263658    18A     -1.181024
      19A     -1.071934    20A     -1.039187    21A     -0.949884
      22A     -0.934404    23A     -0.900098    24A     -0.795102
      25A     -0.788286    26A     -0.696492    27A     -0.663968
      28A     -0.591323    29A     -0.588242    30A     -0.572076
      31A     -0.569401    32A     -0.564303    33A     -0.553701
      34A     -0.536708    35A     -0.508559    36A     -0.470686
      37A     -0.444547    38A     -0.393769    39A     -0.367982
      40A     -0.348207    41A     -0.316946

  @DF-RHF Final Energy:  -602.92944742890154

   => Energetics <=

    Nuclear Repulsion Energy =            526.1305103348163357
    One-Electron Energy =               -1975.0823898606674902
    Two-Electron Energy =                 846.0224320969496148
    Total Energy =                       -602.9294474289015398
  Basis Set: (AUG-CC-PVTZ AUX)
    Blend: AUG-CC-PVTZ-RI + DEF2-QZVPP-RI
    Molecular point group: c1

    Geometry (in Angstrom), charge = 0, multiplicity = 1:

       Center              X                  Y                   Z               Mass
    ------------   -----------------  -----------------  -----------------  -----------------
         I           -1.769826913544    -0.004039706053     0.001244167395   126.904471900000
         C            2.301442586456    -1.150447306053    -0.012223832605    12.000000000000
         C            2.425694086456     1.220384293947    -0.013915832605    12.000000000000
         C            3.107847086456    -0.004035706053    -0.020454832605    12.000000000000
         C            1.023157086456    -1.222688706053    -0.004202832605    12.000000000000
         C            1.023152086456     1.214612293947    -0.004676832605    12.000000000000
         C            0.338635086456    -0.004032706053     0.001198167395    12.000000000000
         C            3.181157086456    -2.533839706053     0.016002167395    12.000000000000
         C            3.181106086456     2.525805293947     0.015027167395    12.000000000000
         H            4.197513086456    -0.004042706053    -0.034120832605     1.007825032230
         H            0.473862086456    -2.160943706053    -0.005434832605     1.007825032230
         H            0.473862086456     2.152871293947    -0.006274832605     1.007825032230
         H            4.145431086456    -2.442127706053    -0.489738832605     1.007825032230
         H            2.614828086456    -3.330191706053    -0.472716832605     1.007825032230
         H            3.374142086456    -2.847109706053     1.047092167395     1.007825032230
         H            2.615441086456     3.321563293947    -0.475431832605     1.007825032230
         H            3.372629086456     2.840317293947     1.046011167395     1.007825032230
         H            4.146083086456     2.433510293947    -0.489255832605     1.007825032230

  Basis Set: AUG-CC-PVTZ
    Blend: AUG-CC-PVTZ
  Basis Set: (AUG-CC-PVTZ AUX)
    Blend: AUG-CC-PVTZ-JKFIT + DEF2-UNIVERSAL-JKFIT
	 Reference Energy          =    -602.9294474289015398 [Eh]
	 Singles Energy            =      -0.0000000000000000 [Eh]
	 Same-Spin Energy          =      -0.4254542383889472 [Eh]
	 Opposite-Spin Energy      =      -1.3000302308367222 [Eh]
	 Correlation Energy        =      -1.7254844692256694 [Eh]
	 Total Energy              =    -604.6549318981271881 [Eh]

	 ================> DF-SCS-MP2 Energies <==================
	-----------------------------------------------------------
	 SCS Same-Spin Scale       =       0.3333333333333333 [-]
	 SCS Opposite-Spin Scale   =       1.2000000000000000 [-]
	 SCS Same-Spin Energy      =      -0.1418180794629824 [Eh]
	 SCS Opposite-Spin Energy  =      -1.5600362770040666 [Eh]
	 SCS Correlation Energy    =      -1.7018543564670490 [Eh]
	 SCS Total Energy          =    -604.6313017853685778 [Eh]
	-----------------------------------------------------------

  Dipole Moment: [D]
     X:     2.1149      Y:     0.2016      Z:     0.0682     Total:     2.1255

*** Psi4 exiting successfully. Buy a developer a beer!
