                               Psi4 1.4a3.dev225

  ==> Input File <==

--------------------------------------------------------------------------
#psi4
#
memory 32 gb

molecule  {
0 1
  I       -2.0478374     0.2203868    -0.0001730
  C        2.1361270    -1.2244290    -0.0138000
  C        2.1361340     1.2244190    -0.0142730
  C        2.8182870    -0.0000010    -0.0208120
  C        0.7335970    -1.2186540    -0.0045600
  C        0.7335920     1.2186470    -0.0050340
  C        0.0490750     0.0000020     0.0008410
  C        2.8915970    -2.5298050     0.0156450
  C        2.8915460     2.5298400     0.0146700
  H        3.9079530    -0.0000080    -0.0344780
  H        0.1843020    -2.1569090    -0.0057920
  H        0.1843020     2.1569060    -0.0066320
  H        3.8558710    -2.4380930    -0.4900960
  H        2.3252680    -3.3261570    -0.4730740
  H        3.0845820    -2.8430750     1.0467350
  H        2.3258810     3.3255980    -0.4757890
  H        3.0830690     2.8443520     1.0456540
  H        3.8565230     2.4375450    -0.4896130
units angstrom
no_reorient  #important for SAPT in psi4, default
symmetry c1  #important for SAPT in psi4, default
}

set PROPERTIES_ORIGIN ["COM"]
properties('MP2/aug-cc-pvtz', properties = ['dipole'])
--------------------------------------------------------------------------

    Molecular point group: c1
  Charge       = 0
  Multiplicity = 1
  Basis Set: AUG-CC-PVTZ
    Blend: AUG-CC-PVTZ
  Basis Set: (AUG-CC-PVTZ AUX)
    Blend: AUG-CC-PVTZ-JKFIT + DEF2-UNIVERSAL-JKFIT

    Orbital Energies [Eh]
    ---------------------

    Doubly Occupied:

       1A    -11.290339     2A    -11.256454     3A    -11.254776
       4A    -11.244335     5A    -11.240847     6A    -11.236812
       7A    -11.232410     8A    -11.231578     9A     -7.717222
      10A     -5.548957    11A     -5.539324    12A     -5.539295
      13A     -2.278630    14A     -2.273673    15A     -2.273665
      16A     -2.262949    17A     -2.262941    18A     -1.167650
      19A     -1.067040    20A     -1.047092    21A     -0.949497
      22A     -0.939218    23A     -0.894869    24A     -0.794168
      25A     -0.786708    26A     -0.688541    27A     -0.659988
      28A     -0.594916    29A     -0.589559    30A     -0.577891
      31A     -0.573361    32A     -0.560169    33A     -0.549047
      34A     -0.537213    35A     -0.498801    36A     -0.494959
      37A     -0.450272    38A     -0.392262    39A     -0.366641
      40A     -0.331338    41A     -0.318471

  @DF-RHF Final Energy:  -602.95129011728432

   => Energetics <=

    Nuclear Repulsion Energy =            524.5504930656412625
    One-Electron Energy =               -1971.9758106183257951
    Two-Electron Energy =                 844.4740274354003304
    Total Energy =                       -602.9512901172843158
  Basis Set: (AUG-CC-PVTZ AUX)
    Blend: AUG-CC-PVTZ-RI + DEF2-QZVPP-RI
    Molecular point group: c1

    Geometry (in Angstrom), charge = 0, multiplicity = 1:

       Center              X                  Y                   Z               Mass
    ------------   -----------------  -----------------  -----------------  -----------------
         I           -1.771022786974     0.099820053121     0.000827110843   126.904471900000
         C            2.412941613026    -1.344995746879    -0.012799889157    12.000000000000
         C            2.412948613026     1.103852253121    -0.013272889157    12.000000000000
         C            3.095101613026    -0.120567746879    -0.019811889157    12.000000000000
         C            1.010411613026    -1.339220746879    -0.003559889157    12.000000000000
         C            1.010406613026     1.098080253121    -0.004033889157    12.000000000000
         C            0.325889613026    -0.120564746879     0.001841110843    12.000000000000
         C            3.168411613026    -2.650371746879     0.016645110843    12.000000000000
         C            3.168360613026     2.409273253121     0.015670110843    12.000000000000
         H            4.184767613026    -0.120574746879    -0.033477889157     1.007825032230
         H            0.461116613026    -2.277475746879    -0.004791889157     1.007825032230
         H            0.461116613026     2.036339253121    -0.005631889157     1.007825032230
         H            4.132685613026    -2.558659746879    -0.489095889157     1.007825032230
         H            2.602082613026    -3.446723746879    -0.472073889157     1.007825032230
         H            3.361396613026    -2.963641746879     1.047735110843     1.007825032230
         H            2.602695613026     3.205031253121    -0.474788889157     1.007825032230
         H            3.359883613026     2.723785253121     1.046654110843     1.007825032230
         H            4.133337613026     2.316978253121    -0.488612889157     1.007825032230

  Basis Set: AUG-CC-PVTZ
    Blend: AUG-CC-PVTZ
  Basis Set: (AUG-CC-PVTZ AUX)
    Blend: AUG-CC-PVTZ-JKFIT + DEF2-UNIVERSAL-JKFIT
	 Reference Energy          =    -602.9512901172843158 [Eh]
	 Singles Energy            =      -0.0000000000000000 [Eh]
	 Same-Spin Energy          =      -0.4260117663360898 [Eh]
	 Opposite-Spin Energy      =      -1.3003493631671352 [Eh]
	 Correlation Energy        =      -1.7263611295032251 [Eh]
	 Total Energy              =    -604.6776512467874909 [Eh]

	 ================> DF-SCS-MP2 Energies <==================
	-----------------------------------------------------------
	 SCS Same-Spin Scale       =       0.3333333333333333 [-]
	 SCS Opposite-Spin Scale   =       1.2000000000000000 [-]
	 SCS Same-Spin Energy      =      -0.1420039221120299 [Eh]
	 SCS Opposite-Spin Energy  =      -1.5604192358005622 [Eh]
	 SCS Correlation Energy    =      -1.7024231579125921 [Eh]
	 SCS Total Energy          =    -604.6537132751968784 [Eh]
	-----------------------------------------------------------

  Dipole Moment: [D]
     X:     2.2104      Y:    -0.0485      Z:     0.0792     Total:     2.2123

*** Psi4 exiting successfully. Buy a developer a beer!
