                               Psi4 1.4a3.dev225

  ==> Input File <==

--------------------------------------------------------------------------
#psi4
#
memory 32 gb

molecule  {
0 1
  I       -2.0593870    -0.0000050     0.0008870
  C        2.1361270    -1.2244290    -0.0138000
  C        2.1361340     1.2244190    -0.0142730
  C        2.8182870    -0.0000010    -0.0208120
  C        0.7335970    -1.2186540    -0.0045600
  C        0.7335920     1.2186470    -0.0050340
  C        0.0980479    -0.0871846     0.0004546
  C        2.8915970    -2.5298050     0.0156450
  C        2.8915460     2.5298400     0.0146700
  H        3.9079530    -0.0000080    -0.0344780
  H        0.1843020    -2.1569090    -0.0057920
  H        0.1843020     2.1569060    -0.0066320
  H        3.8558710    -2.4380930    -0.4900960
  H        2.3252680    -3.3261570    -0.4730740
  H        3.0845820    -2.8430750     1.0467350
  H        2.3258810     3.3255980    -0.4757890
  H        3.0830690     2.8443520     1.0456540
  H        3.8565230     2.4375450    -0.4896130
units angstrom
no_reorient  #important for SAPT in psi4, default
symmetry c1  #important for SAPT in psi4, default
}

set PROPERTIES_ORIGIN ["COM"]
properties('MP2/aug-cc-pvtz', properties = ['dipole'])
--------------------------------------------------------------------------

    Molecular point group: c1
  Charge       = 0
  Multiplicity = 1
  Basis Set: AUG-CC-PVTZ
    Blend: AUG-CC-PVTZ
  Basis Set: (AUG-CC-PVTZ AUX)
    Blend: AUG-CC-PVTZ-JKFIT + DEF2-UNIVERSAL-JKFIT

    Orbital Energies [Eh]
    ---------------------

    Doubly Occupied:

       1A    -11.288921     2A    -11.258455     3A    -11.256321
       4A    -11.247873     5A    -11.237448     6A    -11.233583
       7A    -11.233542     8A    -11.232381     9A     -7.712919
      10A     -5.544441    11A     -5.535088    12A     -5.535032
      13A     -2.273793    14A     -2.269208    15A     -2.269175
      16A     -2.258755    17A     -2.258748    18A     -1.175363
      19A     -1.072162    20A     -1.049290    21A     -0.950565
      22A     -0.942367    23A     -0.888607    24A     -0.802314
      25A     -0.782629    26A     -0.692547    27A     -0.663155
      28A     -0.595291    29A     -0.591288    30A     -0.582740
      31A     -0.576978    32A     -0.561479    33A     -0.548004
      34A     -0.539239    35A     -0.504815    36A     -0.499147
      37A     -0.435805    38A     -0.389351    39A     -0.363972
      40A     -0.338926    41A     -0.318360

  @DF-RHF Final Energy:  -602.94291677231479

   => Energetics <=

    Nuclear Repulsion Energy =            524.4644804564620699
    One-Electron Energy =               -1971.7946402961285912
    Two-Electron Energy =                 844.3872430673517329
    Total Energy =                       -602.9429167723147884
  Basis Set: (AUG-CC-PVTZ AUX)
    Blend: AUG-CC-PVTZ-RI + DEF2-QZVPP-RI
    Molecular point group: c1

    Geometry (in Angstrom), charge = 0, multiplicity = 1:

       Center              X                  Y                   Z               Mass
    ------------   -----------------  -----------------  -----------------  -----------------
         I           -1.778787403774     0.004506201388     0.001327214312   126.904471900000
         C            2.416726596226    -1.219917798612    -0.013359785688    12.000000000000
         C            2.416733596226     1.228930201388    -0.013832785688    12.000000000000
         C            3.098886596226     0.004510201388    -0.020371785688    12.000000000000
         C            1.014196596226    -1.214142798612    -0.004119785688    12.000000000000
         C            1.014191596226     1.223158201388    -0.004593785688    12.000000000000
         C            0.378647496226    -0.082673398612     0.000894814312    12.000000000000
         C            3.172196596226    -2.525293798612     0.016085214312    12.000000000000
         C            3.172145596226     2.534351201388     0.015110214312    12.000000000000
         H            4.188552596226     0.004503201388    -0.034037785688     1.007825032230
         H            0.464901596226    -2.152397798612    -0.005351785688     1.007825032230
         H            0.464901596226     2.161417201388    -0.006191785688     1.007825032230
         H            4.136470596226    -2.433581798612    -0.489655785688     1.007825032230
         H            2.605867596226    -3.321645798612    -0.472633785688     1.007825032230
         H            3.365181596226    -2.838563798612     1.047175214312     1.007825032230
         H            2.606480596226     3.330109201388    -0.475348785688     1.007825032230
         H            3.363668596226     2.848863201388     1.046094214312     1.007825032230
         H            4.137122596226     2.442056201388    -0.489172785688     1.007825032230

  Basis Set: AUG-CC-PVTZ
    Blend: AUG-CC-PVTZ
  Basis Set: (AUG-CC-PVTZ AUX)
    Blend: AUG-CC-PVTZ-JKFIT + DEF2-UNIVERSAL-JKFIT
	 Reference Energy          =    -602.9429167723147884 [Eh]
	 Singles Energy            =      -0.0000000000000000 [Eh]
	 Same-Spin Energy          =      -0.4251723004593653 [Eh]
	 Opposite-Spin Energy      =      -1.2994406135511851 [Eh]
	 Correlation Energy        =      -1.7246129140105504 [Eh]
	 Total Energy              =    -604.6675296863253379 [Eh]

	 ================> DF-SCS-MP2 Energies <==================
	-----------------------------------------------------------
	 SCS Same-Spin Scale       =       0.3333333333333333 [-]
	 SCS Opposite-Spin Scale   =       1.2000000000000000 [-]
	 SCS Same-Spin Energy      =      -0.1417241001531218 [Eh]
	 SCS Opposite-Spin Energy  =      -1.5593287362614221 [Eh]
	 SCS Correlation Energy    =      -1.7010528364145439 [Eh]
	 SCS Total Energy          =    -604.6439696087293214 [Eh]
	-----------------------------------------------------------

  Dipole Moment: [D]
     X:     2.4383      Y:    -0.0010      Z:     0.0801     Total:     2.4396

*** Psi4 exiting successfully. Buy a developer a beer!
