                               Psi4 1.4a3.dev225

  ==> Input File <==

--------------------------------------------------------------------------
#psi4
#
memory 32 gb

molecule  {
0 1
  I       -2.0593870    -0.0000050     0.0008870
  C        2.1361270    -1.2244290    -0.0138000
  C        2.1361340     1.2244190    -0.0142730
  C        2.8182870    -0.0000010    -0.0208120
  C        0.7335970    -1.2186540    -0.0045600
  C        0.7335920     1.2186470    -0.0050340
  C        0.0920224    -0.0231453     0.0008005
  C        2.8915970    -2.5298050     0.0156450
  C        2.8915460     2.5298400     0.0146700
  H        3.9079530    -0.0000080    -0.0344780
  H        0.1843020    -2.1569090    -0.0057920
  H        0.1843020     2.1569060    -0.0066320
  H        3.8558710    -2.4380930    -0.4900960
  H        2.3252680    -3.3261570    -0.4730740
  H        3.0845820    -2.8430750     1.0467350
  H        2.3258810     3.3255980    -0.4757890
  H        3.0830690     2.8443520     1.0456540
  H        3.8565230     2.4375450    -0.4896130
units angstrom
no_reorient  #important for SAPT in psi4, default
symmetry c1  #important for SAPT in psi4, default
}

set PROPERTIES_ORIGIN ["COM"]
properties('MP2/aug-cc-pvtz', properties = ['dipole'])
--------------------------------------------------------------------------

    Molecular point group: c1
  Charge       = 0
  Multiplicity = 1
  Basis Set: AUG-CC-PVTZ
    Blend: AUG-CC-PVTZ
  Basis Set: (AUG-CC-PVTZ AUX)
    Blend: AUG-CC-PVTZ-JKFIT + DEF2-UNIVERSAL-JKFIT

    Orbital Energies [Eh]
    ---------------------

    Doubly Occupied:

       1A    -11.290264     2A    -11.257426     3A    -11.256864
       4A    -11.243536     5A    -11.239774     6A    -11.237255
       7A    -11.232982     8A    -11.232674     9A     -7.713543
      10A     -5.545087    11A     -5.535712    12A     -5.535653
      13A     -2.274484    14A     -2.269850    15A     -2.269820
      16A     -2.259374    17A     -2.259367    18A     -1.173115
      19A     -1.069492    20A     -1.048894    21A     -0.950105
      22A     -0.943291    23A     -0.889621    24A     -0.796820
      25A     -0.787625    26A     -0.691721    27A     -0.663787
      28A     -0.595369    29A     -0.590966    30A     -0.581455
      31A     -0.576584    32A     -0.561333    33A     -0.548540
      34A     -0.539024    35A     -0.502878    36A     -0.498295
      37A     -0.439778    38A     -0.389130    39A     -0.364685
      40A     -0.333847    41A     -0.321701

  @DF-RHF Final Energy:  -602.95234254615480

   => Energetics <=

    Nuclear Repulsion Energy =            524.4001337154052180
    One-Electron Energy =               -1971.6815073446709903
    Two-Electron Energy =                 844.3290310831109764
    Total Energy =                       -602.9523425461547959
  Basis Set: (AUG-CC-PVTZ AUX)
    Blend: AUG-CC-PVTZ-RI + DEF2-QZVPP-RI
    Molecular point group: c1

    Geometry (in Angstrom), charge = 0, multiplicity = 1:

       Center              X                  Y                   Z               Mass
    ------------   -----------------  -----------------  -----------------  -----------------
         I           -1.778475706255     0.001193465358     0.001309320997   126.904471900000
         C            2.417038293745    -1.223230534642    -0.013377679003    12.000000000000
         C            2.417045293745     1.225617465358    -0.013850679003    12.000000000000
         C            3.099198293745     0.001197465358    -0.020389679003    12.000000000000
         C            1.014508293745    -1.217455534642    -0.004137679003    12.000000000000
         C            1.014503293745     1.219845465358    -0.004611679003    12.000000000000
         C            0.372933693745    -0.021946834642     0.001222820997    12.000000000000
         C            3.172508293745    -2.528606534642     0.016067320997    12.000000000000
         C            3.172457293745     2.531038465358     0.015092320997    12.000000000000
         H            4.188864293745     0.001190465358    -0.034055679003     1.007825032230
         H            0.465213293745    -2.155710534642    -0.005369679003     1.007825032230
         H            0.465213293745     2.158104465358    -0.006209679003     1.007825032230
         H            4.136782293745    -2.436894534642    -0.489673679003     1.007825032230
         H            2.606179293745    -3.324958534642    -0.472651679003     1.007825032230
         H            3.365493293745    -2.841876534642     1.047157320997     1.007825032230
         H            2.606792293745     3.326796465358    -0.475366679003     1.007825032230
         H            3.363980293745     2.845550465358     1.046076320997     1.007825032230
         H            4.137434293745     2.438743465358    -0.489190679003     1.007825032230

  Basis Set: AUG-CC-PVTZ
    Blend: AUG-CC-PVTZ
  Basis Set: (AUG-CC-PVTZ AUX)
    Blend: AUG-CC-PVTZ-JKFIT + DEF2-UNIVERSAL-JKFIT
	 Reference Energy          =    -602.9523425461547959 [Eh]
	 Singles Energy            =      -0.0000000000000000 [Eh]
	 Same-Spin Energy          =      -0.4255540567716942 [Eh]
	 Opposite-Spin Energy      =      -1.2993388043041509 [Eh]
	 Correlation Energy        =      -1.7248928610758452 [Eh]
	 Total Energy              =    -604.6772354072306825 [Eh]

	 ================> DF-SCS-MP2 Energies <==================
	-----------------------------------------------------------
	 SCS Same-Spin Scale       =       0.3333333333333333 [-]
	 SCS Opposite-Spin Scale   =       1.2000000000000000 [-]
	 SCS Same-Spin Energy      =      -0.1418513522572314 [Eh]
	 SCS Opposite-Spin Energy  =      -1.5592065651649811 [Eh]
	 SCS Correlation Energy    =      -1.7010579174222125 [Eh]
	 SCS Total Energy          =    -604.6534004635769861 [Eh]
	-----------------------------------------------------------

  Dipole Moment: [D]
     X:     2.4069      Y:     0.0008      Z:     0.0799     Total:     2.4082

*** Psi4 exiting successfully. Buy a developer a beer!
