                               Psi4 1.4a3.dev225

  ==> Input File <==

--------------------------------------------------------------------------
#psi4
#
memory 32 gb

molecule  {
0 1
  I       -2.0593870    -0.0000050     0.0008870
  C        2.1361270    -1.2244290    -0.0138000
  C        2.1361340     1.2244190    -0.0142730
  C        2.8182870    -0.0000010    -0.0208120
  C        0.7335970    -1.2186540    -0.0045600
  C        0.7335920     1.2186470    -0.0050340
  C        0.0490750     0.0000020     0.0008410
  C        2.8915970    -2.5298050     0.0156450
  C        2.8915460     2.5298400     0.0146700
  H        3.9079530    -0.0000080    -0.0344780
  H        0.1843020    -2.1569090    -0.0057920
  H        0.1843020     2.1569060    -0.0066320
  H        3.8646306    -2.4433243    -0.4739836
  H        2.3252680    -3.3261570    -0.4730740
  H        3.0845820    -2.8430750     1.0467350
  H        2.3258810     3.3255980    -0.4757890
  H        3.0830690     2.8443520     1.0456540
  H        3.8565230     2.4375450    -0.4896130
units angstrom
no_reorient  #important for SAPT in psi4, default
symmetry c1  #important for SAPT in psi4, default
}

set PROPERTIES_ORIGIN ["COM"]
properties('MP2/aug-cc-pvtz', properties = ['dipole'])
--------------------------------------------------------------------------

    Molecular point group: c1
  Charge       = 0
  Multiplicity = 1
  Basis Set: AUG-CC-PVTZ
    Blend: AUG-CC-PVTZ
  Basis Set: (AUG-CC-PVTZ AUX)
    Blend: AUG-CC-PVTZ-JKFIT + DEF2-UNIVERSAL-JKFIT

    Orbital Energies [Eh]
    ---------------------

    Doubly Occupied:

       1A    -11.290437     2A    -11.255796     3A    -11.255657
       4A    -11.242679     5A    -11.242614     6A    -11.236840
       7A    -11.231999     8A    -11.231998     9A     -7.717269
      10A     -5.548968    11A     -5.539394    12A     -5.539358
      13A     -2.278636    14A     -2.273690    15A     -2.273684
      16A     -2.263031    17A     -2.263024    18A     -1.167591
      19A     -1.066956    20A     -1.046866    21A     -0.949389
      22A     -0.938965    23A     -0.895294    24A     -0.794041
      25A     -0.787033    26A     -0.688504    27A     -0.660031
      28A     -0.594981    29A     -0.589043    30A     -0.577381
      31A     -0.573117    32A     -0.560433    33A     -0.549260
      34A     -0.537788    35A     -0.498553    36A     -0.494914
      37A     -0.450678    38A     -0.392159    39A     -0.367330
      40A     -0.331207    41A     -0.318706

  @DF-RHF Final Energy:  -602.95335696712516

   => Energetics <=

    Nuclear Repulsion Energy =            524.2460200648976070
    One-Electron Energy =               -1971.3681691038141253
    Two-Electron Energy =                 844.1687920717914722
    Total Energy =                       -602.9533569671251598
  Basis Set: (AUG-CC-PVTZ AUX)
    Blend: AUG-CC-PVTZ-RI + DEF2-QZVPP-RI
    Molecular point group: c1

    Geometry (in Angstrom), charge = 0, multiplicity = 1:

       Center              X                  Y                   Z               Mass
    ------------   -----------------  -----------------  -----------------  -----------------
         I           -1.776292105089     0.000018789269     0.001237224920   126.904471900000
         C            2.419221894911    -1.224405210731    -0.013449775080    12.000000000000
         C            2.419228894911     1.224442789269    -0.013922775080    12.000000000000
         C            3.101381894911     0.000022789269    -0.020461775080    12.000000000000
         C            1.016691894911    -1.218630210731    -0.004209775080    12.000000000000
         C            1.016686894911     1.218670789269    -0.004683775080    12.000000000000
         C            0.332169894911     0.000025789269     0.001191224920    12.000000000000
         C            3.174691894911    -2.529781210731     0.015995224920    12.000000000000
         C            3.174640894911     2.529863789269     0.015020224920    12.000000000000
         H            4.191047894911     0.000015789269    -0.034127775080     1.007825032230
         H            0.467396894911    -2.156885210731    -0.005441775080     1.007825032230
         H            0.467396894911     2.156929789269    -0.006281775080     1.007825032230
         H            4.147725494911    -2.443300510731    -0.473633375080     1.007825032230
         H            2.608362894911    -3.326133210731    -0.472723775080     1.007825032230
         H            3.367676894911    -2.843051210731     1.047085224920     1.007825032230
         H            2.608975894911     3.325621789269    -0.475438775080     1.007825032230
         H            3.366163894911     2.844375789269     1.046004224920     1.007825032230
         H            4.139617894911     2.437568789269    -0.489262775080     1.007825032230

  Basis Set: AUG-CC-PVTZ
    Blend: AUG-CC-PVTZ
  Basis Set: (AUG-CC-PVTZ AUX)
    Blend: AUG-CC-PVTZ-JKFIT + DEF2-UNIVERSAL-JKFIT
	 Reference Energy          =    -602.9533569671251598 [Eh]
	 Singles Energy            =      -0.0000000000000000 [Eh]
	 Same-Spin Energy          =      -0.4258705663710787 [Eh]
	 Opposite-Spin Energy      =      -1.3000747756862281 [Eh]
	 Correlation Energy        =      -1.7259453420573068 [Eh]
	 Total Energy              =    -604.6793023091825034 [Eh]

	 ================> DF-SCS-MP2 Energies <==================
	-----------------------------------------------------------
	 SCS Same-Spin Scale       =       0.3333333333333333 [-]
	 SCS Opposite-Spin Scale   =       1.2000000000000000 [-]
	 SCS Same-Spin Energy      =      -0.1419568554570262 [Eh]
	 SCS Opposite-Spin Energy  =      -1.5600897308234736 [Eh]
	 SCS Correlation Energy    =      -1.7020465862804999 [Eh]
	 SCS Total Energy          =    -604.6554035534056766 [Eh]
	-----------------------------------------------------------

  Dipole Moment: [D]
     X:     2.2045      Y:     0.0000      Z:     0.0838     Total:     2.2061

*** Psi4 exiting successfully. Buy a developer a beer!
