                               Psi4 1.4a3.dev225

  ==> Input File <==

--------------------------------------------------------------------------
#psi4
#
memory 32 gb

molecule  {
0 1
  I       -2.0593870    -0.0000050     0.0008870
  C        2.1361270    -1.2244290    -0.0138000
  C        2.1361340     1.2244190    -0.0142730
  C        2.8182870    -0.0000010    -0.0208120
  C        0.6469234    -1.2634367    -0.0038374
  C        0.7335920     1.2186470    -0.0050340
  C        0.0490750     0.0000020     0.0008410
  C        2.8915970    -2.5298050     0.0156450
  C        2.8915460     2.5298400     0.0146700
  H        3.9079530    -0.0000080    -0.0344780
  H        0.1843020    -2.1569090    -0.0057920
  H        0.1843020     2.1569060    -0.0066320
  H        3.8558710    -2.4380930    -0.4900960
  H        2.3252680    -3.3261570    -0.4730740
  H        3.0845820    -2.8430750     1.0467350
  H        2.3258810     3.3255980    -0.4757890
  H        3.0830690     2.8443520     1.0456540
  H        3.8565230     2.4375450    -0.4896130
units angstrom
no_reorient  #important for SAPT in psi4, default
symmetry c1  #important for SAPT in psi4, default
}

set PROPERTIES_ORIGIN ["COM"]
properties('MP2/aug-cc-pvtz', properties = ['dipole'])
--------------------------------------------------------------------------

    Molecular point group: c1
  Charge       = 0
  Multiplicity = 1
  Basis Set: AUG-CC-PVTZ
    Blend: AUG-CC-PVTZ
  Basis Set: (AUG-CC-PVTZ AUX)
    Blend: AUG-CC-PVTZ-JKFIT + DEF2-UNIVERSAL-JKFIT

    Orbital Energies [Eh]
    ---------------------

    Doubly Occupied:

       1A    -11.294115     2A    -11.266896     3A    -11.259130
       4A    -11.246277     5A    -11.242580     6A    -11.237475
       7A    -11.233467     8A    -11.232823     9A     -7.713607
      10A     -5.545169    11A     -5.535832    12A     -5.535781
      13A     -2.274836    14A     -2.269987    15A     -2.269968
      16A     -2.259581    17A     -2.259575    18A     -1.162172
      19A     -1.063610    20A     -1.048951    21A     -0.950989
      22A     -0.941029    23A     -0.892131    24A     -0.799707
      25A     -0.779339    26A     -0.700020    27A     -0.657160
      28A     -0.604343    29A     -0.589967    30A     -0.580722
      31A     -0.576495    32A     -0.562301    33A     -0.549439
      34A     -0.536553    35A     -0.502630    36A     -0.496400
      37A     -0.439354    38A     -0.391449    39A     -0.364193
      40A     -0.324376    41A     -0.320514

  @DF-RHF Final Energy:  -602.94005143173456

   => Energetics <=

    Nuclear Repulsion Energy =            523.2444265728045139
    One-Electron Energy =               -1969.3470696775007127
    Two-Electron Energy =                 843.1625916729616392
    Total Energy =                       -602.9400514317345596
  Basis Set: (AUG-CC-PVTZ AUX)
    Blend: AUG-CC-PVTZ-RI + DEF2-QZVPP-RI
    Molecular point group: c1

    Geometry (in Angstrom), charge = 0, multiplicity = 1:

       Center              X                  Y                   Z               Mass
    ------------   -----------------  -----------------  -----------------  -----------------
         I           -1.771770446251     0.002312658870     0.001269846036   126.904471900000
         C            2.423743553749    -1.222111341130    -0.013417153964    12.000000000000
         C            2.423750553749     1.226736658870    -0.013890153964    12.000000000000
         C            3.105903553749     0.002316658870    -0.020429153964    12.000000000000
         C            0.934539953749    -1.261119041130    -0.003454553964    12.000000000000
         C            1.021208553749     1.220964658870    -0.004651153964    12.000000000000
         C            0.336691553749     0.002319658870     0.001223846036    12.000000000000
         C            3.179213553749    -2.527487341130     0.016027846036    12.000000000000
         C            3.179162553749     2.532157658870     0.015052846036    12.000000000000
         H            4.195569553749     0.002309658870    -0.034095153964     1.007825032230
         H            0.471918553749    -2.154591341130    -0.005409153964     1.007825032230
         H            0.471918553749     2.159223658870    -0.006249153964     1.007825032230
         H            4.143487553749    -2.435775341130    -0.489713153964     1.007825032230
         H            2.612884553749    -3.323839341130    -0.472691153964     1.007825032230
         H            3.372198553749    -2.840757341130     1.047117846036     1.007825032230
         H            2.613497553749     3.327915658870    -0.475406153964     1.007825032230
         H            3.370685553749     2.846669658870     1.046036846036     1.007825032230
         H            4.144139553749     2.439862658870    -0.489230153964     1.007825032230

  Basis Set: AUG-CC-PVTZ
    Blend: AUG-CC-PVTZ
  Basis Set: (AUG-CC-PVTZ AUX)
    Blend: AUG-CC-PVTZ-JKFIT + DEF2-UNIVERSAL-JKFIT
	 Reference Energy          =    -602.9400514317345596 [Eh]
	 Singles Energy            =      -0.0000000000000000 [Eh]
	 Same-Spin Energy          =      -0.4259815835120873 [Eh]
	 Opposite-Spin Energy      =      -1.3008088558144859 [Eh]
	 Correlation Energy        =      -1.7267904393265732 [Eh]
	 Total Energy              =    -604.6668418710611377 [Eh]

	 ================> DF-SCS-MP2 Energies <==================
	-----------------------------------------------------------
	 SCS Same-Spin Scale       =       0.3333333333333333 [-]
	 SCS Opposite-Spin Scale   =       1.2000000000000000 [-]
	 SCS Same-Spin Energy      =      -0.1419938611706957 [Eh]
	 SCS Opposite-Spin Energy  =      -1.5609706269773831 [Eh]
	 SCS Correlation Energy    =      -1.7029644881480788 [Eh]
	 SCS Total Energy          =    -604.6430159198826004 [Eh]
	-----------------------------------------------------------

  Dipole Moment: [D]
     X:     2.4028      Y:    -0.0287      Z:     0.0811     Total:     2.4044

*** Psi4 exiting successfully. Buy a developer a beer!
