                               Psi4 1.4a3.dev225

  ==> Input File <==

--------------------------------------------------------------------------
#psi4
#
memory 32 gb

molecule  {
0 1
  I       -2.0593870    -0.0000050     0.0008870
  C        2.1361270    -1.2244290    -0.0138000
  C        2.1361340     1.2244190    -0.0142730
  C        2.8182870    -0.0000010    -0.0208120
  C        0.7335970    -1.2186540    -0.0045600
  C        0.7335920     1.2186470    -0.0050340
  C        0.0490750     0.0000020     0.0008410
  C        2.8915970    -2.5298050     0.0156450
  C        2.8915460     2.5298400     0.0146700
  H        3.9079530    -0.0000080    -0.0344780
  H        0.1843020    -2.1569090    -0.0057920
  H        0.1843020     2.1569060    -0.0066320
  H        3.8558710    -2.4380930    -0.4900960
  H        2.3252680    -3.3261570    -0.4730740
  H        3.0845820    -2.8430750     1.0467350
  H        2.2223355     3.4712622    -0.5655680
  H        3.0830690     2.8443520     1.0456540
  H        3.8565230     2.4375450    -0.4896130
units angstrom
no_reorient  #important for SAPT in psi4, default
symmetry c1  #important for SAPT in psi4, default
}

set PROPERTIES_ORIGIN ["COM"]
properties('MP2/aug-cc-pvtz', properties = ['dipole'])
--------------------------------------------------------------------------

    Molecular point group: c1
  Charge       = 0
  Multiplicity = 1
  Basis Set: AUG-CC-PVTZ
    Blend: AUG-CC-PVTZ
  Basis Set: (AUG-CC-PVTZ AUX)
    Blend: AUG-CC-PVTZ-JKFIT + DEF2-UNIVERSAL-JKFIT

    Orbital Energies [Eh]
    ---------------------

    Doubly Occupied:

       1A    -11.290824     2A    -11.257696     3A    -11.256601
       4A    -11.254546     5A    -11.243475     6A    -11.243167
       7A    -11.238631     8A    -11.232699     9A     -7.717584
      10A     -5.549291    11A     -5.539704    12A     -5.539670
      13A     -2.278960    14A     -2.274010    15A     -2.274002
      16A     -2.263337    17A     -2.263330    18A     -1.168354
      19A     -1.066004    20A     -1.047027    21A     -0.945985
      22A     -0.933787    23A     -0.895812    24A     -0.791156
      25A     -0.787334    26A     -0.689063    27A     -0.658898
      28A     -0.594213    29A     -0.589481    30A     -0.578832
      31A     -0.572801    32A     -0.554198    33A     -0.547234
      34A     -0.520380    35A     -0.498887    36A     -0.488424
      37A     -0.451176    38A     -0.392724    39A     -0.367622
      40A     -0.331589    41A     -0.319436

  @DF-RHF Final Energy:  -602.93323984448125

   => Energetics <=

    Nuclear Repulsion Energy =            523.4962958653794658
    One-Electron Energy =               -1969.8431824468491413
    Two-Electron Energy =                 843.4136467369885395
    Total Energy =                       -602.9332398444812497
  Basis Set: (AUG-CC-PVTZ AUX)
    Blend: AUG-CC-PVTZ-RI + DEF2-QZVPP-RI
    Molecular point group: c1

    Geometry (in Angstrom), charge = 0, multiplicity = 1:

       Center              X                  Y                   Z               Mass
    ------------   -----------------  -----------------  -----------------  -----------------
         I           -1.775804190697    -0.000636782795     0.001697274713   126.904471900000
         C            2.419709809303    -1.225060782795    -0.012989725287    12.000000000000
         C            2.419716809303     1.223787217205    -0.013462725287    12.000000000000
         C            3.101869809303    -0.000632782795    -0.020001725287    12.000000000000
         C            1.017179809303    -1.219285782795    -0.003749725287    12.000000000000
         C            1.017174809303     1.218015217205    -0.004223725287    12.000000000000
         C            0.332657809303    -0.000629782795     0.001651274713    12.000000000000
         C            3.175179809303    -2.530436782795     0.016455274713    12.000000000000
         C            3.175128809303     2.529208217205     0.015480274713    12.000000000000
         H            4.191535809303    -0.000639782795    -0.033667725287     1.007825032230
         H            0.467884809303    -2.157540782795    -0.004981725287     1.007825032230
         H            0.467884809303     2.156274217205    -0.005821725287     1.007825032230
         H            4.139453809303    -2.438724782795    -0.489285725287     1.007825032230
         H            2.608850809303    -3.326788782795    -0.472263725287     1.007825032230
         H            3.368164809303    -2.843706782795     1.047545274713     1.007825032230
         H            2.505918309303     3.470630417205    -0.564757725287     1.007825032230
         H            3.366651809303     2.843720217205     1.046464274713     1.007825032230
         H            4.140105809303     2.436913217205    -0.488802725287     1.007825032230

  Basis Set: AUG-CC-PVTZ
    Blend: AUG-CC-PVTZ
  Basis Set: (AUG-CC-PVTZ AUX)
    Blend: AUG-CC-PVTZ-JKFIT + DEF2-UNIVERSAL-JKFIT
	 Reference Energy          =    -602.9332398444812497 [Eh]
	 Singles Energy            =      -0.0000000000000000 [Eh]
	 Same-Spin Energy          =      -0.4259314876880104 [Eh]
	 Opposite-Spin Energy      =      -1.3017779235994080 [Eh]
	 Correlation Energy        =      -1.7277094112874183 [Eh]
	 Total Energy              =    -604.6609492557686281 [Eh]

	 ================> DF-SCS-MP2 Energies <==================
	-----------------------------------------------------------
	 SCS Same-Spin Scale       =       0.3333333333333333 [-]
	 SCS Opposite-Spin Scale   =       1.2000000000000000 [-]
	 SCS Same-Spin Energy      =      -0.1419771625626701 [Eh]
	 SCS Opposite-Spin Energy  =      -1.5621335083192895 [Eh]
	 SCS Correlation Energy    =      -1.7041106708819596 [Eh]
	 SCS Total Energy          =    -604.6373505153632095 [Eh]
	-----------------------------------------------------------

  Dipole Moment: [D]
     X:     2.2088      Y:    -0.1332      Z:     0.1209     Total:     2.2162

*** Psi4 exiting successfully. Buy a developer a beer!
