                               Psi4 1.4a3.dev225

  ==> Input File <==

--------------------------------------------------------------------------
#psi4
#
memory 32 gb

molecule  {
0 1
  I       -2.0593870    -0.0000050     0.0008870
  C        2.2586648    -1.1613239     0.0632343
  C        2.1361340     1.2244190    -0.0142730
  C        2.8182870    -0.0000010    -0.0208120
  C        0.7335970    -1.2186540    -0.0045600
  C        0.7335920     1.2186470    -0.0050340
  C        0.0490750     0.0000020     0.0008410
  C        2.8915970    -2.5298050     0.0156450
  C        2.8915460     2.5298400     0.0146700
  H        3.9079530    -0.0000080    -0.0344780
  H        0.1843020    -2.1569090    -0.0057920
  H        0.1843020     2.1569060    -0.0066320
  H        3.8558710    -2.4380930    -0.4900960
  H        2.3252680    -3.3261570    -0.4730740
  H        3.0845820    -2.8430750     1.0467350
  H        2.3258810     3.3255980    -0.4757890
  H        3.0830690     2.8443520     1.0456540
  H        3.8565230     2.4375450    -0.4896130
units angstrom
no_reorient  #important for SAPT in psi4, default
symmetry c1  #important for SAPT in psi4, default
}

set PROPERTIES_ORIGIN ["COM"]
properties('MP2/aug-cc-pvtz', properties = ['dipole'])
--------------------------------------------------------------------------

    Molecular point group: c1
  Charge       = 0
  Multiplicity = 1
  Basis Set: AUG-CC-PVTZ
    Blend: AUG-CC-PVTZ
  Basis Set: (AUG-CC-PVTZ AUX)
    Blend: AUG-CC-PVTZ-JKFIT + DEF2-UNIVERSAL-JKFIT

    Orbital Energies [Eh]
    ---------------------

    Doubly Occupied:

       1A    -11.289076     2A    -11.257414     3A    -11.255301
       4A    -11.252606     5A    -11.241419     6A    -11.233677
       7A    -11.232683     8A    -11.225371     9A     -7.716008
      10A     -5.547674    11A     -5.538171    12A     -5.538099
      13A     -2.277337    14A     -2.272430    15A     -2.272388
      16A     -2.261818    17A     -2.261812    18A     -1.169405
      19A     -1.066158    20A     -1.050654    21A     -0.959033
      22A     -0.932571    23A     -0.892238    24A     -0.806882
      25A     -0.773814    26A     -0.688699    27A     -0.657150
      28A     -0.606524    29A     -0.590938    30A     -0.577289
      31A     -0.570380    32A     -0.559654    33A     -0.545029
      34A     -0.531720    35A     -0.507471    36A     -0.496444
      37A     -0.436090    38A     -0.399985    39A     -0.365995
      40A     -0.332453    41A     -0.314841

  @DF-RHF Final Energy:  -602.92891018996227

   => Energetics <=

    Nuclear Repulsion Energy =            523.9888028083693143
    One-Electron Energy =               -1970.8260254308145250
    Two-Electron Energy =                 843.9083124324828304
    Total Energy =                       -602.9289101899622665
  Basis Set: (AUG-CC-PVTZ AUX)
    Blend: AUG-CC-PVTZ-RI + DEF2-QZVPP-RI
    Molecular point group: c1

    Geometry (in Angstrom), charge = 0, multiplicity = 1:

       Center              X                  Y                   Z               Mass
    ------------   -----------------  -----------------  -----------------  -----------------
         I           -1.782592896570    -0.003268348453    -0.002677737996   126.904471900000
         C            2.535458903430    -1.164587248453     0.059669562004    12.000000000000
         C            2.412928103430     1.221155651547    -0.017837737996    12.000000000000
         C            3.095081103430    -0.003264348453    -0.024376737996    12.000000000000
         C            1.010391103430    -1.221917348453    -0.008124737996    12.000000000000
         C            1.010386103430     1.215383651547    -0.008598737996    12.000000000000
         C            0.325869103430    -0.003261348453    -0.002723737996    12.000000000000
         C            3.168391103430    -2.533068348453     0.012080262004    12.000000000000
         C            3.168340103430     2.526576651547     0.011105262004    12.000000000000
         H            4.184747103430    -0.003271348453    -0.038042737996     1.007825032230
         H            0.461096103430    -2.160172348453    -0.009356737996     1.007825032230
         H            0.461096103430     2.153642651547    -0.010196737996     1.007825032230
         H            4.132665103430    -2.441356348453    -0.493660737996     1.007825032230
         H            2.602062103430    -3.329420348453    -0.476638737996     1.007825032230
         H            3.361376103430    -2.846338348453     1.043170262004     1.007825032230
         H            2.602675103430     3.322334651547    -0.479353737996     1.007825032230
         H            3.359863103430     2.841088651547     1.042089262004     1.007825032230
         H            4.133317103430     2.434281651547    -0.493177737996     1.007825032230

  Basis Set: AUG-CC-PVTZ
    Blend: AUG-CC-PVTZ
  Basis Set: (AUG-CC-PVTZ AUX)
    Blend: AUG-CC-PVTZ-JKFIT + DEF2-UNIVERSAL-JKFIT
	 Reference Energy          =    -602.9289101899622665 [Eh]
	 Singles Energy            =      -0.0000000000000000 [Eh]
	 Same-Spin Energy          =      -0.4255134467141622 [Eh]
	 Opposite-Spin Energy      =      -1.3012075334029269 [Eh]
	 Correlation Energy        =      -1.7267209801170891 [Eh]
	 Total Energy              =    -604.6556311700793458 [Eh]

	 ================> DF-SCS-MP2 Energies <==================
	-----------------------------------------------------------
	 SCS Same-Spin Scale       =       0.3333333333333333 [-]
	 SCS Opposite-Spin Scale   =       1.2000000000000000 [-]
	 SCS Same-Spin Energy      =      -0.1418378155713874 [Eh]
	 SCS Opposite-Spin Energy  =      -1.5614490400835124 [Eh]
	 SCS Correlation Energy    =      -1.7032868556548997 [Eh]
	 SCS Total Energy          =    -604.6321970456172039 [Eh]
	-----------------------------------------------------------

  Dipole Moment: [D]
     X:     2.2529      Y:    -0.0406      Z:     0.0526     Total:     2.2539

*** Psi4 exiting successfully. Buy a developer a beer!
