                               Psi4 1.4a3.dev225

  ==> Input File <==

--------------------------------------------------------------------------
#psi4
#
memory 32 gb

molecule  {
0 1
  I       -2.0593870    -0.0000050     0.0008870
  C        2.1361270    -1.2244290    -0.0138000
  C        2.1361340     1.2244190    -0.0142730
  C        2.8182870    -0.0000010    -0.0208120
  C        0.7757090    -1.1940214    -0.0049116
  C        0.7335920     1.2186470    -0.0050340
  C        0.0490750     0.0000020     0.0008410
  C        2.8915970    -2.5298050     0.0156450
  C        2.8915460     2.5298400     0.0146700
  H        3.9079530    -0.0000080    -0.0344780
  H        0.1843020    -2.1569090    -0.0057920
  H        0.1843020     2.1569060    -0.0066320
  H        3.8558710    -2.4380930    -0.4900960
  H        2.3252680    -3.3261570    -0.4730740
  H        3.0845820    -2.8430750     1.0467350
  H        2.3258810     3.3255980    -0.4757890
  H        3.0830690     2.8443520     1.0456540
  H        3.8565230     2.4375450    -0.4896130
units angstrom
no_reorient  #important for SAPT in psi4, default
symmetry c1  #important for SAPT in psi4, default
}

set PROPERTIES_ORIGIN ["COM"]
properties('MP2/aug-cc-pvtz', properties = ['dipole'])
--------------------------------------------------------------------------

    Molecular point group: c1
  Charge       = 0
  Multiplicity = 1
  Basis Set: AUG-CC-PVTZ
    Blend: AUG-CC-PVTZ
  Basis Set: (AUG-CC-PVTZ AUX)
    Blend: AUG-CC-PVTZ-JKFIT + DEF2-UNIVERSAL-JKFIT

    Orbital Energies [Eh]
    ---------------------

    Doubly Occupied:

       1A    -11.289041     2A    -11.254085     3A    -11.249700
       4A    -11.242808     5A    -11.240932     6A    -11.236669
       7A    -11.231720     8A    -11.231377     9A     -7.719052
      10A     -5.550826    11A     -5.541125    12A     -5.541094
      13A     -2.280495    14A     -2.275506    15A     -2.275491
      16A     -2.264702    17A     -2.264696    18A     -1.171196
      19A     -1.069211    20A     -1.045924    21A     -0.949265
      22A     -0.938051    23A     -0.896849    24A     -0.794703
      25A     -0.788561    26A     -0.683628    27A     -0.661435
      28A     -0.593704    29A     -0.589589    30A     -0.576927
      31A     -0.569774    32A     -0.558052    33A     -0.548712
      34A     -0.536249    35A     -0.500332    36A     -0.489225
      37A     -0.455136    38A     -0.392937    39A     -0.368727
      40A     -0.335056    41A     -0.317830

  @DF-RHF Final Energy:  -602.95074902363331

   => Energetics <=

    Nuclear Repulsion Energy =            524.8314534905041455
    One-Electron Energy =               -1972.5236163831611975
    Two-Electron Energy =                 844.7414138690237451
    Total Energy =                       -602.9507490236333069
  Basis Set: (AUG-CC-PVTZ AUX)
    Blend: AUG-CC-PVTZ-RI + DEF2-QZVPP-RI
    Molecular point group: c1

    Geometry (in Angstrom), charge = 0, multiplicity = 1:

       Center              X                  Y                   Z               Mass
    ------------   -----------------  -----------------  -----------------  -----------------
         I           -1.778432491234    -0.001278176216     0.001325414117   126.904471900000
         C            2.417081508766    -1.225702176216    -0.013361585883    12.000000000000
         C            2.417088508766     1.223145823784    -0.013834585883    12.000000000000
         C            3.099241508766    -0.001274176216    -0.020373585883    12.000000000000
         C            1.056663508766    -1.195294576216    -0.004473185883    12.000000000000
         C            1.014546508766     1.217373823784    -0.004595585883    12.000000000000
         C            0.330029508766    -0.001271176216     0.001279414117    12.000000000000
         C            3.172551508766    -2.531078176216     0.016083414117    12.000000000000
         C            3.172500508766     2.528566823784     0.015108414117    12.000000000000
         H            4.188907508766    -0.001281176216    -0.034039585883     1.007825032230
         H            0.465256508766    -2.158182176216    -0.005353585883     1.007825032230
         H            0.465256508766     2.155632823784    -0.006193585883     1.007825032230
         H            4.136825508766    -2.439366176216    -0.489657585883     1.007825032230
         H            2.606222508766    -3.327430176216    -0.472635585883     1.007825032230
         H            3.365536508766    -2.844348176216     1.047173414117     1.007825032230
         H            2.606835508766     3.324324823784    -0.475350585883     1.007825032230
         H            3.364023508766     2.843078823784     1.046092414117     1.007825032230
         H            4.137477508766     2.436271823784    -0.489174585883     1.007825032230

  Basis Set: AUG-CC-PVTZ
    Blend: AUG-CC-PVTZ
  Basis Set: (AUG-CC-PVTZ AUX)
    Blend: AUG-CC-PVTZ-JKFIT + DEF2-UNIVERSAL-JKFIT
	 Reference Energy          =    -602.9507490236333069 [Eh]
	 Singles Energy            =      -0.0000000000000000 [Eh]
	 Same-Spin Energy          =      -0.4259186752449253 [Eh]
	 Opposite-Spin Energy      =      -1.3002323608633937 [Eh]
	 Correlation Energy        =      -1.7261510361083190 [Eh]
	 Total Energy              =    -604.6769000597415697 [Eh]

	 ================> DF-SCS-MP2 Energies <==================
	-----------------------------------------------------------
	 SCS Same-Spin Scale       =       0.3333333333333333 [-]
	 SCS Opposite-Spin Scale   =       1.2000000000000000 [-]
	 SCS Same-Spin Energy      =      -0.1419728917483084 [Eh]
	 SCS Opposite-Spin Energy  =      -1.5602788330360724 [Eh]
	 SCS Correlation Energy    =      -1.7022517247843809 [Eh]
	 SCS Total Energy          =    -604.6530007484176394 [Eh]
	-----------------------------------------------------------

  Dipole Moment: [D]
     X:     2.1086      Y:     0.0274      Z:     0.0781     Total:     2.1103

*** Psi4 exiting successfully. Buy a developer a beer!
