                               Psi4 1.4a3.dev225

  ==> Input File <==

--------------------------------------------------------------------------
#psi4
#
memory 32 gb

molecule  {
0 1
  I       -2.0593870    -0.0000050     0.0008870
  C        2.2678453    -1.2890304    -0.0150958
  C        2.1361340     1.2244190    -0.0142730
  C        2.8182870    -0.0000010    -0.0208120
  C        0.7335970    -1.2186540    -0.0045600
  C        0.7335920     1.2186470    -0.0050340
  C        0.0490750     0.0000020     0.0008410
  C        2.8915970    -2.5298050     0.0156450
  C        2.8915460     2.5298400     0.0146700
  H        3.9079530    -0.0000080    -0.0344780
  H        0.1843020    -2.1569090    -0.0057920
  H        0.1843020     2.1569060    -0.0066320
  H        3.8558710    -2.4380930    -0.4900960
  H        2.3252680    -3.3261570    -0.4730740
  H        3.0845820    -2.8430750     1.0467350
  H        2.3258810     3.3255980    -0.4757890
  H        3.0830690     2.8443520     1.0456540
  H        3.8565230     2.4375450    -0.4896130
units angstrom
no_reorient  #important for SAPT in psi4, default
symmetry c1  #important for SAPT in psi4, default
}

set PROPERTIES_ORIGIN ["COM"]
properties('MP2/aug-cc-pvtz', properties = ['dipole'])
--------------------------------------------------------------------------

    Molecular point group: c1
  Charge       = 0
  Multiplicity = 1
  Basis Set: AUG-CC-PVTZ
    Blend: AUG-CC-PVTZ
  Basis Set: (AUG-CC-PVTZ AUX)
    Blend: AUG-CC-PVTZ-JKFIT + DEF2-UNIVERSAL-JKFIT

    Orbital Energies [Eh]
    ---------------------

    Doubly Occupied:

       1A    -11.288630     2A    -11.265361     3A    -11.256237
       4A    -11.252759     5A    -11.241725     6A    -11.237858
       7A    -11.231989     8A    -11.230377     9A     -7.716394
      10A     -5.548136    11A     -5.538513    12A     -5.538436
      13A     -2.277805    14A     -2.272850    15A     -2.272814
      16A     -2.262103    17A     -2.262097    18A     -1.160353
      19A     -1.080607    20A     -1.047308    21A     -0.957821
      22A     -0.934198    23A     -0.889991    24A     -0.798648
      25A     -0.777222    26A     -0.681716    27A     -0.658622
      28A     -0.621667    29A     -0.600072    30A     -0.580658
      31A     -0.570461    32A     -0.562715    33A     -0.541828
      34A     -0.525051    35A     -0.512405    36A     -0.491440
      37A     -0.437767    38A     -0.391263    39A     -0.366152
      40A     -0.321241    41A     -0.315119

  @DF-RHF Final Energy:  -602.92440385688690

   => Energetics <=

    Nuclear Repulsion Energy =            522.7669751598594985
    One-Electron Energy =               -1968.3459368831295251
    Two-Electron Energy =                 842.6545578663830156
    Total Energy =                       -602.9244038568868973
  Basis Set: (AUG-CC-PVTZ AUX)
    Blend: AUG-CC-PVTZ-RI + DEF2-QZVPP-RI
    Molecular point group: c1

    Geometry (in Angstrom), charge = 0, multiplicity = 1:

       Center              X                  Y                   Z               Mass
    ------------   -----------------  -----------------  -----------------  -----------------
         I           -1.783067801404     0.003337874973     0.001374257333   126.904471900000
         C            2.544164498596    -1.285687525027    -0.014608542667    12.000000000000
         C            2.412453198596     1.227761874973    -0.013785742667    12.000000000000
         C            3.094606198596     0.003341874973    -0.020324742667    12.000000000000
         C            1.009916198596    -1.215311125027    -0.004072742667    12.000000000000
         C            1.009911198596     1.221989874973    -0.004546742667    12.000000000000
         C            0.325394198596     0.003344874973     0.001328257333    12.000000000000
         C            3.167916198596    -2.526462125027     0.016132257333    12.000000000000
         C            3.167865198596     2.533182874973     0.015157257333    12.000000000000
         H            4.184272198596     0.003334874973    -0.033990742667     1.007825032230
         H            0.460621198596    -2.153566125027    -0.005304742667     1.007825032230
         H            0.460621198596     2.160248874973    -0.006144742667     1.007825032230
         H            4.132190198596    -2.434750125027    -0.489608742667     1.007825032230
         H            2.601587198596    -3.322814125027    -0.472586742667     1.007825032230
         H            3.360901198596    -2.839732125027     1.047222257333     1.007825032230
         H            2.602200198596     3.328940874973    -0.475301742667     1.007825032230
         H            3.359388198596     2.847694874973     1.046141257333     1.007825032230
         H            4.132842198596     2.440887874973    -0.489125742667     1.007825032230

  Basis Set: AUG-CC-PVTZ
    Blend: AUG-CC-PVTZ
  Basis Set: (AUG-CC-PVTZ AUX)
    Blend: AUG-CC-PVTZ-JKFIT + DEF2-UNIVERSAL-JKFIT
	 Reference Energy          =    -602.9244038568868973 [Eh]
	 Singles Energy            =      -0.0000000000000000 [Eh]
	 Same-Spin Energy          =      -0.4276146329958461 [Eh]
	 Opposite-Spin Energy      =      -1.3034754248145473 [Eh]
	 Correlation Energy        =      -1.7310900578103934 [Eh]
	 Total Energy              =    -604.6554939146973311 [Eh]

	 ================> DF-SCS-MP2 Energies <==================
	-----------------------------------------------------------
	 SCS Same-Spin Scale       =       0.3333333333333333 [-]
	 SCS Opposite-Spin Scale   =       1.2000000000000000 [-]
	 SCS Same-Spin Energy      =      -0.1425382109986154 [Eh]
	 SCS Opposite-Spin Energy  =      -1.5641705097774568 [Eh]
	 SCS Correlation Energy    =      -1.7067087207760721 [Eh]
	 SCS Total Energy          =    -604.6311125776629751 [Eh]
	-----------------------------------------------------------

  Dipole Moment: [D]
     X:     2.3143      Y:    -0.2138      Z:     0.0936     Total:     2.3261

*** Psi4 exiting successfully. Buy a developer a beer!
