                               Psi4 1.4a3.dev225

  ==> Input File <==

--------------------------------------------------------------------------
#psi4
#
memory 32 gb

molecule  {
0 1
  I       -2.0593870    -0.0000050     0.0008870
  C        2.1148627    -1.2123366    -0.0135911
  C        2.1361340     1.2244190    -0.0142730
  C        2.8182870    -0.0000010    -0.0208120
  C        0.7335970    -1.2186540    -0.0045600
  C        0.7335920     1.2186470    -0.0050340
  C        0.0490750     0.0000020     0.0008410
  C        2.8915970    -2.5298050     0.0156450
  C        2.8915460     2.5298400     0.0146700
  H        3.9079530    -0.0000080    -0.0344780
  H        0.1843020    -2.1569090    -0.0057920
  H        0.1843020     2.1569060    -0.0066320
  H        3.8558710    -2.4380930    -0.4900960
  H        2.3252680    -3.3261570    -0.4730740
  H        3.0845820    -2.8430750     1.0467350
  H        2.3258810     3.3255980    -0.4757890
  H        3.0830690     2.8443520     1.0456540
  H        3.8565230     2.4375450    -0.4896130
units angstrom
no_reorient  #important for SAPT in psi4, default
symmetry c1  #important for SAPT in psi4, default
}

set PROPERTIES_ORIGIN ["COM"]
properties('MP2/aug-cc-pvtz', properties = ['dipole'])
--------------------------------------------------------------------------

    Molecular point group: c1
  Charge       = 0
  Multiplicity = 1
  Basis Set: AUG-CC-PVTZ
    Blend: AUG-CC-PVTZ
  Basis Set: (AUG-CC-PVTZ AUX)
    Blend: AUG-CC-PVTZ-JKFIT + DEF2-UNIVERSAL-JKFIT

    Orbital Energies [Eh]
    ---------------------

    Doubly Occupied:

       1A    -11.290697     2A    -11.255596     3A    -11.254061
       4A    -11.242733     5A    -11.240563     6A    -11.236825
       7A    -11.232231     8A    -11.231986     9A     -7.717352
      10A     -5.549040    11A     -5.539479    12A     -5.539452
      13A     -2.278707    14A     -2.273772    15A     -2.273757
      16A     -2.263127    17A     -2.263121    18A     -1.169359
      19A     -1.066757    20A     -1.045864    21A     -0.948311
      22A     -0.939303    23A     -0.896131    24A     -0.793194
      25A     -0.788325    26A     -0.689723    27A     -0.660437
      28A     -0.591842    29A     -0.588522    30A     -0.577408
      31A     -0.573533    32A     -0.559781    33A     -0.551506
      34A     -0.537589    35A     -0.500152    36A     -0.490530
      37A     -0.451413    38A     -0.392373    39A     -0.367444
      40A     -0.334018    41A     -0.318361

  @DF-RHF Final Energy:  -602.95324107688964

   => Energetics <=

    Nuclear Repulsion Energy =            524.5469426296225492
    One-Electron Energy =               -1971.9716194800976155
    Two-Electron Energy =                 844.4714357735853127
    Total Energy =                       -602.9532410768896398
  Basis Set: (AUG-CC-PVTZ AUX)
    Blend: AUG-CC-PVTZ-RI + DEF2-QZVPP-RI
    Molecular point group: c1

    Geometry (in Angstrom), charge = 0, multiplicity = 1:

       Center              X                  Y                   Z               Mass
    ------------   -----------------  -----------------  -----------------  -----------------
         I           -1.775154052018    -0.000629474991     0.001296419601   126.904471900000
         C            2.399095647982    -1.212961074991    -0.013181680399    12.000000000000
         C            2.420366947982     1.223794525009    -0.013863580399    12.000000000000
         C            3.102519947982    -0.000625474991    -0.020402580399    12.000000000000
         C            1.017829947982    -1.219278474991    -0.004150580399    12.000000000000
         C            1.017824947982     1.218022525009    -0.004624580399    12.000000000000
         C            0.333307947982    -0.000622474991     0.001250419601    12.000000000000
         C            3.175829947982    -2.530429474991     0.016054419601    12.000000000000
         C            3.175778947982     2.529215525009     0.015079419601    12.000000000000
         H            4.192185947982    -0.000632474991    -0.034068580399     1.007825032230
         H            0.468534947982    -2.157533474991    -0.005382580399     1.007825032230
         H            0.468534947982     2.156281525009    -0.006222580399     1.007825032230
         H            4.140103947982    -2.438717474991    -0.489686580399     1.007825032230
         H            2.609500947982    -3.326781474991    -0.472664580399     1.007825032230
         H            3.368814947982    -2.843699474991     1.047144419601     1.007825032230
         H            2.610113947982     3.324973525009    -0.475379580399     1.007825032230
         H            3.367301947982     2.843727525009     1.046063419601     1.007825032230
         H            4.140755947982     2.436920525009    -0.489203580399     1.007825032230

  Basis Set: AUG-CC-PVTZ
    Blend: AUG-CC-PVTZ
  Basis Set: (AUG-CC-PVTZ AUX)
    Blend: AUG-CC-PVTZ-JKFIT + DEF2-UNIVERSAL-JKFIT
	 Reference Energy          =    -602.9532410768896398 [Eh]
	 Singles Energy            =      -0.0000000000000000 [Eh]
	 Same-Spin Energy          =      -0.4257046090008493 [Eh]
	 Opposite-Spin Energy      =      -1.2998411798421097 [Eh]
	 Correlation Energy        =      -1.7255457888429591 [Eh]
	 Total Energy              =    -604.6787868657326044 [Eh]

	 ================> DF-SCS-MP2 Energies <==================
	-----------------------------------------------------------
	 SCS Same-Spin Scale       =       0.3333333333333333 [-]
	 SCS Opposite-Spin Scale   =       1.2000000000000000 [-]
	 SCS Same-Spin Energy      =      -0.1419015363336164 [Eh]
	 SCS Opposite-Spin Energy  =      -1.5598094158105316 [Eh]
	 SCS Correlation Energy    =      -1.7017109521441480 [Eh]
	 SCS Total Energy          =    -604.6549520290337796 [Eh]
	-----------------------------------------------------------

  Dipole Moment: [D]
     X:     2.1860      Y:     0.0333      Z:     0.0770     Total:     2.1877

*** Psi4 exiting successfully. Buy a developer a beer!
