                               Psi4 1.4a3.dev225

  ==> Input File <==

--------------------------------------------------------------------------
#psi4
#
memory 32 gb

molecule  {
0 1
  I       -2.0593870    -0.0000050     0.0008870
  C        2.1361270    -1.2244290    -0.0138000
  C        2.1361340     1.2244190    -0.0142730
  C        2.8182870    -0.0000010    -0.0208120
  C        0.7335970    -1.2186540    -0.0045600
  C        0.7335920     1.2186470    -0.0050340
  C        0.0490750     0.0000020     0.0008410
  C        2.8915970    -2.5298050     0.0156450
  C        2.8915460     2.5298400     0.0146700
  H        3.9079530    -0.0000080    -0.0344780
  H        0.1843020    -2.1569090    -0.0057920
  H        0.1843020     2.1569060    -0.0066320
  H        3.8558710    -2.4380930    -0.4900960
  H        2.3252680    -3.3261570    -0.4730740
  H        3.0845820    -2.8430750     1.0467350
  H        2.3258810     3.3255980    -0.4757890
  H        3.0830690     2.8443520     1.0456540
  H        4.0331450     2.4206520    -0.5819131
units angstrom
no_reorient  #important for SAPT in psi4, default
symmetry c1  #important for SAPT in psi4, default
}

set PROPERTIES_ORIGIN ["COM"]
properties('MP2/aug-cc-pvtz', properties = ['dipole'])
--------------------------------------------------------------------------

    Molecular point group: c1
  Charge       = 0
  Multiplicity = 1
  Basis Set: AUG-CC-PVTZ
    Blend: AUG-CC-PVTZ
  Basis Set: (AUG-CC-PVTZ AUX)
    Blend: AUG-CC-PVTZ-JKFIT + DEF2-UNIVERSAL-JKFIT

    Orbital Energies [Eh]
    ---------------------

    Doubly Occupied:

       1A    -11.291276     2A    -11.257694     3A    -11.256109
       4A    -11.254628     5A    -11.244405     6A    -11.243534
       7A    -11.237365     8A    -11.232314     9A     -7.717965
      10A     -5.549675    11A     -5.540085    12A     -5.540046
      13A     -2.279344    14A     -2.274390    15A     -2.274387
      16A     -2.263713    17A     -2.263706    18A     -1.168339
      19A     -1.066423    20A     -1.046376    21A     -0.946919
      22A     -0.932993    23A     -0.895846    24A     -0.793441
      25A     -0.785023    26A     -0.689130    27A     -0.658349
      28A     -0.595704    29A     -0.589570    30A     -0.578716
      31A     -0.573388    32A     -0.553765    33A     -0.547402
      34A     -0.514495    35A     -0.497010    36A     -0.495375
      37A     -0.450537    38A     -0.392549    39A     -0.367994
      40A     -0.332166    41A     -0.319191

  @DF-RHF Final Energy:  -602.93327106293850

   => Energetics <=

    Nuclear Repulsion Energy =            523.4686407036026594
    One-Electron Energy =               -1969.7811471507418446
    Two-Electron Energy =                 843.3792353842006833
    Total Energy =                       -602.9332710629385019
  Basis Set: (AUG-CC-PVTZ AUX)
    Blend: AUG-CC-PVTZ-RI + DEF2-QZVPP-RI
    Molecular point group: c1

    Geometry (in Angstrom), charge = 0, multiplicity = 1:

       Center              X                  Y                   Z               Mass
    ------------   -----------------  -----------------  -----------------  -----------------
         I           -1.777021390589     0.000069454032     0.001708227742   126.904471900000
         C            2.418492609411    -1.224354545968    -0.012978772258    12.000000000000
         C            2.418499609411     1.224493454032    -0.013451772258    12.000000000000
         C            3.100652609411     0.000073454032    -0.019990772258    12.000000000000
         C            1.015962609411    -1.218579545968    -0.003738772258    12.000000000000
         C            1.015957609411     1.218721454032    -0.004212772258    12.000000000000
         C            0.331440609411     0.000076454032     0.001662227742    12.000000000000
         C            3.173962609411    -2.529730545968     0.016466227742    12.000000000000
         C            3.173911609411     2.529914454032     0.015491227742    12.000000000000
         H            4.190318609411     0.000066454032    -0.033656772258     1.007825032230
         H            0.466667609411    -2.156834545968    -0.004970772258     1.007825032230
         H            0.466667609411     2.156980454032    -0.005810772258     1.007825032230
         H            4.138236609411    -2.438018545968    -0.489274772258     1.007825032230
         H            2.607633609411    -3.326082545968    -0.472252772258     1.007825032230
         H            3.366947609411    -2.843000545968     1.047556227742     1.007825032230
         H            2.608246609411     3.325672454032    -0.474967772258     1.007825032230
         H            3.365434609411     2.844426454032     1.046475227742     1.007825032230
         H            4.315510609411     2.420726454032    -0.581091872258     1.007825032230

  Basis Set: AUG-CC-PVTZ
    Blend: AUG-CC-PVTZ
  Basis Set: (AUG-CC-PVTZ AUX)
    Blend: AUG-CC-PVTZ-JKFIT + DEF2-UNIVERSAL-JKFIT
	 Reference Energy          =    -602.9332710629385019 [Eh]
	 Singles Energy            =      -0.0000000000000000 [Eh]
	 Same-Spin Energy          =      -0.4259259030249600 [Eh]
	 Opposite-Spin Energy      =      -1.3017644999792681 [Eh]
	 Correlation Energy        =      -1.7276904030042282 [Eh]
	 Total Energy              =    -604.6609614659427052 [Eh]

	 ================> DF-SCS-MP2 Energies <==================
	-----------------------------------------------------------
	 SCS Same-Spin Scale       =       0.3333333333333333 [-]
	 SCS Opposite-Spin Scale   =       1.2000000000000000 [-]
	 SCS Same-Spin Energy      =      -0.1419753010083200 [Eh]
	 SCS Opposite-Spin Energy  =      -1.5621173999751217 [Eh]
	 SCS Correlation Energy    =      -1.7040927009834417 [Eh]
	 SCS Total Energy          =    -604.6373637639219396 [Eh]
	-----------------------------------------------------------

  Dipole Moment: [D]
     X:     2.0649      Y:    -0.0548      Z:     0.1235     Total:     2.0693

*** Psi4 exiting successfully. Buy a developer a beer!
