                               Psi4 1.4a3.dev225

  ==> Input File <==

--------------------------------------------------------------------------
#psi4
#
memory 32 gb

molecule  {
0 1
  I       -2.0593870    -0.0000050     0.0008870
  C        2.1361270    -1.2244290    -0.0138000
  C        2.1361340     1.2244190    -0.0142730
  C        2.8182870    -0.0000010    -0.0208120
  C        0.7335970    -1.2186540    -0.0045600
  C        0.7335920     1.2186470    -0.0050340
  C        0.0490750     0.0000020     0.0008410
  C        2.8915970    -2.5298050     0.0156450
  C        2.8915460     2.5298400     0.0146700
  H        3.9079530    -0.0000080    -0.0344780
  H        0.1843020    -2.1569090    -0.0057920
  H        0.1843020     2.1569060    -0.0066320
  H        3.8558710    -2.4380930    -0.4900960
  H        2.3252680    -3.3261570    -0.4730740
  H        3.1022099    -2.8716901     1.1409180
  H        2.3258810     3.3255980    -0.4757890
  H        3.0830690     2.8443520     1.0456540
  H        3.8565230     2.4375450    -0.4896130
units angstrom
no_reorient  #important for SAPT in psi4, default
symmetry c1  #important for SAPT in psi4, default
}

set PROPERTIES_ORIGIN ["COM"]
properties('MP2/aug-cc-pvtz', properties = ['dipole'])
--------------------------------------------------------------------------

    Molecular point group: c1
  Charge       = 0
  Multiplicity = 1
  Basis Set: AUG-CC-PVTZ
    Blend: AUG-CC-PVTZ
  Basis Set: (AUG-CC-PVTZ AUX)
    Blend: AUG-CC-PVTZ-JKFIT + DEF2-UNIVERSAL-JKFIT

    Orbital Energies [Eh]
    ---------------------

    Doubly Occupied:

       1A    -11.290689     2A    -11.256397     3A    -11.255959
       4A    -11.243583     5A    -11.243141     6A    -11.243072
       7A    -11.237354     8A    -11.232218     9A     -7.717476
      10A     -5.549179    11A     -5.539600    12A     -5.539563
      13A     -2.278847    14A     -2.273899    15A     -2.273893
      16A     -2.263234    17A     -2.263228    18A     -1.167872
      19A     -1.066292    20A     -1.046633    21A     -0.947064
      22A     -0.935928    23A     -0.895556    24A     -0.792890
      25A     -0.786633    26A     -0.688644    27A     -0.660486
      28A     -0.595552    29A     -0.585959    30A     -0.574270
      31A     -0.563244    32A     -0.560969    33A     -0.549517
      34A     -0.537898    35A     -0.496966    36A     -0.494288
      37A     -0.450891    38A     -0.392063    39A     -0.367534
      40A     -0.330998    41A     -0.318872

  @DF-RHF Final Energy:  -602.94703621749909

   => Energetics <=

    Nuclear Repulsion Energy =            523.8437176173418948
    One-Electron Energy =               -1970.5648043023209084
    Two-Electron Energy =                 843.7740504674800377
    Total Energy =                       -602.9470362174990896
  Basis Set: (AUG-CC-PVTZ AUX)
    Blend: AUG-CC-PVTZ-RI + DEF2-QZVPP-RI
    Molecular point group: c1

    Geometry (in Angstrom), charge = 0, multiplicity = 1:

       Center              X                  Y                   Z               Mass
    ------------   -----------------  -----------------  -----------------  -----------------
         I           -1.776330633805     0.000120381206     0.000898043802   126.904471900000
         C            2.419183366195    -1.224303618794    -0.013788956198    12.000000000000
         C            2.419190366195     1.224544381206    -0.014261956198    12.000000000000
         C            3.101343366195     0.000124381206    -0.020800956198    12.000000000000
         C            1.016653366195    -1.218528618794    -0.004548956198    12.000000000000
         C            1.016648366195     1.218772381206    -0.005022956198    12.000000000000
         C            0.332131366195     0.000127381206     0.000852043802    12.000000000000
         C            3.174653366195    -2.529679618794     0.015656043802    12.000000000000
         C            3.174602366195     2.529965381206     0.014681043802    12.000000000000
         H            4.191009366195     0.000117381206    -0.034466956198     1.007825032230
         H            0.467358366195    -2.156783618794    -0.005780956198     1.007825032230
         H            0.467358366195     2.157031381206    -0.006620956198     1.007825032230
         H            4.138927366195    -2.437967618794    -0.490084956198     1.007825032230
         H            2.608324366195    -3.326031618794    -0.473062956198     1.007825032230
         H            3.385266266195    -2.871564718794     1.140929043802     1.007825032230
         H            2.608937366195     3.325723381206    -0.475777956198     1.007825032230
         H            3.366125366195     2.844477381206     1.045665043802     1.007825032230
         H            4.139579366195     2.437670381206    -0.489601956198     1.007825032230

  Basis Set: AUG-CC-PVTZ
    Blend: AUG-CC-PVTZ
  Basis Set: (AUG-CC-PVTZ AUX)
    Blend: AUG-CC-PVTZ-JKFIT + DEF2-UNIVERSAL-JKFIT
	 Reference Energy          =    -602.9470362174990896 [Eh]
	 Singles Energy            =      -0.0000000000000000 [Eh]
	 Same-Spin Energy          =      -0.4258666456595399 [Eh]
	 Opposite-Spin Energy      =      -1.3007691160906720 [Eh]
	 Correlation Energy        =      -1.7266357617502119 [Eh]
	 Total Energy              =    -604.6736719792493204 [Eh]

	 ================> DF-SCS-MP2 Energies <==================
	-----------------------------------------------------------
	 SCS Same-Spin Scale       =       0.3333333333333333 [-]
	 SCS Opposite-Spin Scale   =       1.2000000000000000 [-]
	 SCS Same-Spin Energy      =      -0.1419555485531799 [Eh]
	 SCS Opposite-Spin Energy  =      -1.5609229393088064 [Eh]
	 SCS Correlation Energy    =      -1.7028784878619865 [Eh]
	 SCS Total Energy          =    -604.6499147053610841 [Eh]
	-----------------------------------------------------------

  Dipole Moment: [D]
     X:     2.1726      Y:     0.0423      Z:     0.0409     Total:     2.1734

*** Psi4 exiting successfully. Buy a developer a beer!
