                               Psi4 1.4a3.dev225

  ==> Input File <==

--------------------------------------------------------------------------
#psi4
#
memory 32 gb

molecule  {
0 1
  I       -2.0593870    -0.0000050     0.0008870
  C        2.1361270    -1.2244290    -0.0138000
  C        2.1361340     1.2244190    -0.0142730
  C        2.8182870    -0.0000010    -0.0208120
  C        0.7335970    -1.2186540    -0.0045600
  C        0.7335920     1.2186470    -0.0050340
  C        0.0490750     0.0000020     0.0008410
  C        2.8815809    -2.5124982     0.0152546
  C        2.8915460     2.5298400     0.0146700
  H        3.9079530    -0.0000080    -0.0344780
  H        0.1843020    -2.1569090    -0.0057920
  H        0.1843020     2.1569060    -0.0066320
  H        3.8558710    -2.4380930    -0.4900960
  H        2.3252680    -3.3261570    -0.4730740
  H        3.0845820    -2.8430750     1.0467350
  H        2.3258810     3.3255980    -0.4757890
  H        3.0830690     2.8443520     1.0456540
  H        3.8565230     2.4375450    -0.4896130
units angstrom
no_reorient  #important for SAPT in psi4, default
symmetry c1  #important for SAPT in psi4, default
}

set PROPERTIES_ORIGIN ["COM"]
properties('MP2/aug-cc-pvtz', properties = ['dipole'])
--------------------------------------------------------------------------

    Molecular point group: c1
  Charge       = 0
  Multiplicity = 1
  Basis Set: AUG-CC-PVTZ
    Blend: AUG-CC-PVTZ
  Basis Set: (AUG-CC-PVTZ AUX)
    Blend: AUG-CC-PVTZ-JKFIT + DEF2-UNIVERSAL-JKFIT

    Orbital Energies [Eh]
    ---------------------

    Doubly Occupied:

       1A    -11.290465     2A    -11.255714     3A    -11.254785
       4A    -11.242678     5A    -11.242634     6A    -11.236851
       7A    -11.232635     8A    -11.232041     9A     -7.717300
      10A     -5.548999    11A     -5.539425    12A     -5.539390
      13A     -2.278667    14A     -2.273721    15A     -2.273714
      16A     -2.263062    17A     -2.263055    18A     -1.168233
      19A     -1.068676    20A     -1.047530    21A     -0.949187
      22A     -0.938677    23A     -0.895404    24A     -0.793926
      25A     -0.787150    26A     -0.688560    27A     -0.660389
      28A     -0.598152    29A     -0.589078    30A     -0.577309
      31A     -0.573474    32A     -0.558846    33A     -0.548745
      34A     -0.535181    35A     -0.497936    36A     -0.496586
      37A     -0.450808    38A     -0.392038    39A     -0.367362
      40A     -0.330950    41A     -0.318706

  @DF-RHF Final Energy:  -602.95274996351418

   => Energetics <=

    Nuclear Repulsion Energy =            524.6230396338789888
    One-Electron Energy =               -1972.1154986574779286
    Two-Electron Energy =                 844.5397090600847605
    Total Energy =                       -602.9527499635141794
  Basis Set: (AUG-CC-PVTZ AUX)
    Blend: AUG-CC-PVTZ-RI + DEF2-QZVPP-RI
    Molecular point group: c1

    Geometry (in Angstrom), charge = 0, multiplicity = 1:

       Center              X                  Y                   Z               Mass
    ------------   -----------------  -----------------  -----------------  -----------------
         I           -1.775735918426    -0.000899214522     0.001327421231   126.904471900000
         C            2.419778081574    -1.225323214522    -0.013359578769    12.000000000000
         C            2.419785081574     1.223524785478    -0.013832578769    12.000000000000
         C            3.101938081574    -0.000895214522    -0.020371578769    12.000000000000
         C            1.017248081574    -1.219548214522    -0.004119578769    12.000000000000
         C            1.017243081574     1.217752785478    -0.004593578769    12.000000000000
         C            0.332726081574    -0.000892214522     0.001281421231    12.000000000000
         C            3.165231981574    -2.513392414522     0.015695021231    12.000000000000
         C            3.175197081574     2.528945785478     0.015110421231    12.000000000000
         H            4.191604081574    -0.000902214522    -0.034037578769     1.007825032230
         H            0.467953081574    -2.157803214522    -0.005351578769     1.007825032230
         H            0.467953081574     2.156011785478    -0.006191578769     1.007825032230
         H            4.139522081574    -2.438987214522    -0.489655578769     1.007825032230
         H            2.608919081574    -3.327051214522    -0.472633578769     1.007825032230
         H            3.368233081574    -2.843969214522     1.047175421231     1.007825032230
         H            2.609532081574     3.324703785478    -0.475348578769     1.007825032230
         H            3.366720081574     2.843457785478     1.046094421231     1.007825032230
         H            4.140174081574     2.436650785478    -0.489172578769     1.007825032230

  Basis Set: AUG-CC-PVTZ
    Blend: AUG-CC-PVTZ
  Basis Set: (AUG-CC-PVTZ AUX)
    Blend: AUG-CC-PVTZ-JKFIT + DEF2-UNIVERSAL-JKFIT
	 Reference Energy          =    -602.9527499635141794 [Eh]
	 Singles Energy            =      -0.0000000000000000 [Eh]
	 Same-Spin Energy          =      -0.4260556110338051 [Eh]
	 Opposite-Spin Energy      =      -1.3002658605274604 [Eh]
	 Correlation Energy        =      -1.7263214715612656 [Eh]
	 Total Energy              =    -604.6790714350754570 [Eh]

	 ================> DF-SCS-MP2 Energies <==================
	-----------------------------------------------------------
	 SCS Same-Spin Scale       =       0.3333333333333333 [-]
	 SCS Opposite-Spin Scale   =       1.2000000000000000 [-]
	 SCS Same-Spin Energy      =      -0.1420185370112683 [Eh]
	 SCS Opposite-Spin Energy  =      -1.5603190326329524 [Eh]
	 SCS Correlation Energy    =      -1.7023375696442207 [Eh]
	 SCS Total Energy          =    -604.6550875331583939 [Eh]
	-----------------------------------------------------------

  Dipole Moment: [D]
     X:     2.2010      Y:    -0.0013      Z:     0.0799     Total:     2.2024

*** Psi4 exiting successfully. Buy a developer a beer!
