                               Psi4 1.4a3.dev225

  ==> Input File <==

--------------------------------------------------------------------------
#psi4
#
memory 32 gb

molecule  {
0 1
  I       -2.0593870    -0.0000050     0.0008870
  C        2.1361270    -1.2244290    -0.0138000
  C        2.1361340     1.2244190    -0.0142730
  C        2.8182870    -0.0000010    -0.0208120
  C        0.6906510    -1.2418018    -0.0042018
  C        0.7335920     1.2186470    -0.0050340
  C        0.0490750     0.0000020     0.0008410
  C        2.8915970    -2.5298050     0.0156450
  C        2.8915460     2.5298400     0.0146700
  H        3.9079530    -0.0000080    -0.0344780
  H        0.1843020    -2.1569090    -0.0057920
  H        0.1843020     2.1569060    -0.0066320
  H        3.8558710    -2.4380930    -0.4900960
  H        2.3252680    -3.3261570    -0.4730740
  H        3.0845820    -2.8430750     1.0467350
  H        2.3258810     3.3255980    -0.4757890
  H        3.0830690     2.8443520     1.0456540
  H        3.8565230     2.4375450    -0.4896130
units angstrom
no_reorient  #important for SAPT in psi4, default
symmetry c1  #important for SAPT in psi4, default
}

set PROPERTIES_ORIGIN ["COM"]
properties('MP2/aug-cc-pvtz', properties = ['dipole'])
--------------------------------------------------------------------------

    Molecular point group: c1
  Charge       = 0
  Multiplicity = 1
  Basis Set: AUG-CC-PVTZ
    Blend: AUG-CC-PVTZ
  Basis Set: (AUG-CC-PVTZ AUX)
    Blend: AUG-CC-PVTZ-JKFIT + DEF2-UNIVERSAL-JKFIT

    Orbital Energies [Eh]
    ---------------------

    Doubly Occupied:

       1A    -11.292096     2A    -11.261437     3A    -11.257344
       4A    -11.244388     5A    -11.242538     6A    -11.237111
       7A    -11.232698     8A    -11.232375     9A     -7.715426
      10A     -5.547054    11A     -5.537603    12A     -5.537561
      13A     -2.276721    14A     -2.271821    15A     -2.271816
      16A     -2.261298    17A     -2.261291    18A     -1.164594
      19A     -1.065098    20A     -1.047900    21A     -0.949956
      22A     -0.939920    23A     -0.893672    24A     -0.796460
      25A     -0.782942    26A     -0.693985    27A     -0.658467
      28A     -0.598513    29A     -0.589738    30A     -0.579517
      31A     -0.575528    32A     -0.561429    33A     -0.549322
      34A     -0.537302    35A     -0.499280    36A     -0.497407
      37A     -0.445239    38A     -0.391682    39A     -0.365800
      40A     -0.327661    41A     -0.319605

  @DF-RHF Final Energy:  -602.94977810785826

   => Energetics <=

    Nuclear Repulsion Energy =            523.7322659449663433
    One-Electron Energy =               -1970.3409057317021507
    Two-Electron Energy =                 843.6588616788774289
    Total Energy =                       -602.9497781078582648
  Basis Set: (AUG-CC-PVTZ AUX)
    Blend: AUG-CC-PVTZ-RI + DEF2-QZVPP-RI
    Molecular point group: c1

    Geometry (in Angstrom), charge = 0, multiplicity = 1:

       Center              X                  Y                   Z               Mass
    ------------   -----------------  -----------------  -----------------  -----------------
         I           -1.774032463419     0.001193491223     0.001288696351   126.904471900000
         C            2.421481536581    -1.223230508777    -0.013398303649    12.000000000000
         C            2.421488536581     1.225617491223    -0.013871303649    12.000000000000
         C            3.103641536581     0.001197491223    -0.020410303649    12.000000000000
         C            0.976005536581    -1.240603308777    -0.003800103649    12.000000000000
         C            1.018946536581     1.219845491223    -0.004632303649    12.000000000000
         C            0.334429536581     0.001200491223     0.001242696351    12.000000000000
         C            3.176951536581    -2.528606508777     0.016046696351    12.000000000000
         C            3.176900536581     2.531038491223     0.015071696351    12.000000000000
         H            4.193307536581     0.001190491223    -0.034076303649     1.007825032230
         H            0.469656536581    -2.155710508777    -0.005390303649     1.007825032230
         H            0.469656536581     2.158104491223    -0.006230303649     1.007825032230
         H            4.141225536581    -2.436894508777    -0.489694303649     1.007825032230
         H            2.610622536581    -3.324958508777    -0.472672303649     1.007825032230
         H            3.369936536581    -2.841876508777     1.047136696351     1.007825032230
         H            2.611235536581     3.326796491223    -0.475387303649     1.007825032230
         H            3.368423536581     2.845550491223     1.046055696351     1.007825032230
         H            4.141877536581     2.438743491223    -0.489211303649     1.007825032230

  Basis Set: AUG-CC-PVTZ
    Blend: AUG-CC-PVTZ
  Basis Set: (AUG-CC-PVTZ AUX)
    Blend: AUG-CC-PVTZ-JKFIT + DEF2-UNIVERSAL-JKFIT
	 Reference Energy          =    -602.9497781078582648 [Eh]
	 Singles Energy            =      -0.0000000000000000 [Eh]
	 Same-Spin Energy          =      -0.4258906840260503 [Eh]
	 Opposite-Spin Energy      =      -1.3002745740321644 [Eh]
	 Correlation Energy        =      -1.7261652580582147 [Eh]
	 Total Energy              =    -604.6759433659165097 [Eh]

	 ================> DF-SCS-MP2 Energies <==================
	-----------------------------------------------------------
	 SCS Same-Spin Scale       =       0.3333333333333333 [-]
	 SCS Opposite-Spin Scale   =       1.2000000000000000 [-]
	 SCS Same-Spin Energy      =      -0.1419635613420168 [Eh]
	 SCS Opposite-Spin Energy  =      -1.5603294888385972 [Eh]
	 SCS Correlation Energy    =      -1.7022930501806139 [Eh]
	 SCS Total Energy          =    -604.6520711580388934 [Eh]
	-----------------------------------------------------------

  Dipole Moment: [D]
     X:     2.2999      Y:    -0.0181      Z:     0.0800     Total:     2.3013

*** Psi4 exiting successfully. Buy a developer a beer!
