                               Psi4 1.4a3.dev225

  ==> Input File <==

--------------------------------------------------------------------------
#psi4
#
memory 32 gb

molecule  {
0 1
  I       -2.0593870    -0.0000050     0.0008870
  C        2.1361270    -1.2244290    -0.0138000
  C        2.1361340     1.2244190    -0.0142730
  C        2.8182870    -0.0000010    -0.0208120
  C        0.7335970    -1.2186540    -0.0045600
  C        0.7335920     1.2186470    -0.0050340
  C        0.0490750     0.0000020     0.0008410
  C        2.8915970    -2.5298050     0.0156450
  C        2.8915460     2.5298400     0.0146700
  H        3.9079530    -0.0000080    -0.0344780
  H        0.1843020    -2.1569090    -0.0057920
  H        0.1843020     2.1569060    -0.0066320
  H        3.8558710    -2.4380930    -0.4900960
  H        2.3252680    -3.3261570    -0.4730740
  H        3.0845820    -2.8430750     1.0467350
  H        2.3776537     3.2527659    -0.4308995
  H        3.0830690     2.8443520     1.0456540
  H        3.8565230     2.4375450    -0.4896130
units angstrom
no_reorient  #important for SAPT in psi4, default
symmetry c1  #important for SAPT in psi4, default
}

set PROPERTIES_ORIGIN ["COM"]
properties('MP2/aug-cc-pvtz', properties = ['dipole'])
--------------------------------------------------------------------------

    Molecular point group: c1
  Charge       = 0
  Multiplicity = 1
  Basis Set: AUG-CC-PVTZ
    Blend: AUG-CC-PVTZ
  Basis Set: (AUG-CC-PVTZ AUX)
    Blend: AUG-CC-PVTZ-JKFIT + DEF2-UNIVERSAL-JKFIT

    Orbital Energies [Eh]
    ---------------------

    Doubly Occupied:

       1A    -11.290299     2A    -11.255335     3A    -11.254939
       4A    -11.242509     5A    -11.242361     6A    -11.236213
       7A    -11.231766     8A    -11.219734     9A     -7.717155
      10A     -5.548851    11A     -5.539282    12A     -5.539246
      13A     -2.278518    14A     -2.273574    15A     -2.273568
      16A     -2.262921    17A     -2.262914    18A     -1.167480
      19A     -1.068655    20A     -1.047305    21A     -0.955482
      22A     -0.940607    23A     -0.895113    24A     -0.796562
      25A     -0.786858    26A     -0.688471    27A     -0.661393
      28A     -0.600162    29A     -0.589766    30A     -0.579247
      31A     -0.575221    32A     -0.564451    33A     -0.549529
      34A     -0.540074    35A     -0.499003    36A     -0.495262
      37A     -0.450361    38A     -0.391997    39A     -0.367224
      40A     -0.331191    41A     -0.318457

  @DF-RHF Final Energy:  -602.94726808989151

   => Energetics <=

    Nuclear Repulsion Energy =            524.7171729104314863
    One-Electron Energy =               -1972.2707694629639263
    Two-Electron Energy =                 844.6063284626408176
    Total Energy =                       -602.9472680898915087
  Basis Set: (AUG-CC-PVTZ AUX)
    Blend: AUG-CC-PVTZ-RI + DEF2-QZVPP-RI
    Molecular point group: c1

    Geometry (in Angstrom), charge = 0, multiplicity = 1:

       Center              X                  Y                   Z               Mass
    ------------   -----------------  -----------------  -----------------  -----------------
         I           -1.776478977374     0.000312483886     0.001112201557   126.904471900000
         C            2.419035022626    -1.224111516114    -0.013574798443    12.000000000000
         C            2.419042022626     1.224736483886    -0.014047798443    12.000000000000
         C            3.101195022626     0.000316483886    -0.020586798443    12.000000000000
         C            1.016505022626    -1.218336516114    -0.004334798443    12.000000000000
         C            1.016500022626     1.218964483886    -0.004808798443    12.000000000000
         C            0.331983022626     0.000319483886     0.001066201557    12.000000000000
         C            3.174505022626    -2.529487516114     0.015870201557    12.000000000000
         C            3.174454022626     2.530157483886     0.014895201557    12.000000000000
         H            4.190861022626     0.000309483886    -0.034252798443     1.007825032230
         H            0.467210022626    -2.156591516114    -0.005566798443     1.007825032230
         H            0.467210022626     2.157223483886    -0.006406798443     1.007825032230
         H            4.138779022626    -2.437775516114    -0.489870798443     1.007825032230
         H            2.608176022626    -3.325839516114    -0.472848798443     1.007825032230
         H            3.367490022626    -2.842757516114     1.046960201557     1.007825032230
         H            2.660561722626     3.253083383886    -0.430674298443     1.007825032230
         H            3.365977022626     2.844669483886     1.045879201557     1.007825032230
         H            4.139431022626     2.437862483886    -0.489387798443     1.007825032230

  Basis Set: AUG-CC-PVTZ
    Blend: AUG-CC-PVTZ
  Basis Set: (AUG-CC-PVTZ AUX)
    Blend: AUG-CC-PVTZ-JKFIT + DEF2-UNIVERSAL-JKFIT
	 Reference Energy          =    -602.9472680898915087 [Eh]
	 Singles Energy            =      -0.0000000000000000 [Eh]
	 Same-Spin Energy          =      -0.4258710730299285 [Eh]
	 Opposite-Spin Energy      =      -1.2995724962403439 [Eh]
	 Correlation Energy        =      -1.7254435692702725 [Eh]
	 Total Energy              =    -604.6727116591617914 [Eh]

	 ================> DF-SCS-MP2 Energies <==================
	-----------------------------------------------------------
	 SCS Same-Spin Scale       =       0.3333333333333333 [-]
	 SCS Opposite-Spin Scale   =       1.2000000000000000 [-]
	 SCS Same-Spin Energy      =      -0.1419570243433095 [Eh]
	 SCS Opposite-Spin Energy  =      -1.5594869954884125 [Eh]
	 SCS Correlation Energy    =      -1.7014440198317220 [Eh]
	 SCS Total Energy          =    -604.6487121097231920 [Eh]
	-----------------------------------------------------------

  Dipole Moment: [D]
     X:     2.1991      Y:     0.0448      Z:     0.0662     Total:     2.2005

*** Psi4 exiting successfully. Buy a developer a beer!
