                               Psi4 1.4a3.dev225

  ==> Input File <==

--------------------------------------------------------------------------
#psi4
#
memory 32 gb

molecule  {
0 1
  I       -2.0593870    -0.0000050     0.0008870
  C        2.1361270    -1.2244290    -0.0138000
  C        2.1361340     1.2244190    -0.0142730
  C        2.8182870    -0.0000010    -0.0208120
  C        0.7335970    -1.2186540    -0.0045600
  C        0.7335920     1.2186470    -0.0050340
  C        0.0735615    -0.0435913     0.0006478
  C        2.8915970    -2.5298050     0.0156450
  C        2.8915460     2.5298400     0.0146700
  H        3.9079530    -0.0000080    -0.0344780
  H        0.1843020    -2.1569090    -0.0057920
  H        0.1843020     2.1569060    -0.0066320
  H        3.8558710    -2.4380930    -0.4900960
  H        2.3252680    -3.3261570    -0.4730740
  H        3.0845820    -2.8430750     1.0467350
  H        2.3258810     3.3255980    -0.4757890
  H        3.0830690     2.8443520     1.0456540
  H        3.8565230     2.4375450    -0.4896130
units angstrom
no_reorient  #important for SAPT in psi4, default
symmetry c1  #important for SAPT in psi4, default
}

set PROPERTIES_ORIGIN ["COM"]
properties('MP2/aug-cc-pvtz', properties = ['dipole'])
--------------------------------------------------------------------------

    Molecular point group: c1
  Charge       = 0
  Multiplicity = 1
  Basis Set: AUG-CC-PVTZ
    Blend: AUG-CC-PVTZ
  Basis Set: (AUG-CC-PVTZ AUX)
    Blend: AUG-CC-PVTZ-JKFIT + DEF2-UNIVERSAL-JKFIT

    Orbital Energies [Eh]
    ---------------------

    Doubly Occupied:

       1A    -11.289936     2A    -11.256971     3A    -11.255962
       4A    -11.245260     5A    -11.238381     6A    -11.237067
       7A    -11.232723     8A    -11.232175     9A     -7.715186
      10A     -5.546799    11A     -5.537332    12A     -5.537284
      13A     -2.276305    14A     -2.271539    15A     -2.271524
      16A     -2.260979    17A     -2.260972    18A     -1.170942
      19A     -1.068843    20A     -1.048030    21A     -0.949803
      22A     -0.941066    23A     -0.892013    24A     -0.797337
      25A     -0.785589    26A     -0.690365    27A     -0.661824
      28A     -0.595060    29A     -0.590341    30A     -0.579609
      31A     -0.575550    32A     -0.560786    33A     -0.548607
      34A     -0.538284    35A     -0.501290    36A     -0.497010
      37A     -0.443885    38A     -0.390536    39A     -0.365800
      40A     -0.333968    41A     -0.319426

  @DF-RHF Final Energy:  -602.95131444851449

   => Energetics <=

    Nuclear Repulsion Energy =            524.3451860159160560
    One-Electron Energy =               -1971.5682808311005374
    Two-Electron Energy =                 844.2717803666701002
    Total Energy =                       -602.9513144485144949
  Basis Set: (AUG-CC-PVTZ AUX)
    Blend: AUG-CC-PVTZ-RI + DEF2-QZVPP-RI
    Molecular point group: c1

    Geometry (in Angstrom), charge = 0, multiplicity = 1:

       Center              X                  Y                   Z               Mass
    ------------   -----------------  -----------------  -----------------  -----------------
         I           -1.777520728787     0.002251131523     0.001317220127   126.904471900000
         C            2.417993271213    -1.222172868477    -0.013369779873    12.000000000000
         C            2.418000271213     1.226675131523    -0.013842779873    12.000000000000
         C            3.100153271213     0.002255131523    -0.020381779873    12.000000000000
         C            1.015463271213    -1.216397868477    -0.004129779873    12.000000000000
         C            1.015458271213     1.220903131523    -0.004603779873    12.000000000000
         C            0.355427771213    -0.041335168477     0.001078020127    12.000000000000
         C            3.173463271213    -2.527548868477     0.016075220127    12.000000000000
         C            3.173412271213     2.532096131523     0.015100220127    12.000000000000
         H            4.189819271213     0.002248131523    -0.034047779873     1.007825032230
         H            0.466168271213    -2.154652868477    -0.005361779873     1.007825032230
         H            0.466168271213     2.159162131523    -0.006201779873     1.007825032230
         H            4.137737271213    -2.435836868477    -0.489665779873     1.007825032230
         H            2.607134271213    -3.323900868477    -0.472643779873     1.007825032230
         H            3.366448271213    -2.840818868477     1.047165220127     1.007825032230
         H            2.607747271213     3.327854131523    -0.475358779873     1.007825032230
         H            3.364935271213     2.846608131523     1.046084220127     1.007825032230
         H            4.138389271213     2.439801131523    -0.489182779873     1.007825032230

  Basis Set: AUG-CC-PVTZ
    Blend: AUG-CC-PVTZ
  Basis Set: (AUG-CC-PVTZ AUX)
    Blend: AUG-CC-PVTZ-JKFIT + DEF2-UNIVERSAL-JKFIT
	 Reference Energy          =    -602.9513144485144949 [Eh]
	 Singles Energy            =      -0.0000000000000000 [Eh]
	 Same-Spin Energy          =      -0.4255890844306517 [Eh]
	 Opposite-Spin Energy      =      -1.2996762948434255 [Eh]
	 Correlation Energy        =      -1.7252653792740773 [Eh]
	 Total Energy              =    -604.6765798277886006 [Eh]

	 ================> DF-SCS-MP2 Energies <==================
	-----------------------------------------------------------
	 SCS Same-Spin Scale       =       0.3333333333333333 [-]
	 SCS Opposite-Spin Scale   =       1.2000000000000000 [-]
	 SCS Same-Spin Energy      =      -0.1418630281435506 [Eh]
	 SCS Opposite-Spin Energy  =      -1.5596115538121105 [Eh]
	 SCS Correlation Energy    =      -1.7014745819556609 [Eh]
	 SCS Total Energy          =    -604.6527890304701032 [Eh]
	-----------------------------------------------------------

  Dipole Moment: [D]
     X:     2.3156      Y:     0.0032      Z:     0.0796     Total:     2.3169

*** Psi4 exiting successfully. Buy a developer a beer!
