                               Psi4 1.4a3.dev225

  ==> Input File <==

--------------------------------------------------------------------------
#psi4
#
memory 32 gb

molecule  {
0 1
  I       -2.0593870    -0.0000050     0.0008870
  C        2.1361270    -1.2244290    -0.0138000
  C        2.1361340     1.2244190    -0.0142730
  C        2.8182870    -0.0000010    -0.0208120
  C        0.7335970    -1.2186540    -0.0045600
  C        0.7335920     1.2186470    -0.0050340
  C        0.0490750     0.0000020     0.0008410
  C        2.8915970    -2.5298050     0.0156450
  C        2.8915460     2.5298400     0.0146700
  H        3.9079530    -0.0000080    -0.0344780
  H        0.1843020    -2.1569090    -0.0057920
  H        0.1843020     2.1569060    -0.0066320
  H        3.8558710    -2.4380930    -0.4900960
  H        2.3252680    -3.3261570    -0.4730740
  H        3.0810564    -2.8373520     1.0278984
  H        2.3258810     3.3255980    -0.4757890
  H        3.0830690     2.8443520     1.0456540
  H        3.8565230     2.4375450    -0.4896130
units angstrom
no_reorient  #important for SAPT in psi4, default
symmetry c1  #important for SAPT in psi4, default
}

set PROPERTIES_ORIGIN ["COM"]
properties('MP2/aug-cc-pvtz', properties = ['dipole'])
--------------------------------------------------------------------------

    Molecular point group: c1
  Charge       = 0
  Multiplicity = 1
  Basis Set: AUG-CC-PVTZ
    Blend: AUG-CC-PVTZ
  Basis Set: (AUG-CC-PVTZ AUX)
    Blend: AUG-CC-PVTZ-JKFIT + DEF2-UNIVERSAL-JKFIT

    Orbital Energies [Eh]
    ---------------------

    Doubly Occupied:

       1A    -11.290359     2A    -11.255611     3A    -11.255524
       4A    -11.242552     5A    -11.242522     6A    -11.236750
       7A    -11.231964     8A    -11.229591     9A     -7.717213
      10A     -5.548911    11A     -5.539339    12A     -5.539304
      13A     -2.278578    14A     -2.273634    15A     -2.273627
      16A     -2.262977    17A     -2.262971    18A     -1.167547
      19A     -1.067206    20A     -1.046971    21A     -0.950199
      22A     -0.939441    23A     -0.895234    24A     -0.794264
      25A     -0.787014    26A     -0.688473    27A     -0.659867
      28A     -0.594785    29A     -0.591546    30A     -0.579488
      31A     -0.573299    32A     -0.560007    33A     -0.549051
      34A     -0.537122    35A     -0.499102    36A     -0.494880
      37A     -0.450511    38A     -0.392198    39A     -0.367276
      40A     -0.331292    41A     -0.318674

  @DF-RHF Final Energy:  -602.95339639192196

   => Energetics <=

    Nuclear Repulsion Energy =            524.3511925518880616
    One-Electron Energy =               -1971.5754297671574022
    Two-Electron Energy =                 844.2708408233473847
    Total Energy =                       -602.9533963919219559
  Basis Set: (AUG-CC-PVTZ AUX)
    Blend: AUG-CC-PVTZ-RI + DEF2-QZVPP-RI
    Molecular point group: c1

    Geometry (in Angstrom), charge = 0, multiplicity = 1:

       Center              X                  Y                   Z               Mass
    ------------   -----------------  -----------------  -----------------  -----------------
         I           -1.776238731504    -0.000028802164     0.001389062371   126.904471900000
         C            2.419275268496    -1.224452802164    -0.013297937629    12.000000000000
         C            2.419282268496     1.224395197836    -0.013770937629    12.000000000000
         C            3.101435268496    -0.000024802164    -0.020309937629    12.000000000000
         C            1.016745268496    -1.218677802164    -0.004057937629    12.000000000000
         C            1.016740268496     1.218623197836    -0.004531937629    12.000000000000
         C            0.332223268496    -0.000021802164     0.001343062371    12.000000000000
         C            3.174745268496    -2.529828802164     0.016147062371    12.000000000000
         C            3.174694268496     2.529816197836     0.015172062371    12.000000000000
         H            4.191101268496    -0.000031802164    -0.033975937629     1.007825032230
         H            0.467450268496    -2.156932802164    -0.005289937629     1.007825032230
         H            0.467450268496     2.156882197836    -0.006129937629     1.007825032230
         H            4.139019268496    -2.438116802164    -0.489593937629     1.007825032230
         H            2.608416268496    -3.326180802164    -0.472571937629     1.007825032230
         H            3.364204668496    -2.837375802164     1.028400462371     1.007825032230
         H            2.609029268496     3.325574197836    -0.475286937629     1.007825032230
         H            3.366217268496     2.844328197836     1.046156062371     1.007825032230
         H            4.139671268496     2.437521197836    -0.489110937629     1.007825032230

  Basis Set: AUG-CC-PVTZ
    Blend: AUG-CC-PVTZ
  Basis Set: (AUG-CC-PVTZ AUX)
    Blend: AUG-CC-PVTZ-JKFIT + DEF2-UNIVERSAL-JKFIT
	 Reference Energy          =    -602.9533963919219559 [Eh]
	 Singles Energy            =      -0.0000000000000000 [Eh]
	 Same-Spin Energy          =      -0.4258751002825776 [Eh]
	 Opposite-Spin Energy      =      -1.2999730963519753 [Eh]
	 Correlation Energy        =      -1.7258481966345529 [Eh]
	 Total Energy              =    -604.6792445885564575 [Eh]

	 ================> DF-SCS-MP2 Energies <==================
	-----------------------------------------------------------
	 SCS Same-Spin Scale       =       0.3333333333333333 [-]
	 SCS Opposite-Spin Scale   =       1.2000000000000000 [-]
	 SCS Same-Spin Energy      =      -0.1419583667608592 [Eh]
	 SCS Opposite-Spin Energy  =      -1.5599677156223704 [Eh]
	 SCS Correlation Energy    =      -1.7019260823832296 [Eh]
	 SCS Total Energy          =    -604.6553224743051942 [Eh]
	-----------------------------------------------------------

  Dipole Moment: [D]
     X:     2.2056      Y:    -0.0065      Z:     0.0850     Total:     2.2073

*** Psi4 exiting successfully. Buy a developer a beer!
