                               Psi4 1.4a3.dev225

  ==> Input File <==

--------------------------------------------------------------------------
#psi4
#
memory 32 gb

molecule  {
0 1
  I       -2.0593870    -0.0000050     0.0008870
  C        2.1361270    -1.2244290    -0.0138000
  C        2.1361340     1.2244190    -0.0142730
  C        2.8182870    -0.0000010    -0.0208120
  C        0.7335970    -1.2186540    -0.0045600
  C        0.7335920     1.2186470    -0.0050340
  C        0.0279108     0.0121342     0.0008586
  C        2.8915970    -2.5298050     0.0156450
  C        2.8915460     2.5298400     0.0146700
  H        3.9079530    -0.0000080    -0.0344780
  H        0.1843020    -2.1569090    -0.0057920
  H        0.1843020     2.1569060    -0.0066320
  H        3.8558710    -2.4380930    -0.4900960
  H        2.3252680    -3.3261570    -0.4730740
  H        3.0845820    -2.8430750     1.0467350
  H        2.3258810     3.3255980    -0.4757890
  H        3.0830690     2.8443520     1.0456540
  H        3.8565230     2.4375450    -0.4896130
units angstrom
no_reorient  #important for SAPT in psi4, default
symmetry c1  #important for SAPT in psi4, default
}

set PROPERTIES_ORIGIN ["COM"]
properties('MP2/aug-cc-pvtz', properties = ['dipole'])
--------------------------------------------------------------------------

    Molecular point group: c1
  Charge       = 0
  Multiplicity = 1
  Basis Set: AUG-CC-PVTZ
    Blend: AUG-CC-PVTZ
  Basis Set: (AUG-CC-PVTZ AUX)
    Blend: AUG-CC-PVTZ-JKFIT + DEF2-UNIVERSAL-JKFIT

    Orbital Energies [Eh]
    ---------------------

    Doubly Occupied:

       1A    -11.290628     2A    -11.255157     3A    -11.254900
       4A    -11.244066     5A    -11.242301     6A    -11.236698
       7A    -11.231715     8A    -11.231582     9A     -7.718908
      10A     -5.550677    11A     -5.541018    12A     -5.540996
      13A     -2.280493    14A     -2.275401    15A     -2.275374
      16A     -2.264655    17A     -2.264649    18A     -1.165153
      19A     -1.066011    20A     -1.046030    21A     -0.949116
      22A     -0.936865    23A     -0.898003    24A     -0.793133
      25A     -0.786001    26A     -0.686979    27A     -0.658153
      28A     -0.594734    29A     -0.588929    30A     -0.577059
      31A     -0.571077    32A     -0.559624    33A     -0.549443
      34A     -0.536294    35A     -0.496925    36A     -0.493217
      37A     -0.455425    38A     -0.393750    39A     -0.368409
      40A     -0.330425    41A     -0.316786

  @DF-RHF Final Energy:  -602.95221535107123

   => Energetics <=

    Nuclear Repulsion Energy =            524.2077599600495432
    One-Electron Energy =               -1971.2864320684277573
    Two-Electron Energy =                 844.1264567573069826
    Total Energy =                       -602.9522153510712315
  Basis Set: (AUG-CC-PVTZ AUX)
    Blend: AUG-CC-PVTZ-RI + DEF2-QZVPP-RI
    Molecular point group: c1

    Geometry (in Angstrom), charge = 0, multiplicity = 1:

       Center              X                  Y                   Z               Mass
    ------------   -----------------  -----------------  -----------------  -----------------
         I           -1.775159230165    -0.000631533834     0.001306315499   126.904471900000
         C            2.420354769835    -1.225055533834    -0.013380684501    12.000000000000
         C            2.420361769835     1.223792466166    -0.013853684501    12.000000000000
         C            3.102514769835    -0.000627533834    -0.020392684501    12.000000000000
         C            1.017824769835    -1.219280533834    -0.004140684501    12.000000000000
         C            1.017819769835     1.218020466166    -0.004614684501    12.000000000000
         C            0.312138569835     0.011507666166     0.001277915499    12.000000000000
         C            3.175824769835    -2.530431533834     0.016064315499    12.000000000000
         C            3.175773769835     2.529213466166     0.015089315499    12.000000000000
         H            4.192180769835    -0.000634533834    -0.034058684501     1.007825032230
         H            0.468529769835    -2.157535533834    -0.005372684501     1.007825032230
         H            0.468529769835     2.156279466166    -0.006212684501     1.007825032230
         H            4.140098769835    -2.438719533834    -0.489676684501     1.007825032230
         H            2.609495769835    -3.326783533834    -0.472654684501     1.007825032230
         H            3.368809769835    -2.843701533834     1.047154315499     1.007825032230
         H            2.610108769835     3.324971466166    -0.475369684501     1.007825032230
         H            3.367296769835     2.843725466166     1.046073315499     1.007825032230
         H            4.140750769835     2.436918466166    -0.489193684501     1.007825032230

  Basis Set: AUG-CC-PVTZ
    Blend: AUG-CC-PVTZ
  Basis Set: (AUG-CC-PVTZ AUX)
    Blend: AUG-CC-PVTZ-JKFIT + DEF2-UNIVERSAL-JKFIT
	 Reference Energy          =    -602.9522153510712315 [Eh]
	 Singles Energy            =      -0.0000000000000000 [Eh]
	 Same-Spin Energy          =      -0.4260671520320499 [Eh]
	 Opposite-Spin Energy      =      -1.3005558166982765 [Eh]
	 Correlation Energy        =      -1.7266229687303265 [Eh]
	 Total Energy              =    -604.6788383198015708 [Eh]

	 ================> DF-SCS-MP2 Energies <==================
	-----------------------------------------------------------
	 SCS Same-Spin Scale       =       0.3333333333333333 [-]
	 SCS Opposite-Spin Scale   =       1.2000000000000000 [-]
	 SCS Same-Spin Energy      =      -0.1420223840106833 [Eh]
	 SCS Opposite-Spin Energy  =      -1.5606669800379318 [Eh]
	 SCS Correlation Energy    =      -1.7026893640486152 [Eh]
	 SCS Total Energy          =    -604.6549047151198693 [Eh]
	-----------------------------------------------------------

  Dipole Moment: [D]
     X:     2.1072      Y:    -0.0021      Z:     0.0786     Total:     2.1087

*** Psi4 exiting successfully. Buy a developer a beer!
