                               Psi4 1.4a3.dev225

  ==> Input File <==

--------------------------------------------------------------------------
#psi4
#
memory 32 gb

molecule  {
0 1
  I       -2.0593870    -0.0000050     0.0008870
  C        2.1361270    -1.2244290    -0.0138000
  C        2.1361340     1.2244190    -0.0142730
  C        2.8182870    -0.0000010    -0.0208120
  C        0.7335970    -1.2186540    -0.0045600
  C        0.7335920     1.2186470    -0.0050340
  C        0.0490750     0.0000020     0.0008410
  C        2.9016131    -2.5471118     0.0160354
  C        2.8915460     2.5298400     0.0146700
  H        3.9079530    -0.0000080    -0.0344780
  H        0.1843020    -2.1569090    -0.0057920
  H        0.1843020     2.1569060    -0.0066320
  H        3.8558710    -2.4380930    -0.4900960
  H        2.3252680    -3.3261570    -0.4730740
  H        3.0845820    -2.8430750     1.0467350
  H        2.3258810     3.3255980    -0.4757890
  H        3.0830690     2.8443520     1.0456540
  H        3.8565230     2.4375450    -0.4896130
units angstrom
no_reorient  #important for SAPT in psi4, default
symmetry c1  #important for SAPT in psi4, default
}

set PROPERTIES_ORIGIN ["COM"]
properties('MP2/aug-cc-pvtz', properties = ['dipole'])
--------------------------------------------------------------------------

    Molecular point group: c1
  Charge       = 0
  Multiplicity = 1
  Basis Set: AUG-CC-PVTZ
    Blend: AUG-CC-PVTZ
  Basis Set: (AUG-CC-PVTZ AUX)
    Blend: AUG-CC-PVTZ-JKFIT + DEF2-UNIVERSAL-JKFIT

    Orbital Energies [Eh]
    ---------------------

    Doubly Occupied:

       1A    -11.290343     2A    -11.256459     3A    -11.255597
       4A    -11.242591     5A    -11.242545     6A    -11.236810
       7A    -11.231954     8A    -11.231476     9A     -7.717196
      10A     -5.548894    11A     -5.539323    12A     -5.539287
      13A     -2.278561    14A     -2.273617    15A     -2.273611
      16A     -2.262961    17A     -2.262954    18A     -1.166982
      19A     -1.065454    20A     -1.046171    21A     -0.949593
      22A     -0.939173    23A     -0.895152    24A     -0.793936
      25A     -0.786738    26A     -0.688390    27A     -0.659548
      28A     -0.592550    29A     -0.589761    30A     -0.578784
      31A     -0.572358    32A     -0.561898    33A     -0.549452
      34A     -0.538852    35A     -0.499404    36A     -0.492970
      37A     -0.450235    38A     -0.392290    39A     -0.367258
      40A     -0.331489    41A     -0.318680

  @DF-RHF Final Energy:  -602.95325059403581

   => Energetics <=

    Nuclear Repulsion Energy =            523.9052508604986542
    One-Electron Energy =               -1970.6944088269556232
    Two-Electron Energy =                 843.8359073724211612
    Total Energy =                       -602.9532505940358078
  Basis Set: (AUG-CC-PVTZ AUX)
    Blend: AUG-CC-PVTZ-RI + DEF2-QZVPP-RI
    Molecular point group: c1

    Geometry (in Angstrom), charge = 0, multiplicity = 1:

       Center              X                  Y                   Z               Mass
    ------------   -----------------  -----------------  -----------------  -----------------
         I           -1.776772178827     0.000891337840     0.001287030654   126.904471900000
         C            2.418741821173    -1.223532662160    -0.013399969346    12.000000000000
         C            2.418748821173     1.225315337840    -0.013872969346    12.000000000000
         C            3.100901821173     0.000895337840    -0.020411969346    12.000000000000
         C            1.016211821173    -1.217757662160    -0.004159969346    12.000000000000
         C            1.016206821173     1.219543337840    -0.004633969346    12.000000000000
         C            0.331689821173     0.000898337840     0.001241030654    12.000000000000
         C            3.184227921173    -2.546215462160     0.016435430654    12.000000000000
         C            3.174160821173     2.530736337840     0.015070030654    12.000000000000
         H            4.190567821173     0.000888337840    -0.034077969346     1.007825032230
         H            0.466916821173    -2.156012662160    -0.005391969346     1.007825032230
         H            0.466916821173     2.157802337840    -0.006231969346     1.007825032230
         H            4.138485821173    -2.437196662160    -0.489695969346     1.007825032230
         H            2.607882821173    -3.325260662160    -0.472673969346     1.007825032230
         H            3.367196821173    -2.842178662160     1.047135030654     1.007825032230
         H            2.608495821173     3.326494337840    -0.475388969346     1.007825032230
         H            3.365683821173     2.845248337840     1.046054030654     1.007825032230
         H            4.139137821173     2.438441337840    -0.489212969346     1.007825032230

  Basis Set: AUG-CC-PVTZ
    Blend: AUG-CC-PVTZ
  Basis Set: (AUG-CC-PVTZ AUX)
    Blend: AUG-CC-PVTZ-JKFIT + DEF2-UNIVERSAL-JKFIT
	 Reference Energy          =    -602.9532505940358078 [Eh]
	 Singles Energy            =      -0.0000000000000000 [Eh]
	 Same-Spin Energy          =      -0.4257223129847278 [Eh]
	 Opposite-Spin Energy      =      -1.2999633224816398 [Eh]
	 Correlation Energy        =      -1.7256856354663677 [Eh]
	 Total Energy              =    -604.6789362295021419 [Eh]

	 ================> DF-SCS-MP2 Energies <==================
	-----------------------------------------------------------
	 SCS Same-Spin Scale       =       0.3333333333333333 [-]
	 SCS Opposite-Spin Scale   =       1.2000000000000000 [-]
	 SCS Same-Spin Energy      =      -0.1419074376615759 [Eh]
	 SCS Opposite-Spin Energy  =      -1.5599559869779678 [Eh]
	 SCS Correlation Energy    =      -1.7018634246395437 [Eh]
	 SCS Total Energy          =    -604.6551140186753628 [Eh]
	-----------------------------------------------------------

  Dipole Moment: [D]
     X:     2.2010      Y:     0.0021      Z:     0.0782     Total:     2.2024

*** Psi4 exiting successfully. Buy a developer a beer!
