                               Psi4 1.4a3.dev225

  ==> Input File <==

--------------------------------------------------------------------------
#psi4
#
memory 32 gb

molecule  {
0 1
  I       -2.0593870    -0.0000050     0.0008870
  C        2.1361270    -1.2244290    -0.0138000
  C        2.1361340     1.2244190    -0.0142730
  C        2.8182870    -0.0000010    -0.0208120
  C        0.7335970    -1.2186540    -0.0045600
  C        0.7335920     1.2186470    -0.0050340
  C        0.0490750     0.0000020     0.0008410
  C        2.9416775    -2.6163390     0.0175969
  C        2.8915460     2.5298400     0.0146700
  H        3.9079530    -0.0000080    -0.0344780
  H        0.1843020    -2.1569090    -0.0057920
  H        0.1843020     2.1569060    -0.0066320
  H        3.8558710    -2.4380930    -0.4900960
  H        2.3252680    -3.3261570    -0.4730740
  H        3.0845820    -2.8430750     1.0467350
  H        2.3258810     3.3255980    -0.4757890
  H        3.0830690     2.8443520     1.0456540
  H        3.8565230     2.4375450    -0.4896130
units angstrom
no_reorient  #important for SAPT in psi4, default
symmetry c1  #important for SAPT in psi4, default
}

set PROPERTIES_ORIGIN ["COM"]
properties('MP2/aug-cc-pvtz', properties = ['dipole'])
--------------------------------------------------------------------------

    Molecular point group: c1
  Charge       = 0
  Multiplicity = 1
  Basis Set: AUG-CC-PVTZ
    Blend: AUG-CC-PVTZ
  Basis Set: (AUG-CC-PVTZ AUX)
    Blend: AUG-CC-PVTZ-JKFIT + DEF2-UNIVERSAL-JKFIT

    Orbital Energies [Eh]
    ---------------------

    Doubly Occupied:

       1A    -11.290097     2A    -11.259061     3A    -11.255359
       4A    -11.242532     5A    -11.242320     6A    -11.236772
       7A    -11.231778     8A    -11.230657     9A     -7.716986
      10A     -5.548680    11A     -5.539115    12A     -5.539077
      13A     -2.278347    14A     -2.273404    15A     -2.273399
      16A     -2.262754    17A     -2.262748    18A     -1.165049
      19A     -1.060964    20A     -1.042959    21A     -0.951008
      22A     -0.939973    23A     -0.894690    24A     -0.793739
      25A     -0.785898    26A     -0.688070    27A     -0.658249
      28A     -0.597046    29A     -0.585020    30A     -0.581707
      31A     -0.572624    32A     -0.564985    33A     -0.549770
      34A     -0.541828    35A     -0.501484    36A     -0.482832
      37A     -0.447778    38A     -0.392599    39A     -0.367033
      40A     -0.332206    41A     -0.318541

  @DF-RHF Final Energy:  -602.94605683579960

   => Energetics <=

    Nuclear Repulsion Energy =            522.5217508786370217
    One-Electron Energy =               -1967.9373423796278075
    Two-Electron Energy =                 842.4695346651911905
    Total Energy =                       -602.9460568357995953
  Basis Set: (AUG-CC-PVTZ AUX)
    Blend: AUG-CC-PVTZ-RI + DEF2-QZVPP-RI
    Molecular point group: c1

    Geometry (in Angstrom), charge = 0, multiplicity = 1:

       Center              X                  Y                   Z               Mass
    ------------   -----------------  -----------------  -----------------  -----------------
         I           -1.778844699629     0.004472442563     0.001206254672   126.904471900000
         C            2.416669300371    -1.219951557437    -0.013480745328    12.000000000000
         C            2.416676300371     1.228896442563    -0.013953745328    12.000000000000
         C            3.098829300371     0.004476442563    -0.020492745328    12.000000000000
         C            1.014139300371    -1.214176557437    -0.004240745328    12.000000000000
         C            1.014134300371     1.223124442563    -0.004714745328    12.000000000000
         C            0.329617300371     0.004479442563     0.001160254672    12.000000000000
         C            3.222219800371    -2.611861557437     0.017916154672    12.000000000000
         C            3.172088300371     2.534317442563     0.014989254672    12.000000000000
         H            4.188495300371     0.004469442563    -0.034158745328     1.007825032230
         H            0.464844300371    -2.152431557437    -0.005472745328     1.007825032230
         H            0.464844300371     2.161383442563    -0.006312745328     1.007825032230
         H            4.136413300371    -2.433615557437    -0.489776745328     1.007825032230
         H            2.605810300371    -3.321679557437    -0.472754745328     1.007825032230
         H            3.365124300371    -2.838597557437     1.047054254672     1.007825032230
         H            2.606423300371     3.330075442563    -0.475469745328     1.007825032230
         H            3.363611300371     2.848829442563     1.045973254672     1.007825032230
         H            4.137065300371     2.442022442563    -0.489293745328     1.007825032230

  Basis Set: AUG-CC-PVTZ
    Blend: AUG-CC-PVTZ
  Basis Set: (AUG-CC-PVTZ AUX)
    Blend: AUG-CC-PVTZ-JKFIT + DEF2-UNIVERSAL-JKFIT
	 Reference Energy          =    -602.9460568357995953 [Eh]
	 Singles Energy            =      -0.0000000000000000 [Eh]
	 Same-Spin Energy          =      -0.4254370652783894 [Eh]
	 Opposite-Spin Energy      =      -1.2999999896406944 [Eh]
	 Correlation Energy        =      -1.7254370549190838 [Eh]
	 Total Energy              =    -604.6714938907186934 [Eh]

	 ================> DF-SCS-MP2 Energies <==================
	-----------------------------------------------------------
	 SCS Same-Spin Scale       =       0.3333333333333333 [-]
	 SCS Opposite-Spin Scale   =       1.2000000000000000 [-]
	 SCS Same-Spin Energy      =      -0.1418123550927965 [Eh]
	 SCS Opposite-Spin Energy  =      -1.5599999875688333 [Eh]
	 SCS Correlation Energy    =      -1.7018123426616298 [Eh]
	 SCS Total Energy          =    -604.6478691784611783 [Eh]
	-----------------------------------------------------------

  Dipole Moment: [D]
     X:     2.1963      Y:     0.0160      Z:     0.0755     Total:     2.1977

*** Psi4 exiting successfully. Buy a developer a beer!
