                               Psi4 1.4a3.dev225

  ==> Input File <==

--------------------------------------------------------------------------
#psi4
#
memory 32 gb

molecule  {
0 1
  I       -2.0593870    -0.0000050     0.0008870
  C        2.1361270    -1.2244290    -0.0138000
  C        2.1361340     1.2244190    -0.0142730
  C        2.8182870    -0.0000010    -0.0208120
  C        0.7335970    -1.2186540    -0.0045600
  C        0.7335920     1.2186470    -0.0050340
  C        0.0490750     0.0000020     0.0008410
  C        2.8915970    -2.5298050     0.0156450
  C        2.8915460     2.5298400     0.0146700
  H        3.9079530    -0.0000080    -0.0344780
  H        0.1843020    -2.1569090    -0.0057920
  H        0.1843020     2.1569060    -0.0066320
  H        3.8558710    -2.4380930    -0.4900960
  H        2.3252680    -3.3261570    -0.4730740
  H        3.0845820    -2.8430750     1.0467350
  H        2.3362355     3.3110316    -0.4668111
  H        3.0830690     2.8443520     1.0456540
  H        3.8565230     2.4375450    -0.4896130
units angstrom
no_reorient  #important for SAPT in psi4, default
symmetry c1  #important for SAPT in psi4, default
}

set PROPERTIES_ORIGIN ["COM"]
properties('MP2/aug-cc-pvtz', properties = ['dipole'])
--------------------------------------------------------------------------

    Molecular point group: c1
  Charge       = 0
  Multiplicity = 1
  Basis Set: AUG-CC-PVTZ
    Blend: AUG-CC-PVTZ
  Basis Set: (AUG-CC-PVTZ AUX)
    Blend: AUG-CC-PVTZ-JKFIT + DEF2-UNIVERSAL-JKFIT

    Orbital Energies [Eh]
    ---------------------

    Doubly Occupied:

       1A    -11.290378     2A    -11.255585     3A    -11.255495
       4A    -11.242586     5A    -11.242546     6A    -11.236690
       7A    -11.231945     8A    -11.229579     9A     -7.717226
      10A     -5.548924    11A     -5.539352    12A     -5.539316
      13A     -2.278591    14A     -2.273646    15A     -2.273640
      16A     -2.262990    17A     -2.262983    18A     -1.167542
      19A     -1.067225    20A     -1.046932    21A     -0.950278
      22A     -0.939366    23A     -0.895238    24A     -0.794398
      25A     -0.786925    26A     -0.688456    27A     -0.660179
      28A     -0.595474    29A     -0.589599    30A     -0.577955
      31A     -0.573683    32A     -0.561243    33A     -0.549245
      34A     -0.538064    35A     -0.498763    36A     -0.495047
      37A     -0.450517    38A     -0.392132    39A     -0.367290
      40A     -0.331220    41A     -0.318643

  @DF-RHF Final Energy:  -602.95340925579444

   => Energetics <=

    Nuclear Repulsion Energy =            524.3481798702794094
    One-Electron Energy =               -1971.5694079436616448
    Two-Electron Energy =                 844.2678188175877949
    Total Energy =                       -602.9534092557944405
  Basis Set: (AUG-CC-PVTZ AUX)
    Blend: AUG-CC-PVTZ-RI + DEF2-QZVPP-RI
    Molecular point group: c1

    Geometry (in Angstrom), charge = 0, multiplicity = 1:

       Center              X                  Y                   Z               Mass
    ------------   -----------------  -----------------  -----------------  -----------------
         I           -1.776299034202     0.000059346017     0.001268221065   126.904471900000
         C            2.419214965798    -1.224364653983    -0.013418778935    12.000000000000
         C            2.419221965798     1.224483346017    -0.013891778935    12.000000000000
         C            3.101374965798     0.000063346017    -0.020430778935    12.000000000000
         C            1.016684965798    -1.218589653983    -0.004178778935    12.000000000000
         C            1.016679965798     1.218711346017    -0.004652778935    12.000000000000
         C            0.332162965798     0.000066346017     0.001222221065    12.000000000000
         C            3.174684965798    -2.529740653983     0.016026221065    12.000000000000
         C            3.174633965798     2.529904346017     0.015051221065    12.000000000000
         H            4.191040965798     0.000056346017    -0.034096778935     1.007825032230
         H            0.467389965798    -2.156844653983    -0.005410778935     1.007825032230
         H            0.467389965798     2.156970346017    -0.006250778935     1.007825032230
         H            4.138958965798    -2.438028653983    -0.489714778935     1.007825032230
         H            2.608355965798    -3.326092653983    -0.472692778935     1.007825032230
         H            3.367669965798    -2.843010653983     1.047116221065     1.007825032230
         H            2.619323465798     3.311095946017    -0.466429878935     1.007825032230
         H            3.366156965798     2.844416346017     1.046035221065     1.007825032230
         H            4.139610965798     2.437609346017    -0.489231778935     1.007825032230

  Basis Set: AUG-CC-PVTZ
    Blend: AUG-CC-PVTZ
  Basis Set: (AUG-CC-PVTZ AUX)
    Blend: AUG-CC-PVTZ-JKFIT + DEF2-UNIVERSAL-JKFIT
	 Reference Energy          =    -602.9534092557944405 [Eh]
	 Singles Energy            =      -0.0000000000000000 [Eh]
	 Same-Spin Energy          =      -0.4258685061558933 [Eh]
	 Opposite-Spin Energy      =      -1.2999599092191199 [Eh]
	 Correlation Energy        =      -1.7258284153750132 [Eh]
	 Total Energy              =    -604.6792376711694033 [Eh]

	 ================> DF-SCS-MP2 Energies <==================
	-----------------------------------------------------------
	 SCS Same-Spin Scale       =       0.3333333333333333 [-]
	 SCS Opposite-Spin Scale   =       1.2000000000000000 [-]
	 SCS Same-Spin Energy      =      -0.1419561687186311 [Eh]
	 SCS Opposite-Spin Energy  =      -1.5599518910629437 [Eh]
	 SCS Correlation Energy    =      -1.7019080597815748 [Eh]
	 SCS Total Energy          =    -604.6553173155759850 [Eh]
	-----------------------------------------------------------

  Dipole Moment: [D]
     X:     2.2006      Y:     0.0103      Z:     0.0760     Total:     2.2020

*** Psi4 exiting successfully. Buy a developer a beer!
