                               Psi4 1.4a3.dev225

  ==> Input File <==

--------------------------------------------------------------------------
#psi4
#
memory 32 gb

molecule  {
0 1
  I       -2.0593870    -0.0000050     0.0008870
  C        2.1361270    -1.2244290    -0.0138000
  C        2.1361340     1.2244190    -0.0142730
  C        2.8182870    -0.0000010    -0.0208120
  C        0.7335970    -1.2186540    -0.0045600
  C        0.7335920     1.2186470    -0.0050340
  C        0.0290750     0.0000019     0.0008414
  C        2.8915970    -2.5298050     0.0156450
  C        2.8915460     2.5298400     0.0146700
  H        3.9079530    -0.0000080    -0.0344780
  H        0.1843020    -2.1569090    -0.0057920
  H        0.1843020     2.1569060    -0.0066320
  H        3.8558710    -2.4380930    -0.4900960
  H        2.3252680    -3.3261570    -0.4730740
  H        3.0845820    -2.8430750     1.0467350
  H        2.3258810     3.3255980    -0.4757890
  H        3.0830690     2.8443520     1.0456540
  H        3.8565230     2.4375450    -0.4896130
units angstrom
no_reorient  #important for SAPT in psi4, default
symmetry c1  #important for SAPT in psi4, default
}

set PROPERTIES_ORIGIN ["COM"]
properties('MP2/aug-cc-pvtz', properties = ['dipole'])
--------------------------------------------------------------------------

    Molecular point group: c1
  Charge       = 0
  Multiplicity = 1
  Basis Set: AUG-CC-PVTZ
    Blend: AUG-CC-PVTZ
  Basis Set: (AUG-CC-PVTZ AUX)
    Blend: AUG-CC-PVTZ-JKFIT + DEF2-UNIVERSAL-JKFIT

    Orbital Energies [Eh]
    ---------------------

    Doubly Occupied:

       1A    -11.290636     2A    -11.255074     3A    -11.255048
       4A    -11.243179     5A    -11.243153     6A    -11.236702
       7A    -11.231667     8A    -11.231667     9A     -7.718819
      10A     -5.550584    11A     -5.540930    12A     -5.540907
      13A     -2.280392    14A     -2.275308    15A     -2.275282
      16A     -2.264567    17A     -2.264561    18A     -1.165263
      19A     -1.066025    20A     -1.046067    21A     -0.949127
      22A     -0.936992    23A     -0.897859    24A     -0.792956
      25A     -0.786272    26A     -0.687055    27A     -0.658270
      28A     -0.594742    29A     -0.588960    30A     -0.577095
      31A     -0.571181    32A     -0.559652    33A     -0.549442
      34A     -0.536345    35A     -0.496999    36A     -0.493290
      37A     -0.455231    38A     -0.393655    39A     -0.368358
      40A     -0.330363    41A     -0.316974

  @DF-RHF Final Energy:  -602.95244361542609

   => Energetics <=

    Nuclear Repulsion Energy =            524.2099336514611423
    One-Electron Energy =               -1971.2914515030113307
    Two-Electron Energy =                 844.1290742361240973
    Total Energy =                       -602.9524436154260911
  Basis Set: (AUG-CC-PVTZ AUX)
    Blend: AUG-CC-PVTZ-RI + DEF2-QZVPP-RI
    Molecular point group: c1

    Geometry (in Angstrom), charge = 0, multiplicity = 1:

       Center              X                  Y                   Z               Mass
    ------------   -----------------  -----------------  -----------------  -----------------
         I           -1.775219453923    -0.000003933168     0.001307205250   126.904471900000
         C            2.420294546077    -1.224427933168    -0.013379794750    12.000000000000
         C            2.420301546077     1.224420066832    -0.013852794750    12.000000000000
         C            3.102454546077     0.000000066832    -0.020391794750    12.000000000000
         C            1.017764546077    -1.218652933168    -0.004139794750    12.000000000000
         C            1.017759546077     1.218648066832    -0.004613794750    12.000000000000
         C            0.313242546077     0.000002966832     0.001261605250    12.000000000000
         C            3.175764546077    -2.529803933168     0.016065205250    12.000000000000
         C            3.175713546077     2.529841066832     0.015090205250    12.000000000000
         H            4.192120546077    -0.000006933168    -0.034057794750     1.007825032230
         H            0.468469546077    -2.156907933168    -0.005371794750     1.007825032230
         H            0.468469546077     2.156907066832    -0.006211794750     1.007825032230
         H            4.140038546077    -2.438091933168    -0.489675794750     1.007825032230
         H            2.609435546077    -3.326155933168    -0.472653794750     1.007825032230
         H            3.368749546077    -2.843073933168     1.047155205250     1.007825032230
         H            2.610048546077     3.325599066832    -0.475368794750     1.007825032230
         H            3.367236546077     2.844353066832     1.046074205250     1.007825032230
         H            4.140690546077     2.437546066832    -0.489192794750     1.007825032230

  Basis Set: AUG-CC-PVTZ
    Blend: AUG-CC-PVTZ
  Basis Set: (AUG-CC-PVTZ AUX)
    Blend: AUG-CC-PVTZ-JKFIT + DEF2-UNIVERSAL-JKFIT
	 Reference Energy          =    -602.9524436154260911 [Eh]
	 Singles Energy            =      -0.0000000000000000 [Eh]
	 Same-Spin Energy          =      -0.4260625597434470 [Eh]
	 Opposite-Spin Energy      =      -1.3005244846263020 [Eh]
	 Correlation Energy        =      -1.7265870443697491 [Eh]
	 Total Energy              =    -604.6790306597957851 [Eh]

	 ================> DF-SCS-MP2 Energies <==================
	-----------------------------------------------------------
	 SCS Same-Spin Scale       =       0.3333333333333333 [-]
	 SCS Opposite-Spin Scale   =       1.2000000000000000 [-]
	 SCS Same-Spin Energy      =      -0.1420208532478157 [Eh]
	 SCS Opposite-Spin Energy  =      -1.5606293815515624 [Eh]
	 SCS Correlation Energy    =      -1.7026502347993782 [Eh]
	 SCS Total Energy          =    -604.6550938502255121 [Eh]
	-----------------------------------------------------------

  Dipole Moment: [D]
     X:     2.1123      Y:     0.0001      Z:     0.0786     Total:     2.1138

*** Psi4 exiting successfully. Buy a developer a beer!
