                               Psi4 1.4a3.dev225

  ==> Input File <==

--------------------------------------------------------------------------
#psi4
#
memory 32 gb

molecule  {
0 1
  I       -2.0593870    -0.0000050     0.0008870
  C        2.1560552    -1.2134603    -0.0270563
  C        2.1361340     1.2244190    -0.0142730
  C        2.8182870    -0.0000010    -0.0208120
  C        0.7335970    -1.2186540    -0.0045600
  C        0.7335920     1.2186470    -0.0050340
  C        0.0490750     0.0000020     0.0008410
  C        2.8915970    -2.5298050     0.0156450
  C        2.8915460     2.5298400     0.0146700
  H        3.9079530    -0.0000080    -0.0344780
  H        0.1843020    -2.1569090    -0.0057920
  H        0.1843020     2.1569060    -0.0066320
  H        3.8558710    -2.4380930    -0.4900960
  H        2.3252680    -3.3261570    -0.4730740
  H        3.0845820    -2.8430750     1.0467350
  H        2.3258810     3.3255980    -0.4757890
  H        3.0830690     2.8443520     1.0456540
  H        3.8565230     2.4375450    -0.4896130
units angstrom
no_reorient  #important for SAPT in psi4, default
symmetry c1  #important for SAPT in psi4, default
}

set PROPERTIES_ORIGIN ["COM"]
properties('MP2/aug-cc-pvtz', properties = ['dipole'])
--------------------------------------------------------------------------

    Molecular point group: c1
  Charge       = 0
  Multiplicity = 1
  Basis Set: AUG-CC-PVTZ
    Blend: AUG-CC-PVTZ
  Basis Set: (AUG-CC-PVTZ AUX)
    Blend: AUG-CC-PVTZ-JKFIT + DEF2-UNIVERSAL-JKFIT

    Orbital Energies [Eh]
    ---------------------

    Doubly Occupied:

       1A    -11.290254     2A    -11.256035     3A    -11.255732
       4A    -11.244579     5A    -11.242394     6A    -11.235077
       7A    -11.232150     8A    -11.232101     9A     -7.717086
      10A     -5.548780    11A     -5.539217    12A     -5.539176
      13A     -2.278447    14A     -2.273503    15A     -2.273499
      16A     -2.262855    17A     -2.262849    18A     -1.167631
      19A     -1.065928    20A     -1.048098    21A     -0.950909
      22A     -0.937680    23A     -0.894920    24A     -0.796138
      25A     -0.784879    26A     -0.688517    27A     -0.659847
      28A     -0.595939    29A     -0.589940    30A     -0.577849
      31A     -0.571970    32A     -0.560151    33A     -0.548618
      34A     -0.536275    35A     -0.498708    36A     -0.497968
      37A     -0.448769    38A     -0.393264    39A     -0.367155
      40A     -0.329176    41A     -0.320104

  @DF-RHF Final Energy:  -602.95266411742739

   => Energetics <=

    Nuclear Repulsion Energy =            524.2143126522379362
    One-Electron Energy =               -1971.3056242227887651
    Two-Electron Energy =                 844.1386474531233262
    Total Energy =                       -602.9526641174273891
  Basis Set: (AUG-CC-PVTZ AUX)
    Blend: AUG-CC-PVTZ-RI + DEF2-QZVPP-RI
    Molecular point group: c1

    Geometry (in Angstrom), charge = 0, multiplicity = 1:

       Center              X                  Y                   Z               Mass
    ------------   -----------------  -----------------  -----------------  -----------------
         I           -1.777284929135    -0.000571346288     0.001992970831   126.904471900000
         C            2.438157270865    -1.214026646288    -0.025950329169    12.000000000000
         C            2.418236070865     1.223852653712    -0.013167029169    12.000000000000
         C            3.100389070865    -0.000567346288    -0.019706029169    12.000000000000
         C            1.015699070865    -1.219220346288    -0.003454029169    12.000000000000
         C            1.015694070865     1.218080653712    -0.003928029169    12.000000000000
         C            0.331177070865    -0.000564346288     0.001946970831    12.000000000000
         C            3.173699070865    -2.530371346288     0.016750970831    12.000000000000
         C            3.173648070865     2.529273653712     0.015775970831    12.000000000000
         H            4.190055070865    -0.000574346288    -0.033372029169     1.007825032230
         H            0.466404070865    -2.157475346288    -0.004686029169     1.007825032230
         H            0.466404070865     2.156339653712    -0.005526029169     1.007825032230
         H            4.137973070865    -2.438659346288    -0.488990029169     1.007825032230
         H            2.607370070865    -3.326723346288    -0.471968029169     1.007825032230
         H            3.366684070865    -2.843641346288     1.047840970831     1.007825032230
         H            2.607983070865     3.325031653712    -0.474683029169     1.007825032230
         H            3.365171070865     2.843785653712     1.046759970831     1.007825032230
         H            4.138625070865     2.436978653712    -0.488507029169     1.007825032230

  Basis Set: AUG-CC-PVTZ
    Blend: AUG-CC-PVTZ
  Basis Set: (AUG-CC-PVTZ AUX)
    Blend: AUG-CC-PVTZ-JKFIT + DEF2-UNIVERSAL-JKFIT
	 Reference Energy          =    -602.9526641174273891 [Eh]
	 Singles Energy            =      -0.0000000000000000 [Eh]
	 Same-Spin Energy          =      -0.4258714260574895 [Eh]
	 Opposite-Spin Energy      =      -1.3001250524438306 [Eh]
	 Correlation Energy        =      -1.7259964785013202 [Eh]
	 Total Energy              =    -604.6786605959287044 [Eh]

	 ================> DF-SCS-MP2 Energies <==================
	-----------------------------------------------------------
	 SCS Same-Spin Scale       =       0.3333333333333333 [-]
	 SCS Opposite-Spin Scale   =       1.2000000000000000 [-]
	 SCS Same-Spin Energy      =      -0.1419571420191632 [Eh]
	 SCS Opposite-Spin Energy  =      -1.5601500629325966 [Eh]
	 SCS Correlation Energy    =      -1.7021072049517598 [Eh]
	 SCS Total Energy          =    -604.6547713223791334 [Eh]
	-----------------------------------------------------------

  Dipole Moment: [D]
     X:     2.2053      Y:     0.0016      Z:     0.0836     Total:     2.2069

*** Psi4 exiting successfully. Buy a developer a beer!
