                               Psi4 1.4a3.dev225

  ==> Input File <==

--------------------------------------------------------------------------
#psi4
#
memory 32 gb

molecule  {
0 1
  I       -2.0593870    -0.0000050     0.0008870
  C        2.1361270    -1.2244290    -0.0138000
  C        2.1361340     1.2244190    -0.0142730
  C        2.8182870    -0.0000010    -0.0208120
  C        0.7335970    -1.2186540    -0.0045600
  C        0.7335920     1.2186470    -0.0050340
  C       -0.0488708     0.1743752     0.0016138
  C        2.8915970    -2.5298050     0.0156450
  C        2.8915460     2.5298400     0.0146700
  H        3.9079530    -0.0000080    -0.0344780
  H        0.1843020    -2.1569090    -0.0057920
  H        0.1843020     2.1569060    -0.0066320
  H        3.8558710    -2.4380930    -0.4900960
  H        2.3252680    -3.3261570    -0.4730740
  H        3.0845820    -2.8430750     1.0467350
  H        2.3258810     3.3255980    -0.4757890
  H        3.0830690     2.8443520     1.0456540
  H        3.8565230     2.4375450    -0.4896130
units angstrom
no_reorient  #important for SAPT in psi4, default
symmetry c1  #important for SAPT in psi4, default
}

set PROPERTIES_ORIGIN ["COM"]
properties('MP2/aug-cc-pvtz', properties = ['dipole'])
--------------------------------------------------------------------------

    Molecular point group: c1
  Charge       = 0
  Multiplicity = 1
  Basis Set: AUG-CC-PVTZ
    Blend: AUG-CC-PVTZ
  Basis Set: (AUG-CC-PVTZ AUX)
    Blend: AUG-CC-PVTZ-JKFIT + DEF2-UNIVERSAL-JKFIT

    Orbital Energies [Eh]
    ---------------------

    Doubly Occupied:

       1A    -11.288411     2A    -11.254655     3A    -11.253690
       4A    -11.251181     5A    -11.236850     6A    -11.232198
       7A    -11.231276     8A    -11.229769     9A     -7.724490
      10A     -5.556544    11A     -5.546565    12A     -5.546518
      13A     -2.286940    14A     -2.281265    15A     -2.281157
      16A     -2.270161    17A     -2.270155    18A     -1.160656
      19A     -1.069144    20A     -1.044970    21A     -0.948586
      22A     -0.930302    23A     -0.905361    24A     -0.804527
      25A     -0.769342    26A     -0.682593    27A     -0.649313
      28A     -0.594380    29A     -0.587199    30A     -0.575351
      31A     -0.568657    32A     -0.558072    33A     -0.546994
      34A     -0.533048    35A     -0.495145    36A     -0.494857
      37A     -0.452902    38A     -0.400591    39A     -0.369280
      40A     -0.338198    41A     -0.303835

  @DF-RHF Final Energy:  -602.91644754115418

   => Energetics <=

    Nuclear Repulsion Energy =            524.1501100735958971
    One-Electron Energy =               -1971.0828549490390742
    Two-Electron Energy =                 844.0162973342889927
    Total Energy =                       -602.9164475411541844
  Basis Set: (AUG-CC-PVTZ AUX)
    Blend: AUG-CC-PVTZ-RI + DEF2-QZVPP-RI
    Molecular point group: c1

    Geometry (in Angstrom), charge = 0, multiplicity = 1:

       Center              X                  Y                   Z               Mass
    ------------   -----------------  -----------------  -----------------  -----------------
         I           -1.771187338330    -0.009024217800     0.001267249203   126.904471900000
         C            2.424326661670    -1.233448217800    -0.013419750797    12.000000000000
         C            2.424333661670     1.215399782200    -0.013892750797    12.000000000000
         C            3.106486661670    -0.009020217800    -0.020431750797    12.000000000000
         C            1.021796661670    -1.227673217800    -0.004179750797    12.000000000000
         C            1.021791661670     1.209627782200    -0.004653750797    12.000000000000
         C            0.239328861670     0.165355982200     0.001994049203    12.000000000000
         C            3.179796661670    -2.538824217800     0.016025249203    12.000000000000
         C            3.179745661670     2.520820782200     0.015050249203    12.000000000000
         H            4.196152661670    -0.009027217800    -0.034097750797     1.007825032230
         H            0.472501661670    -2.165928217800    -0.005411750797     1.007825032230
         H            0.472501661670     2.147886782200    -0.006251750797     1.007825032230
         H            4.144070661670    -2.447112217800    -0.489715750797     1.007825032230
         H            2.613467661670    -3.335176217800    -0.472693750797     1.007825032230
         H            3.372781661670    -2.852094217800     1.047115249203     1.007825032230
         H            2.614080661670     3.316578782200    -0.475408750797     1.007825032230
         H            3.371268661670     2.835332782200     1.046034249203     1.007825032230
         H            4.144722661670     2.428525782200    -0.489232750797     1.007825032230

  Basis Set: AUG-CC-PVTZ
    Blend: AUG-CC-PVTZ
  Basis Set: (AUG-CC-PVTZ AUX)
    Blend: AUG-CC-PVTZ-JKFIT + DEF2-UNIVERSAL-JKFIT
	 Reference Energy          =    -602.9164475411541844 [Eh]
	 Singles Energy            =      -0.0000000000000000 [Eh]
	 Same-Spin Energy          =      -0.4259648213865403 [Eh]
	 Opposite-Spin Energy      =      -1.3035383129609952 [Eh]
	 Correlation Energy        =      -1.7295031343475356 [Eh]
	 Total Energy              =    -604.6459506755016946 [Eh]

	 ================> DF-SCS-MP2 Energies <==================
	-----------------------------------------------------------
	 SCS Same-Spin Scale       =       0.3333333333333333 [-]
	 SCS Opposite-Spin Scale   =       1.2000000000000000 [-]
	 SCS Same-Spin Energy      =      -0.1419882737955134 [Eh]
	 SCS Opposite-Spin Energy  =      -1.5642459755531941 [Eh]
	 SCS Correlation Energy    =      -1.7062342493487075 [Eh]
	 SCS Total Energy          =    -604.6226817905028383 [Eh]
	-----------------------------------------------------------

  Dipole Moment: [D]
     X:     1.7778      Y:    -0.0435      Z:     0.0768     Total:     1.7800

*** Psi4 exiting successfully. Buy a developer a beer!
