                               Psi4 1.4a3.dev225

  ==> Input File <==

--------------------------------------------------------------------------
#psi4
#
memory 32 gb

molecule  {
0 1
  I       -2.0593870    -0.0000050     0.0008870
  C        2.1361270    -1.2244290    -0.0138000
  C        2.1361340     1.2244190    -0.0142730
  C        2.8182870    -0.0000010    -0.0208120
  C        0.7335970    -1.2186540    -0.0045600
  C        0.7335920     1.2186470    -0.0050340
  C        0.0392804     0.0174393     0.0009183
  C        2.8915970    -2.5298050     0.0156450
  C        2.8915460     2.5298400     0.0146700
  H        3.9079530    -0.0000080    -0.0344780
  H        0.1843020    -2.1569090    -0.0057920
  H        0.1843020     2.1569060    -0.0066320
  H        3.8558710    -2.4380930    -0.4900960
  H        2.3252680    -3.3261570    -0.4730740
  H        3.0845820    -2.8430750     1.0467350
  H        2.3258810     3.3255980    -0.4757890
  H        3.0830690     2.8443520     1.0456540
  H        3.8565230     2.4375450    -0.4896130
units angstrom
no_reorient  #important for SAPT in psi4, default
symmetry c1  #important for SAPT in psi4, default
}

set PROPERTIES_ORIGIN ["COM"]
properties('MP2/aug-cc-pvtz', properties = ['dipole'])
--------------------------------------------------------------------------

    Molecular point group: c1
  Charge       = 0
  Multiplicity = 1
  Basis Set: AUG-CC-PVTZ
    Blend: AUG-CC-PVTZ
  Basis Set: (AUG-CC-PVTZ AUX)
    Blend: AUG-CC-PVTZ-JKFIT + DEF2-UNIVERSAL-JKFIT

    Orbital Energies [Eh]
    ---------------------

    Doubly Occupied:

       1A    -11.290446     2A    -11.255545     3A    -11.255168
       4A    -11.244132     5A    -11.241540     6A    -11.236765
       7A    -11.231930     8A    -11.231732     9A     -7.718029
      10A     -5.549760    11A     -5.540147    12A     -5.540117
      13A     -2.279495    14A     -2.274483    15A     -2.274467
      16A     -2.263783    17A     -2.263776    18A     -1.166475
      19A     -1.066583    20A     -1.046480    21A     -0.949246
      22A     -0.937927    23A     -0.896534    24A     -0.793914
      25A     -0.786167    26A     -0.687784    27A     -0.659071
      28A     -0.594783    29A     -0.589252    30A     -0.577458
      31A     -0.572304    32A     -0.559893    33A     -0.549236
      34A     -0.536808    35A     -0.497903    36A     -0.494173
      37A     -0.452734    38A     -0.392914    39A     -0.367822
      40A     -0.331041    41A     -0.317674

  @DF-RHF Final Energy:  -602.95269341151561

   => Energetics <=

    Nuclear Repulsion Energy =            524.2367597857462442
    One-Electron Energy =               -1971.3479210850773597
    Two-Electron Energy =                 844.1584678878155046
    Total Energy =                       -602.9526934115156109
  Basis Set: (AUG-CC-PVTZ AUX)
    Blend: AUG-CC-PVTZ-RI + DEF2-QZVPP-RI
    Molecular point group: c1

    Geometry (in Angstrom), charge = 0, multiplicity = 1:

       Center              X                  Y                   Z               Mass
    ------------   -----------------  -----------------  -----------------  -----------------
         I           -1.775747376562    -0.000905965253     0.001303227234   126.904471900000
         C            2.419766623438    -1.225329965253    -0.013383772766    12.000000000000
         C            2.419773623438     1.223518034747    -0.013856772766    12.000000000000
         C            3.101926623438    -0.000901965253    -0.020395772766    12.000000000000
         C            1.017236623438    -1.219554965253    -0.004143772766    12.000000000000
         C            1.017231623438     1.217746034747    -0.004617772766    12.000000000000
         C            0.322920023438     0.016538334747     0.001334527234    12.000000000000
         C            3.175236623438    -2.530705965253     0.016061227234    12.000000000000
         C            3.175185623438     2.528939034747     0.015086227234    12.000000000000
         H            4.191592623438    -0.000908965253    -0.034061772766     1.007825032230
         H            0.467941623438    -2.157809965253    -0.005375772766     1.007825032230
         H            0.467941623438     2.156005034747    -0.006215772766     1.007825032230
         H            4.139510623438    -2.438993965253    -0.489679772766     1.007825032230
         H            2.608907623438    -3.327057965253    -0.472657772766     1.007825032230
         H            3.368221623438    -2.843975965253     1.047151227234     1.007825032230
         H            2.609520623438     3.324697034747    -0.475372772766     1.007825032230
         H            3.366708623438     2.843451034747     1.046070227234     1.007825032230
         H            4.140162623438     2.436644034747    -0.489196772766     1.007825032230

  Basis Set: AUG-CC-PVTZ
    Blend: AUG-CC-PVTZ
  Basis Set: (AUG-CC-PVTZ AUX)
    Blend: AUG-CC-PVTZ-JKFIT + DEF2-UNIVERSAL-JKFIT
	 Reference Energy          =    -602.9526934115156109 [Eh]
	 Singles Energy            =      -0.0000000000000000 [Eh]
	 Same-Spin Energy          =      -0.4259451152344275 [Eh]
	 Opposite-Spin Energy      =      -1.3003027036424317 [Eh]
	 Correlation Energy        =      -1.7262478188768591 [Eh]
	 Total Energy              =    -604.6789412303925246 [Eh]

	 ================> DF-SCS-MP2 Energies <==================
	-----------------------------------------------------------
	 SCS Same-Spin Scale       =       0.3333333333333333 [-]
	 SCS Opposite-Spin Scale   =       1.2000000000000000 [-]
	 SCS Same-Spin Energy      =      -0.1419817050781425 [Eh]
	 SCS Opposite-Spin Energy  =      -1.5603632443709181 [Eh]
	 SCS Correlation Energy    =      -1.7023449494490606 [Eh]
	 SCS Total Energy          =    -604.6550383609646815 [Eh]
	-----------------------------------------------------------

  Dipole Moment: [D]
     X:     2.1570      Y:    -0.0026      Z:     0.0788     Total:     2.1585

*** Psi4 exiting successfully. Buy a developer a beer!
