                               Psi4 1.4a3.dev225

  ==> Input File <==

--------------------------------------------------------------------------
#psi4
#
memory 32 gb

molecule  {
0 1
  I       -2.0593870    -0.0000050     0.0008870
  C        2.1361270    -1.2244290    -0.0138000
  C        2.1361340     1.2244190    -0.0142730
  C        2.8182870    -0.0000010    -0.0208120
  C        0.7335970    -1.2186540    -0.0045600
  C        0.7335920     1.2186470    -0.0050340
  C        0.0490750     0.0000020     0.0008410
  C        2.9917580    -2.7028730     0.0195488
  C        2.8915460     2.5298400     0.0146700
  H        3.9079530    -0.0000080    -0.0344780
  H        0.1843020    -2.1569090    -0.0057920
  H        0.1843020     2.1569060    -0.0066320
  H        3.8558710    -2.4380930    -0.4900960
  H        2.3252680    -3.3261570    -0.4730740
  H        3.0845820    -2.8430750     1.0467350
  H        2.3258810     3.3255980    -0.4757890
  H        3.0830690     2.8443520     1.0456540
  H        3.8565230     2.4375450    -0.4896130
units angstrom
no_reorient  #important for SAPT in psi4, default
symmetry c1  #important for SAPT in psi4, default
}

set PROPERTIES_ORIGIN ["COM"]
properties('MP2/aug-cc-pvtz', properties = ['dipole'])
--------------------------------------------------------------------------

    Molecular point group: c1
  Charge       = 0
  Multiplicity = 1
  Basis Set: AUG-CC-PVTZ
    Blend: AUG-CC-PVTZ
  Basis Set: (AUG-CC-PVTZ AUX)
    Blend: AUG-CC-PVTZ-JKFIT + DEF2-UNIVERSAL-JKFIT

    Orbital Energies [Eh]
    ---------------------

    Doubly Occupied:

       1A    -11.289808     2A    -11.261193     3A    -11.255077
       4A    -11.242553     5A    -11.242085     6A    -11.236805
       7A    -11.232616     8A    -11.231572     9A     -7.716729
      10A     -5.548420    11A     -5.538861    12A     -5.538822
      13A     -2.278086    14A     -2.273144    15A     -2.273141
      16A     -2.262503    17A     -2.262496    18A     -1.163353
      19A     -1.057872    20A     -1.038676    21A     -0.953627
      22A     -0.940493    23A     -0.894191    24A     -0.793304
      25A     -0.784957    26A     -0.687729    27A     -0.657244
      28A     -0.607710    29A     -0.589877    30A     -0.582845
      31A     -0.580681    32A     -0.557434    33A     -0.548013
      34A     -0.542038    35A     -0.502910    36A     -0.469292
      37A     -0.439461    38A     -0.392738    39A     -0.366726
      40A     -0.332646    41A     -0.318303

  @DF-RHF Final Energy:  -602.92601134173913

   => Energetics <=

    Nuclear Repulsion Energy =            520.8650662794839263
    One-Electron Energy =               -1964.6100932138506323
    Two-Electron Energy =                 840.8190155926275793
    Total Energy =                       -602.9260113417391267
  Basis Set: (AUG-CC-PVTZ AUX)
    Blend: AUG-CC-PVTZ-RI + DEF2-QZVPP-RI
    Molecular point group: c1

    Geometry (in Angstrom), charge = 0, multiplicity = 1:

       Center              X                  Y                   Z               Mass
    ------------   -----------------  -----------------  -----------------  -----------------
         I           -1.781435350632     0.008948823467     0.001105283402   126.904471900000
         C            2.414078649368    -1.215475176533    -0.013581716598    12.000000000000
         C            2.414085649368     1.233372823467    -0.014054716598    12.000000000000
         C            3.096238649368     0.008952823467    -0.020593716598    12.000000000000
         C            1.011548649368    -1.209700176533    -0.004341716598    12.000000000000
         C            1.011543649368     1.227600823467    -0.004815716598    12.000000000000
         C            0.327026649368     0.008955823467     0.001059283402    12.000000000000
         C            3.269709649368    -2.693919176533     0.019767083402    12.000000000000
         C            3.169497649368     2.538793823467     0.014888283402    12.000000000000
         H            4.185904649368     0.008945823467    -0.034259716598     1.007825032230
         H            0.462253649368    -2.147955176533    -0.005573716598     1.007825032230
         H            0.462253649368     2.165859823467    -0.006413716598     1.007825032230
         H            4.133822649368    -2.429139176533    -0.489877716598     1.007825032230
         H            2.603219649368    -3.317203176533    -0.472855716598     1.007825032230
         H            3.362533649368    -2.834121176533     1.046953283402     1.007825032230
         H            2.603832649368     3.334551823467    -0.475570716598     1.007825032230
         H            3.361020649368     2.853305823467     1.045872283402     1.007825032230
         H            4.134474649368     2.446498823467    -0.489394716598     1.007825032230

  Basis Set: AUG-CC-PVTZ
    Blend: AUG-CC-PVTZ
  Basis Set: (AUG-CC-PVTZ AUX)
    Blend: AUG-CC-PVTZ-JKFIT + DEF2-UNIVERSAL-JKFIT
	 Reference Energy          =    -602.9260113417391267 [Eh]
	 Singles Energy            =      -0.0000000000000000 [Eh]
	 Same-Spin Energy          =      -0.4257059995506090 [Eh]
	 Opposite-Spin Energy      =      -1.3011383269791010 [Eh]
	 Correlation Energy        =      -1.7268443265297100 [Eh]
	 Total Energy              =    -604.6528556682687849 [Eh]

	 ================> DF-SCS-MP2 Energies <==================
	-----------------------------------------------------------
	 SCS Same-Spin Scale       =       0.3333333333333333 [-]
	 SCS Opposite-Spin Scale   =       1.2000000000000000 [-]
	 SCS Same-Spin Energy      =      -0.1419019998502030 [Eh]
	 SCS Opposite-Spin Energy  =      -1.5613659923749212 [Eh]
	 SCS Correlation Energy    =      -1.7032679922251241 [Eh]
	 SCS Total Energy          =    -604.6292793339642913 [Eh]
	-----------------------------------------------------------

  Dipole Moment: [D]
     X:     2.1758      Y:     0.0561      Z:     0.0726     Total:     2.1777

*** Psi4 exiting successfully. Buy a developer a beer!
