                               Psi4 1.4a3.dev225

  ==> Input File <==

--------------------------------------------------------------------------
#psi4
#
memory 32 gb

molecule  {
0 1
  I       -2.0593870    -0.0000050     0.0008870
  C        2.1560104    -1.2128976    -0.0009606
  C        2.1361340     1.2244190    -0.0142730
  C        2.8182870    -0.0000010    -0.0208120
  C        0.7335970    -1.2186540    -0.0045600
  C        0.7335920     1.2186470    -0.0050340
  C        0.0490750     0.0000020     0.0008410
  C        2.8915970    -2.5298050     0.0156450
  C        2.8915460     2.5298400     0.0146700
  H        3.9079530    -0.0000080    -0.0344780
  H        0.1843020    -2.1569090    -0.0057920
  H        0.1843020     2.1569060    -0.0066320
  H        3.8558710    -2.4380930    -0.4900960
  H        2.3252680    -3.3261570    -0.4730740
  H        3.0845820    -2.8430750     1.0467350
  H        2.3258810     3.3255980    -0.4757890
  H        3.0830690     2.8443520     1.0456540
  H        3.8565230     2.4375450    -0.4896130
units angstrom
no_reorient  #important for SAPT in psi4, default
symmetry c1  #important for SAPT in psi4, default
}

set PROPERTIES_ORIGIN ["COM"]
properties('MP2/aug-cc-pvtz', properties = ['dipole'])
--------------------------------------------------------------------------

    Molecular point group: c1
  Charge       = 0
  Multiplicity = 1
  Basis Set: AUG-CC-PVTZ
    Blend: AUG-CC-PVTZ
  Basis Set: (AUG-CC-PVTZ AUX)
    Blend: AUG-CC-PVTZ-JKFIT + DEF2-UNIVERSAL-JKFIT

    Orbital Energies [Eh]
    ---------------------

    Doubly Occupied:

       1A    -11.290238     2A    -11.256010     3A    -11.255792
       4A    -11.244521     5A    -11.242256     6A    -11.234973
       7A    -11.232137     8A    -11.232133     9A     -7.717064
      10A     -5.548758    11A     -5.539195    12A     -5.539154
      13A     -2.278425    14A     -2.273481    15A     -2.273477
      16A     -2.262834    17A     -2.262828    18A     -1.167662
      19A     -1.065943    20A     -1.048090    21A     -0.950955
      22A     -0.937679    23A     -0.894909    24A     -0.796124
      25A     -0.784848    26A     -0.688494    27A     -0.659809
      28A     -0.596334    29A     -0.589676    30A     -0.577508
      31A     -0.572429    32A     -0.560130    33A     -0.548664
      34A     -0.536352    35A     -0.498817    36A     -0.497778
      37A     -0.448790    38A     -0.393231    39A     -0.367130
      40A     -0.329095    41A     -0.320082

  @DF-RHF Final Energy:  -602.95271532085076

   => Energetics <=

    Nuclear Repulsion Energy =            524.2272975922871865
    One-Electron Energy =               -1971.3324182364160606
    Two-Electron Energy =                 844.1524053232781171
    Total Energy =                       -602.9527153208507571
  Basis Set: (AUG-CC-PVTZ AUX)
    Blend: AUG-CC-PVTZ-RI + DEF2-QZVPP-RI
    Molecular point group: c1

    Geometry (in Angstrom), charge = 0, multiplicity = 1:

       Center              X                  Y                   Z               Mass
    ------------   -----------------  -----------------  -----------------  -----------------
         I           -1.777282611643    -0.000600454610     0.000643047181   126.904471900000
         C            2.438114788357    -1.213493054610    -0.001204552819    12.000000000000
         C            2.418238388357     1.223823545390    -0.014516952819    12.000000000000
         C            3.100391388357    -0.000596454610    -0.021055952819    12.000000000000
         C            1.015701388357    -1.219249454610    -0.004803952819    12.000000000000
         C            1.015696388357     1.218051545390    -0.005277952819    12.000000000000
         C            0.331179388357    -0.000593454610     0.000597047181    12.000000000000
         C            3.173701388357    -2.530400454610     0.015401047181    12.000000000000
         C            3.173650388357     2.529244545390     0.014426047181    12.000000000000
         H            4.190057388357    -0.000603454610    -0.034721952819     1.007825032230
         H            0.466406388357    -2.157504454610    -0.006035952819     1.007825032230
         H            0.466406388357     2.156310545390    -0.006875952819     1.007825032230
         H            4.137975388357    -2.438688454610    -0.490339952819     1.007825032230
         H            2.607372388357    -3.326752454610    -0.473317952819     1.007825032230
         H            3.366686388357    -2.843670454610     1.046491047181     1.007825032230
         H            2.607985388357     3.325002545390    -0.476032952819     1.007825032230
         H            3.365173388357     2.843756545390     1.045410047181     1.007825032230
         H            4.138627388357     2.436949545390    -0.489856952819     1.007825032230

  Basis Set: AUG-CC-PVTZ
    Blend: AUG-CC-PVTZ
  Basis Set: (AUG-CC-PVTZ AUX)
    Blend: AUG-CC-PVTZ-JKFIT + DEF2-UNIVERSAL-JKFIT
	 Reference Energy          =    -602.9527153208507571 [Eh]
	 Singles Energy            =      -0.0000000000000000 [Eh]
	 Same-Spin Energy          =      -0.4258658236653385 [Eh]
	 Opposite-Spin Energy      =      -1.3001114280941914 [Eh]
	 Correlation Energy        =      -1.7259772517595300 [Eh]
	 Total Energy              =    -604.6786925726103163 [Eh]

	 ================> DF-SCS-MP2 Energies <==================
	-----------------------------------------------------------
	 SCS Same-Spin Scale       =       0.3333333333333333 [-]
	 SCS Opposite-Spin Scale   =       1.2000000000000000 [-]
	 SCS Same-Spin Energy      =      -0.1419552745551128 [Eh]
	 SCS Opposite-Spin Energy  =      -1.5601337137130298 [Eh]
	 SCS Correlation Energy    =      -1.7020889882681427 [Eh]
	 SCS Total Energy          =    -604.6548043091188447 [Eh]
	-----------------------------------------------------------

  Dipole Moment: [D]
     X:     2.2093      Y:    -0.0060      Z:     0.0742     Total:     2.2106

*** Psi4 exiting successfully. Buy a developer a beer!
