                               Psi4 1.4a3.dev225

  ==> Input File <==

--------------------------------------------------------------------------
#psi4
#
memory 32 gb

molecule  {
0 1
  I       -2.0593870    -0.0000050     0.0008870
  C        2.1361270    -1.2244290    -0.0138000
  C        2.1361340     1.2244190    -0.0142730
  C        2.8182870    -0.0000010    -0.0208120
  C        0.7335970    -1.2186540    -0.0045600
  C        0.7335920     1.2186470    -0.0050340
  C        0.0490750     0.0000020     0.0008410
  C        2.8915970    -2.5298050     0.0156450
  C        2.8915460     2.5298400     0.0146700
  H        3.9079530    -0.0000080    -0.0344780
  H        0.1843020    -2.1569090    -0.0057920
  H        0.1843020     2.1569060    -0.0066320
  H        3.8558710    -2.4380930    -0.4900960
  H        2.3252680    -3.3261570    -0.4730740
  H        3.0845820    -2.8430750     1.0467350
  H        2.3258810     3.3255980    -0.4757890
  H        3.0830690     2.8443520     1.0456540
  H        3.8388608     2.4392343    -0.4803830
units angstrom
no_reorient  #important for SAPT in psi4, default
symmetry c1  #important for SAPT in psi4, default
}

set PROPERTIES_ORIGIN ["COM"]
properties('MP2/aug-cc-pvtz', properties = ['dipole'])
--------------------------------------------------------------------------

    Molecular point group: c1
  Charge       = 0
  Multiplicity = 1
  Basis Set: AUG-CC-PVTZ
    Blend: AUG-CC-PVTZ
  Basis Set: (AUG-CC-PVTZ AUX)
    Blend: AUG-CC-PVTZ-JKFIT + DEF2-UNIVERSAL-JKFIT

    Orbital Energies [Eh]
    ---------------------

    Doubly Occupied:

       1A    -11.290338     2A    -11.255629     3A    -11.255496
       4A    -11.242549     5A    -11.242471     6A    -11.236802
       7A    -11.231977     8A    -11.229572     9A     -7.717195
      10A     -5.548892    11A     -5.539321    12A     -5.539286
      13A     -2.278560    14A     -2.273615    15A     -2.273609
      16A     -2.262959    17A     -2.262953    18A     -1.167544
      19A     -1.067178    20A     -1.047007    21A     -0.950114
      22A     -0.939512    23A     -0.895238    24A     -0.794162
      25A     -0.787168    26A     -0.688445    27A     -0.660254
      28A     -0.595025    29A     -0.589697    30A     -0.578043
      31A     -0.573572    32A     -0.561437    33A     -0.549282
      34A     -0.538381    35A     -0.498733    36A     -0.494811
      37A     -0.450547    38A     -0.392148    39A     -0.367259
      40A     -0.331169    41A     -0.318666

  @DF-RHF Final Energy:  -602.95340827007158

   => Energetics <=

    Nuclear Repulsion Energy =            524.3511042992007560
    One-Electron Energy =               -1971.5757928525754323
    Two-Electron Energy =                 844.2712802833029855
    Total Energy =                       -602.9534082700715771
  Basis Set: (AUG-CC-PVTZ AUX)
    Blend: AUG-CC-PVTZ-RI + DEF2-QZVPP-RI
    Molecular point group: c1

    Geometry (in Angstrom), charge = 0, multiplicity = 1:

       Center              X                  Y                   Z               Mass
    ------------   -----------------  -----------------  -----------------  -----------------
         I           -1.776177314430    -0.000011277579     0.001267125806   126.904471900000
         C            2.419336685570    -1.224435277579    -0.013419874194    12.000000000000
         C            2.419343685570     1.224412722421    -0.013892874194    12.000000000000
         C            3.101496685570    -0.000007277579    -0.020431874194    12.000000000000
         C            1.016806685570    -1.218660277579    -0.004179874194    12.000000000000
         C            1.016801685570     1.218640722421    -0.004653874194    12.000000000000
         C            0.332284685570    -0.000004277579     0.001221125806    12.000000000000
         C            3.174806685570    -2.529811277579     0.016025125806    12.000000000000
         C            3.174755685570     2.529833722421     0.015050125806    12.000000000000
         H            4.191162685570    -0.000014277579    -0.034097874194     1.007825032230
         H            0.467511685570    -2.156915277579    -0.005411874194     1.007825032230
         H            0.467511685570     2.156899722421    -0.006251874194     1.007825032230
         H            4.139080685570    -2.438099277579    -0.489715874194     1.007825032230
         H            2.608477685570    -3.326163277579    -0.472693874194     1.007825032230
         H            3.367791685570    -2.843081277579     1.047115125806     1.007825032230
         H            2.609090685570     3.325591722421    -0.475408874194     1.007825032230
         H            3.366278685570     2.844345722421     1.046034125806     1.007825032230
         H            4.122070485570     2.439228022421    -0.480002874194     1.007825032230

  Basis Set: AUG-CC-PVTZ
    Blend: AUG-CC-PVTZ
  Basis Set: (AUG-CC-PVTZ AUX)
    Blend: AUG-CC-PVTZ-JKFIT + DEF2-UNIVERSAL-JKFIT
	 Reference Energy          =    -602.9534082700715771 [Eh]
	 Singles Energy            =      -0.0000000000000000 [Eh]
	 Same-Spin Energy          =      -0.4258689595701766 [Eh]
	 Opposite-Spin Energy      =      -1.2999608945039987 [Eh]
	 Correlation Energy        =      -1.7258298540741752 [Eh]
	 Total Energy              =    -604.6792381241457406 [Eh]

	 ================> DF-SCS-MP2 Energies <==================
	-----------------------------------------------------------
	 SCS Same-Spin Scale       =       0.3333333333333333 [-]
	 SCS Opposite-Spin Scale   =       1.2000000000000000 [-]
	 SCS Same-Spin Energy      =      -0.1419563198567255 [Eh]
	 SCS Opposite-Spin Energy  =      -1.5599530734047984 [Eh]
	 SCS Correlation Energy    =      -1.7019093932615239 [Eh]
	 SCS Total Energy          =    -604.6553176633331077 [Eh]
	-----------------------------------------------------------

  Dipole Moment: [D]
     X:     2.2115      Y:     0.0044      Z:     0.0758     Total:     2.2128

*** Psi4 exiting successfully. Buy a developer a beer!
