                               Psi4 1.4a3.dev225

  ==> Input File <==

--------------------------------------------------------------------------
#psi4
#
memory 32 gb

molecule  {
0 1
  I       -2.0593870    -0.0000050     0.0008870
  C        2.2169803    -1.1807238     0.0375725
  C        2.1361340     1.2244190    -0.0142730
  C        2.8182870    -0.0000010    -0.0208120
  C        0.7335970    -1.2186540    -0.0045600
  C        0.7335920     1.2186470    -0.0050340
  C        0.0490750     0.0000020     0.0008410
  C        2.8915970    -2.5298050     0.0156450
  C        2.8915460     2.5298400     0.0146700
  H        3.9079530    -0.0000080    -0.0344780
  H        0.1843020    -2.1569090    -0.0057920
  H        0.1843020     2.1569060    -0.0066320
  H        3.8558710    -2.4380930    -0.4900960
  H        2.3252680    -3.3261570    -0.4730740
  H        3.0845820    -2.8430750     1.0467350
  H        2.3258810     3.3255980    -0.4757890
  H        3.0830690     2.8443520     1.0456540
  H        3.8565230     2.4375450    -0.4896130
units angstrom
no_reorient  #important for SAPT in psi4, default
symmetry c1  #important for SAPT in psi4, default
}

set PROPERTIES_ORIGIN ["COM"]
properties('MP2/aug-cc-pvtz', properties = ['dipole'])
--------------------------------------------------------------------------

    Molecular point group: c1
  Charge       = 0
  Multiplicity = 1
  Basis Set: AUG-CC-PVTZ
    Blend: AUG-CC-PVTZ
  Basis Set: (AUG-CC-PVTZ AUX)
    Blend: AUG-CC-PVTZ-JKFIT + DEF2-UNIVERSAL-JKFIT

    Orbital Energies [Eh]
    ---------------------

    Doubly Occupied:

       1A    -11.289607     2A    -11.256930     3A    -11.255672
       4A    -11.249725     5A    -11.241560     6A    -11.232884
       7A    -11.232490     8A    -11.229188     9A     -7.716458
      10A     -5.548137    11A     -5.538608    12A     -5.538550
      13A     -2.277802    14A     -2.272879    15A     -2.272853
      16A     -2.262252    17A     -2.262245    18A     -1.168446
      19A     -1.064772    20A     -1.050579    21A     -0.955808
      22A     -0.934371    23A     -0.893456    24A     -0.802735
      25A     -0.778187    26A     -0.688598    27A     -0.658572
      28A     -0.601998    29A     -0.590335    30A     -0.577220
      31A     -0.570684    32A     -0.559920    33A     -0.546522
      34A     -0.533317    35A     -0.505519    36A     -0.497127
      37A     -0.442021    38A     -0.396989    39A     -0.366504
      40A     -0.329181    41A     -0.318555

  @DF-RHF Final Energy:  -602.94245321251276

   => Energetics <=

    Nuclear Repulsion Energy =            524.0982616690309897
    One-Electron Energy =               -1971.0629143708404172
    Two-Electron Energy =                 844.0221994892966677
    Total Energy =                       -602.9424532125127598
  Basis Set: (AUG-CC-PVTZ AUX)
    Blend: AUG-CC-PVTZ-RI + DEF2-QZVPP-RI
    Molecular point group: c1

    Geometry (in Angstrom), charge = 0, multiplicity = 1:

       Center              X                  Y                   Z               Mass
    ------------   -----------------  -----------------  -----------------  -----------------
         I           -1.780436568424    -0.002264796763    -0.001350259878   126.904471900000
         C            2.495930731576    -1.182983596763     0.035335240122    12.000000000000
         C            2.415084431576     1.222159203237    -0.016510259878    12.000000000000
         C            3.097237431576    -0.002260796763    -0.023049259878    12.000000000000
         C            1.012547431576    -1.220913796763    -0.006797259878    12.000000000000
         C            1.012542431576     1.216387203237    -0.007271259878    12.000000000000
         C            0.328025431576    -0.002257796763    -0.001396259878    12.000000000000
         C            3.170547431576    -2.532064796763     0.013407740122    12.000000000000
         C            3.170496431576     2.527580203237     0.012432740122    12.000000000000
         H            4.186903431576    -0.002267796763    -0.036715259878     1.007825032230
         H            0.463252431576    -2.159168796763    -0.008029259878     1.007825032230
         H            0.463252431576     2.154646203237    -0.008869259878     1.007825032230
         H            4.134821431576    -2.440352796763    -0.492333259878     1.007825032230
         H            2.604218431576    -3.328416796763    -0.475311259878     1.007825032230
         H            3.363532431576    -2.845334796763     1.044497740122     1.007825032230
         H            2.604831431576     3.323338203237    -0.478026259878     1.007825032230
         H            3.362019431576     2.842092203237     1.043416740122     1.007825032230
         H            4.135473431576     2.435285203237    -0.491850259878     1.007825032230

  Basis Set: AUG-CC-PVTZ
    Blend: AUG-CC-PVTZ
  Basis Set: (AUG-CC-PVTZ AUX)
    Blend: AUG-CC-PVTZ-JKFIT + DEF2-UNIVERSAL-JKFIT
	 Reference Energy          =    -602.9424532125127598 [Eh]
	 Singles Energy            =      -0.0000000000000000 [Eh]
	 Same-Spin Energy          =      -0.4256933821519754 [Eh]
	 Opposite-Spin Energy      =      -1.3005809340373462 [Eh]
	 Correlation Energy        =      -1.7262743161893215 [Eh]
	 Total Energy              =    -604.6687275287021066 [Eh]

	 ================> DF-SCS-MP2 Energies <==================
	-----------------------------------------------------------
	 SCS Same-Spin Scale       =       0.3333333333333333 [-]
	 SCS Opposite-Spin Scale   =       1.2000000000000000 [-]
	 SCS Same-Spin Energy      =      -0.1418977940506584 [Eh]
	 SCS Opposite-Spin Energy  =      -1.5606971208448155 [Eh]
	 SCS Correlation Energy    =      -1.7025949148954740 [Eh]
	 SCS Total Energy          =    -604.6450481274082449 [Eh]
	-----------------------------------------------------------

  Dipole Moment: [D]
     X:     2.2340      Y:    -0.0262      Z:     0.0606     Total:     2.2349

*** Psi4 exiting successfully. Buy a developer a beer!
