                               Psi4 1.4a3.dev225

  ==> Input File <==

--------------------------------------------------------------------------
#psi4
#
memory 32 gb

molecule  {
0 1
  I       -2.0593870    -0.0000050     0.0008870
  C        2.1361270    -1.2244290    -0.0138000
  C        2.1361340     1.2244190    -0.0142730
  C        2.8182870    -0.0000010    -0.0208120
  C        0.7335970    -1.2186540    -0.0045600
  C        0.7335920     1.2186470    -0.0050340
  C        0.0490750     0.0000020     0.0008410
  C        2.7914360    -2.3567370     0.0117412
  C        2.8915460     2.5298400     0.0146700
  H        3.9079530    -0.0000080    -0.0344780
  H        0.1843020    -2.1569090    -0.0057920
  H        0.1843020     2.1569060    -0.0066320
  H        3.8558710    -2.4380930    -0.4900960
  H        2.3252680    -3.3261570    -0.4730740
  H        3.0845820    -2.8430750     1.0467350
  H        2.3258810     3.3255980    -0.4757890
  H        3.0830690     2.8443520     1.0456540
  H        3.8565230     2.4375450    -0.4896130
units angstrom
no_reorient  #important for SAPT in psi4, default
symmetry c1  #important for SAPT in psi4, default
}

set PROPERTIES_ORIGIN ["COM"]
properties('MP2/aug-cc-pvtz', properties = ['dipole'])
--------------------------------------------------------------------------

    Molecular point group: c1
  Charge       = 0
  Multiplicity = 1
  Basis Set: AUG-CC-PVTZ
    Blend: AUG-CC-PVTZ
  Basis Set: (AUG-CC-PVTZ AUX)
    Blend: AUG-CC-PVTZ-JKFIT + DEF2-UNIVERSAL-JKFIT

    Orbital Energies [Eh]
    ---------------------

    Doubly Occupied:

       1A    -11.291126     2A    -11.256335     3A    -11.244516
       4A    -11.243510     5A    -11.243272     6A    -11.241943
       7A    -11.237534     8A    -11.232528     9A     -7.717848
      10A     -5.549556    11A     -5.539966    12A     -5.539933
      13A     -2.279226    14A     -2.274274    15A     -2.274266
      16A     -2.263598    17A     -2.263591    18A     -1.178692
      19A     -1.091941    20A     -1.051627    21A     -0.949599
      22A     -0.937213    23A     -0.896894    24A     -0.793866
      25A     -0.786651    26A     -0.689537    27A     -0.666198
      28A     -0.637497    29A     -0.588792    30A     -0.579375
      31A     -0.566060    32A     -0.557219    33A     -0.547289
      34A     -0.518557    35A     -0.489940    36A     -0.487774
      37A     -0.448923    38A     -0.389934    39A     -0.367858
      40A     -0.326866    41A     -0.317565

  @DF-RHF Final Energy:  -602.90161194370444

   => Energetics <=

    Nuclear Repulsion Energy =            528.1541576312200732
    One-Electron Energy =               -1978.9937541174488160
    Two-Electron Energy =                 847.9379845425244184
    Total Energy =                       -602.9016119437044381
  Basis Set: (AUG-CC-PVTZ AUX)
    Blend: AUG-CC-PVTZ-RI + DEF2-QZVPP-RI
    Molecular point group: c1

    Geometry (in Angstrom), charge = 0, multiplicity = 1:

       Center              X                  Y                   Z               Mass
    ------------   -----------------  -----------------  -----------------  -----------------
         I           -1.771072746621    -0.008956700149     0.001509168483   126.904471900000
         C            2.424441253379    -1.233380700149    -0.013177831517    12.000000000000
         C            2.424448253379     1.215467299851    -0.013650831517    12.000000000000
         C            3.106601253379    -0.008952700149    -0.020189831517    12.000000000000
         C            1.021911253379    -1.227605700149    -0.003937831517    12.000000000000
         C            1.021906253379     1.209695299851    -0.004411831517    12.000000000000
         C            0.337389253379    -0.008949700149     0.001463168483    12.000000000000
         C            3.079750253379    -2.365688700149     0.012363368483    12.000000000000
         C            3.179860253379     2.520888299851     0.015292168483    12.000000000000
         H            4.196267253379    -0.008959700149    -0.033855831517     1.007825032230
         H            0.472616253379    -2.165860700149    -0.005169831517     1.007825032230
         H            0.472616253379     2.147954299851    -0.006009831517     1.007825032230
         H            4.144185253379    -2.447044700149    -0.489473831517     1.007825032230
         H            2.613582253379    -3.335108700149    -0.472451831517     1.007825032230
         H            3.372896253379    -2.852026700149     1.047357168483     1.007825032230
         H            2.614195253379     3.316646299851    -0.475166831517     1.007825032230
         H            3.371383253379     2.835400299851     1.046276168483     1.007825032230
         H            4.144837253379     2.428593299851    -0.488990831517     1.007825032230

  Basis Set: AUG-CC-PVTZ
    Blend: AUG-CC-PVTZ
  Basis Set: (AUG-CC-PVTZ AUX)
    Blend: AUG-CC-PVTZ-JKFIT + DEF2-UNIVERSAL-JKFIT
	 Reference Energy          =    -602.9016119437044381 [Eh]
	 Singles Energy            =      -0.0000000000000000 [Eh]
	 Same-Spin Energy          =      -0.4294345872837081 [Eh]
	 Opposite-Spin Energy      =      -1.3047886809825116 [Eh]
	 Correlation Energy        =      -1.7342232682662198 [Eh]
	 Total Energy              =    -604.6358352119706296 [Eh]

	 ================> DF-SCS-MP2 Energies <==================
	-----------------------------------------------------------
	 SCS Same-Spin Scale       =       0.3333333333333333 [-]
	 SCS Opposite-Spin Scale   =       1.2000000000000000 [-]
	 SCS Same-Spin Energy      =      -0.1431448624279027 [Eh]
	 SCS Opposite-Spin Energy  =      -1.5657464171790139 [Eh]
	 SCS Correlation Energy    =      -1.7088912796069167 [Eh]
	 SCS Total Energy          =    -604.6105032233112979 [Eh]
	-----------------------------------------------------------

  Dipole Moment: [D]
     X:     2.1763      Y:     0.0207      Z:     0.0913     Total:     2.1783

*** Psi4 exiting successfully. Buy a developer a beer!
