                               Psi4 1.4a3.dev225

  ==> Input File <==

--------------------------------------------------------------------------
#psi4
#
memory 32 gb

molecule  {
0 1
  I       -2.0593870    -0.0000050     0.0008870
  C        2.1361270    -1.2244290    -0.0138000
  C        2.1361340     1.2244190    -0.0142730
  C        2.8182870    -0.0000010    -0.0208120
  C        0.7335970    -1.2186540    -0.0045600
  C        0.7335920     1.2186470    -0.0050340
  C        0.0490750     0.0000020     0.0008410
  C        2.8915970    -2.5298050     0.0156450
  C        2.8915460     2.5298400     0.0146700
  H        3.9079530    -0.0000080    -0.0344780
  H        0.1843020    -2.1569090    -0.0057920
  H        0.1843020     2.1569060    -0.0066320
  H        3.8558710    -2.4380930    -0.4900960
  H        2.3252680    -3.3261570    -0.4730740
  H        3.1198377    -2.9003051     1.2351010
  H        2.3258810     3.3255980    -0.4757890
  H        3.0830690     2.8443520     1.0456540
  H        3.8565230     2.4375450    -0.4896130
units angstrom
no_reorient  #important for SAPT in psi4, default
symmetry c1  #important for SAPT in psi4, default
}

set PROPERTIES_ORIGIN ["COM"]
properties('MP2/aug-cc-pvtz', properties = ['dipole'])
--------------------------------------------------------------------------

    Molecular point group: c1
  Charge       = 0
  Multiplicity = 1
  Basis Set: AUG-CC-PVTZ
    Blend: AUG-CC-PVTZ
  Basis Set: (AUG-CC-PVTZ AUX)
    Blend: AUG-CC-PVTZ-JKFIT + DEF2-UNIVERSAL-JKFIT

    Orbital Energies [Eh]
    ---------------------

    Doubly Occupied:

       1A    -11.291089     2A    -11.257320     3A    -11.256385
       4A    -11.254293     5A    -11.243903     6A    -11.243765
       7A    -11.238114     8A    -11.232533     9A     -7.717799
      10A     -5.549507    11A     -5.539920    12A     -5.539882
      13A     -2.279176    14A     -2.274224    15A     -2.274220
      16A     -2.263550    17A     -2.263544    18A     -1.168389
      19A     -1.066209    20A     -1.046758    21A     -0.946501
      22A     -0.933291    23A     -0.895956    24A     -0.792602
      25A     -0.786476    26A     -0.689073    27A     -0.661215
      28A     -0.596510    29A     -0.585580    30A     -0.574925
      31A     -0.562086    32A     -0.550910    33A     -0.548121
      34A     -0.538481    35A     -0.497167    36A     -0.489998
      37A     -0.451327    38A     -0.391963    39A     -0.367851
      40A     -0.330816    41A     -0.319136

  @DF-RHF Final Energy:  -602.93376766083588

   => Energetics <=

    Nuclear Repulsion Energy =            523.4672916281137987
    One-Electron Energy =               -1969.7809913196281286
    Two-Electron Energy =                 843.3799320306784466
    Total Energy =                       -602.9337676608358834
  Basis Set: (AUG-CC-PVTZ AUX)
    Blend: AUG-CC-PVTZ-RI + DEF2-QZVPP-RI
    Molecular point group: c1

    Geometry (in Angstrom), charge = 0, multiplicity = 1:

       Center              X                  Y                   Z               Mass
    ------------   -----------------  -----------------  -----------------  -----------------
         I           -1.776407218549     0.000244700318     0.000488861661   126.904471900000
         C            2.419106781451    -1.224179299682    -0.014198138339    12.000000000000
         C            2.419113781451     1.224668700318    -0.014671138339    12.000000000000
         C            3.101266781451     0.000248700318    -0.021210138339    12.000000000000
         C            1.016576781451    -1.218404299682    -0.004958138339    12.000000000000
         C            1.016571781451     1.218896700318    -0.005432138339    12.000000000000
         C            0.332054781451     0.000251700318     0.000442861661    12.000000000000
         C            3.174576781451    -2.529555299682     0.015246861661    12.000000000000
         C            3.174525781451     2.530089700318     0.014271861661    12.000000000000
         H            4.190932781451     0.000241700318    -0.034876138339     1.007825032230
         H            0.467281781451    -2.156659299682    -0.006190138339     1.007825032230
         H            0.467281781451     2.157155700318    -0.007030138339     1.007825032230
         H            4.138850781451    -2.437843299682    -0.490494138339     1.007825032230
         H            2.608247781451    -3.325907299682    -0.473472138339     1.007825032230
         H            3.402817481451    -2.900055399682     1.234702861661     1.007825032230
         H            2.608860781451     3.325847700318    -0.476187138339     1.007825032230
         H            3.366048781451     2.844601700318     1.045255861661     1.007825032230
         H            4.139502781451     2.437794700318    -0.490011138339     1.007825032230

  Basis Set: AUG-CC-PVTZ
    Blend: AUG-CC-PVTZ
  Basis Set: (AUG-CC-PVTZ AUX)
    Blend: AUG-CC-PVTZ-JKFIT + DEF2-UNIVERSAL-JKFIT
	 Reference Energy          =    -602.9337676608358834 [Eh]
	 Singles Energy            =      -0.0000000000000000 [Eh]
	 Same-Spin Energy          =      -0.4258598214799509 [Eh]
	 Opposite-Spin Energy      =      -1.3015941079502884 [Eh]
	 Correlation Energy        =      -1.7274539294302393 [Eh]
	 Total Energy              =    -604.6612215902661092 [Eh]

	 ================> DF-SCS-MP2 Energies <==================
	-----------------------------------------------------------
	 SCS Same-Spin Scale       =       0.3333333333333333 [-]
	 SCS Opposite-Spin Scale   =       1.2000000000000000 [-]
	 SCS Same-Spin Energy      =      -0.1419532738266503 [Eh]
	 SCS Opposite-Spin Energy  =      -1.5619129295403460 [Eh]
	 SCS Correlation Energy    =      -1.7038662033669962 [Eh]
	 SCS Total Energy          =    -604.6376338642028259 [Eh]
	-----------------------------------------------------------

  Dipole Moment: [D]
     X:     2.1334      Y:     0.1001      Z:    -0.0105     Total:     2.1358

*** Psi4 exiting successfully. Buy a developer a beer!
