                               Psi4 1.4a3.dev225

  ==> Input File <==

--------------------------------------------------------------------------
#psi4
#
memory 32 gb

molecule  {
0 1
  I       -2.0593870    -0.0000050     0.0008870
  C        2.0587752    -1.2722447     0.0392743
  C        2.1361340     1.2244190    -0.0142730
  C        2.8182870    -0.0000010    -0.0208120
  C        0.7335970    -1.2186540    -0.0045600
  C        0.7335920     1.2186470    -0.0050340
  C        0.0490750     0.0000020     0.0008410
  C        2.8915970    -2.5298050     0.0156450
  C        2.8915460     2.5298400     0.0146700
  H        3.9079530    -0.0000080    -0.0344780
  H        0.1843020    -2.1569090    -0.0057920
  H        0.1843020     2.1569060    -0.0066320
  H        3.8558710    -2.4380930    -0.4900960
  H        2.3252680    -3.3261570    -0.4730740
  H        3.0845820    -2.8430750     1.0467350
  H        2.3258810     3.3255980    -0.4757890
  H        3.0830690     2.8443520     1.0456540
  H        3.8565230     2.4375450    -0.4896130
units angstrom
no_reorient  #important for SAPT in psi4, default
symmetry c1  #important for SAPT in psi4, default
}

set PROPERTIES_ORIGIN ["COM"]
properties('MP2/aug-cc-pvtz', properties = ['dipole'])
--------------------------------------------------------------------------

    Molecular point group: c1
  Charge       = 0
  Multiplicity = 1
  Basis Set: AUG-CC-PVTZ
    Blend: AUG-CC-PVTZ
  Basis Set: (AUG-CC-PVTZ AUX)
    Blend: AUG-CC-PVTZ-JKFIT + DEF2-UNIVERSAL-JKFIT

    Orbital Energies [Eh]
    ---------------------

    Doubly Occupied:

       1A    -11.290771     2A    -11.254442     3A    -11.253970
       4A    -11.244014     5A    -11.243159     6A    -11.234185
       7A    -11.232126     8A    -11.231342     9A     -7.717797
      10A     -5.549510    11A     -5.539906    12A     -5.539886
      13A     -2.279178    14A     -2.274239    15A     -2.274205
      16A     -2.263538    17A     -2.263531    18A     -1.168253
      19A     -1.072653    20A     -1.041788    21A     -0.945022
      22A     -0.943010    23A     -0.896039    24A     -0.796224
      25A     -0.783669    26A     -0.688377    27A     -0.658980
      28A     -0.595420    29A     -0.587238    30A     -0.580600
      31A     -0.576619    32A     -0.559747    33A     -0.549432
      34A     -0.539727    35A     -0.500062    36A     -0.477811
      37A     -0.455663    38A     -0.388690    39A     -0.367803
      40A     -0.342344    41A     -0.311730

  @DF-RHF Final Energy:  -602.94252703112761

   => Energetics <=

    Nuclear Repulsion Energy =            524.4068061518582908
    One-Electron Energy =               -1971.6732685405595475
    Two-Electron Energy =                 844.3239353575736459
    Total Energy =                       -602.9425270311276108
  Basis Set: (AUG-CC-PVTZ AUX)
    Blend: AUG-CC-PVTZ-RI + DEF2-QZVPP-RI
    Molecular point group: c1

    Geometry (in Angstrom), charge = 0, multiplicity = 1:

       Center              X                  Y                   Z               Mass
    ------------   -----------------  -----------------  -----------------  -----------------
         I           -1.772252660497     0.002469555157    -0.001438293541   126.904471900000
         C            2.345909539503    -1.269770144843     0.036949006459    12.000000000000
         C            2.423268339503     1.226893555157    -0.016598293541    12.000000000000
         C            3.105421339503     0.002473555157    -0.023137293541    12.000000000000
         C            1.020731339503    -1.216179444843    -0.006885293541    12.000000000000
         C            1.020726339503     1.221121555157    -0.007359293541    12.000000000000
         C            0.336209339503     0.002476555157    -0.001484293541    12.000000000000
         C            3.178731339503    -2.527330444843     0.013319706459    12.000000000000
         C            3.178680339503     2.532314555157     0.012344706459    12.000000000000
         H            4.195087339503     0.002466555157    -0.036803293541     1.007825032230
         H            0.471436339503    -2.154434444843    -0.008117293541     1.007825032230
         H            0.471436339503     2.159380555157    -0.008957293541     1.007825032230
         H            4.143005339503    -2.435618444843    -0.492421293541     1.007825032230
         H            2.612402339503    -3.323682444843    -0.475399293541     1.007825032230
         H            3.371716339503    -2.840600444843     1.044409706459     1.007825032230
         H            2.613015339503     3.328072555157    -0.478114293541     1.007825032230
         H            3.370203339503     2.846826555157     1.043328706459     1.007825032230
         H            4.143657339503     2.440019555157    -0.491938293541     1.007825032230

  Basis Set: AUG-CC-PVTZ
    Blend: AUG-CC-PVTZ
  Basis Set: (AUG-CC-PVTZ AUX)
    Blend: AUG-CC-PVTZ-JKFIT + DEF2-UNIVERSAL-JKFIT
	 Reference Energy          =    -602.9425270311276108 [Eh]
	 Singles Energy            =      -0.0000000000000000 [Eh]
	 Same-Spin Energy          =      -0.4256047107076817 [Eh]
	 Opposite-Spin Energy      =      -1.3006058947589429 [Eh]
	 Correlation Energy        =      -1.7262106054666246 [Eh]
	 Total Energy              =    -604.6687376365941873 [Eh]

	 ================> DF-SCS-MP2 Energies <==================
	-----------------------------------------------------------
	 SCS Same-Spin Scale       =       0.3333333333333333 [-]
	 SCS Opposite-Spin Scale   =       1.2000000000000000 [-]
	 SCS Same-Spin Energy      =      -0.1418682369025606 [Eh]
	 SCS Opposite-Spin Energy  =      -1.5607270737107315 [Eh]
	 SCS Correlation Energy    =      -1.7025953106132921 [Eh]
	 SCS Total Energy          =    -604.6451223417409437 [Eh]
	-----------------------------------------------------------

  Dipole Moment: [D]
     X:     2.1824      Y:    -0.0087      Z:     0.0611     Total:     2.1833

*** Psi4 exiting successfully. Buy a developer a beer!
