                               Psi4 1.4a3.dev225

  ==> Input File <==

--------------------------------------------------------------------------
#psi4
#
memory 32 gb

molecule  {
0 1
  I       -2.0478359    -0.2203967     0.0019465
  C        2.1361270    -1.2244290    -0.0138000
  C        2.1361340     1.2244190    -0.0142730
  C        2.8182870    -0.0000010    -0.0208120
  C        0.7335970    -1.2186540    -0.0045600
  C        0.7335920     1.2186470    -0.0050340
  C        0.0490750     0.0000020     0.0008410
  C        2.8915970    -2.5298050     0.0156450
  C        2.8915460     2.5298400     0.0146700
  H        3.9079530    -0.0000080    -0.0344780
  H        0.1843020    -2.1569090    -0.0057920
  H        0.1843020     2.1569060    -0.0066320
  H        3.8558710    -2.4380930    -0.4900960
  H        2.3252680    -3.3261570    -0.4730740
  H        3.0845820    -2.8430750     1.0467350
  H        2.3258810     3.3255980    -0.4757890
  H        3.0830690     2.8443520     1.0456540
  H        3.8565230     2.4375450    -0.4896130
units angstrom
no_reorient  #important for SAPT in psi4, default
symmetry c1  #important for SAPT in psi4, default
}

set PROPERTIES_ORIGIN ["COM"]
properties('MP2/aug-cc-pvtz', properties = ['dipole'])
--------------------------------------------------------------------------

    Molecular point group: c1
  Charge       = 0
  Multiplicity = 1
  Basis Set: AUG-CC-PVTZ
    Blend: AUG-CC-PVTZ
  Basis Set: (AUG-CC-PVTZ AUX)
    Blend: AUG-CC-PVTZ-JKFIT + DEF2-UNIVERSAL-JKFIT

    Orbital Energies [Eh]
    ---------------------

    Doubly Occupied:

       1A    -11.290339     2A    -11.256455     3A    -11.254775
       4A    -11.244335     5A    -11.240846     6A    -11.236811
       7A    -11.232410     8A    -11.231578     9A     -7.717223
      10A     -5.548958    11A     -5.539324    12A     -5.539296
      13A     -2.278631    14A     -2.273674    15A     -2.273665
      16A     -2.262950    17A     -2.262941    18A     -1.167650
      19A     -1.067040    20A     -1.047092    21A     -0.949497
      22A     -0.939218    23A     -0.894870    24A     -0.794168
      25A     -0.786708    26A     -0.688541    27A     -0.659988
      28A     -0.594916    29A     -0.589559    30A     -0.577890
      31A     -0.573361    32A     -0.560169    33A     -0.549045
      34A     -0.537214    35A     -0.498801    36A     -0.494959
      37A     -0.450273    38A     -0.392262    39A     -0.366641
      40A     -0.331337    41A     -0.318471

  @DF-RHF Final Energy:  -602.95129044183136

   => Energetics <=

    Nuclear Repulsion Energy =            524.5503833487341581
    One-Electron Energy =               -1971.9755891280212836
    Two-Electron Energy =                 844.4739153374557645
    Total Energy =                       -602.9512904418313610
  Basis Set: (AUG-CC-PVTZ AUX)
    Blend: AUG-CC-PVTZ-RI + DEF2-QZVPP-RI
    Molecular point group: c1

    Geometry (in Angstrom), charge = 0, multiplicity = 1:

       Center              X                  Y                   Z               Mass
    ------------   -----------------  -----------------  -----------------  -----------------
         I           -1.771022107566    -0.099827884509     0.001787114572   126.904471900000
         C            2.412940792434    -1.103860184509    -0.013959385428    12.000000000000
         C            2.412947792434     1.344987815491    -0.014432385428    12.000000000000
         C            3.095100792434     0.120567815491    -0.020971385428    12.000000000000
         C            1.010410792434    -1.098085184509    -0.004719385428    12.000000000000
         C            1.010405792434     1.339215815491    -0.005193385428    12.000000000000
         C            0.325888792434     0.120570815491     0.000681614572    12.000000000000
         C            3.168410792434    -2.409236184509     0.015485614572    12.000000000000
         C            3.168359792434     2.650408815491     0.014510614572    12.000000000000
         H            4.184766792434     0.120560815491    -0.034637385428     1.007825032230
         H            0.461115792434    -2.036340184509    -0.005951385428     1.007825032230
         H            0.461115792434     2.277474815491    -0.006791385428     1.007825032230
         H            4.132684792434    -2.317524184509    -0.490255385428     1.007825032230
         H            2.602081792434    -3.205588184509    -0.473233385428     1.007825032230
         H            3.361395792434    -2.722506184509     1.046575614572     1.007825032230
         H            2.602694792434     3.446166815491    -0.475948385428     1.007825032230
         H            3.359882792434     2.964920815491     1.045494614572     1.007825032230
         H            4.133336792434     2.558113815491    -0.489772385428     1.007825032230

  Basis Set: AUG-CC-PVTZ
    Blend: AUG-CC-PVTZ
  Basis Set: (AUG-CC-PVTZ AUX)
    Blend: AUG-CC-PVTZ-JKFIT + DEF2-UNIVERSAL-JKFIT
	 Reference Energy          =    -602.9512904418313610 [Eh]
	 Singles Energy            =      -0.0000000000000000 [Eh]
	 Same-Spin Energy          =      -0.4260117231695041 [Eh]
	 Opposite-Spin Energy      =      -1.3003493559326578 [Eh]
	 Correlation Energy        =      -1.7263610791021620 [Eh]
	 Total Energy              =    -604.6776515209335230 [Eh]

	 ================> DF-SCS-MP2 Energies <==================
	-----------------------------------------------------------
	 SCS Same-Spin Scale       =       0.3333333333333333 [-]
	 SCS Opposite-Spin Scale   =       1.2000000000000000 [-]
	 SCS Same-Spin Energy      =      -0.1420039077231680 [Eh]
	 SCS Opposite-Spin Energy  =      -1.5604192271191892 [Eh]
	 SCS Correlation Energy    =      -1.7024231348423573 [Eh]
	 SCS Total Energy          =    -604.6537135766736810 [Eh]
	-----------------------------------------------------------

  Dipole Moment: [D]
     X:     2.2103      Y:     0.0487      Z:     0.0789     Total:     2.2123

*** Psi4 exiting successfully. Buy a developer a beer!
