                               Psi4 1.4a3.dev225

  ==> Input File <==

--------------------------------------------------------------------------
#psi4
#
memory 32 gb

molecule  {
0 1
  I       -2.0593870    -0.0000050     0.0008870
  C        2.1361270    -1.2244290    -0.0138000
  C        2.1361340     1.2244190    -0.0142730
  C        2.8182870    -0.0000010    -0.0208120
  C        0.7335970    -1.2186540    -0.0045600
  C        0.7335920     1.2186470    -0.0050340
  C        0.0490750     0.0000020     0.0008410
  C        2.8915970    -2.5298050     0.0156450
  C        2.8915460     2.5298400     0.0146700
  H        3.9079530    -0.0000080    -0.0344780
  H        0.1843020    -2.1569090    -0.0057920
  H        0.1843020     2.1569060    -0.0066320
  H        3.8558710    -2.4380930    -0.4900960
  H        2.3252680    -3.3261570    -0.4730740
  H        3.0845820    -2.8430750     1.0467350
  H        2.3258810     3.3255980    -0.4757890
  H        3.0830690     2.8443520     1.0456540
  H        3.9006785     2.4333218    -0.5126880
units angstrom
no_reorient  #important for SAPT in psi4, default
symmetry c1  #important for SAPT in psi4, default
}

set PROPERTIES_ORIGIN ["COM"]
properties('MP2/aug-cc-pvtz', properties = ['dipole'])
--------------------------------------------------------------------------

    Molecular point group: c1
  Charge       = 0
  Multiplicity = 1
  Basis Set: AUG-CC-PVTZ
    Blend: AUG-CC-PVTZ
  Basis Set: (AUG-CC-PVTZ AUX)
    Blend: AUG-CC-PVTZ-JKFIT + DEF2-UNIVERSAL-JKFIT

    Orbital Energies [Eh]
    ---------------------

    Doubly Occupied:

       1A    -11.290585     2A    -11.256088     3A    -11.255737
       4A    -11.242988     5A    -11.242791     6A    -11.237948
       7A    -11.236915     8A    -11.232057     9A     -7.717396
      10A     -5.549097    11A     -5.539521    12A     -5.539484
      13A     -2.278765    14A     -2.273818    15A     -2.273812
      16A     -2.263156    17A     -2.263149    18A     -1.167699
      19A     -1.066610    20A     -1.046614    21A     -0.948075
      22A     -0.937316    23A     -0.895385    24A     -0.793564
      25A     -0.786384    26A     -0.688577    27A     -0.659324
      28A     -0.594759    29A     -0.589300    30A     -0.577801
      31A     -0.572865    32A     -0.557204    33A     -0.548628
      34A     -0.533189    35A     -0.498586    36A     -0.495237
      37A     -0.450600    38A     -0.392246    39A     -0.367451
      40A     -0.331425    41A     -0.318791

  @DF-RHF Final Energy:  -602.95129125829033

   => Energetics <=

    Nuclear Repulsion Energy =            524.0471872504223256
    One-Electron Energy =               -1970.9750870562659202
    Two-Electron Energy =                 843.9766085475531554
    Total Energy =                       -602.9512912582903255
  Basis Set: (AUG-CC-PVTZ AUX)
    Blend: AUG-CC-PVTZ-RI + DEF2-QZVPP-RI
    Molecular point group: c1

    Geometry (in Angstrom), charge = 0, multiplicity = 1:

       Center              X                  Y                   Z               Mass
    ------------   -----------------  -----------------  -----------------  -----------------
         I           -1.776445884117     0.000014409535     0.001407476284   126.904471900000
         C            2.419068115883    -1.224409590465    -0.013279523716    12.000000000000
         C            2.419075115883     1.224438409535    -0.013752523716    12.000000000000
         C            3.101228115883     0.000018409535    -0.020291523716    12.000000000000
         C            1.016538115883    -1.218634590465    -0.004039523716    12.000000000000
         C            1.016533115883     1.218666409535    -0.004513523716    12.000000000000
         C            0.332016115883     0.000021409535     0.001361476284    12.000000000000
         C            3.174538115883    -2.529785590465     0.016165476284    12.000000000000
         C            3.174487115883     2.529859409535     0.015190476284    12.000000000000
         H            4.190894115883     0.000011409535    -0.033957523716     1.007825032230
         H            0.467243115883    -2.156889590465    -0.005271523716     1.007825032230
         H            0.467243115883     2.156925409535    -0.006111523716     1.007825032230
         H            4.138812115883    -2.438073590465    -0.489575523716     1.007825032230
         H            2.608209115883    -3.326137590465    -0.472553523716     1.007825032230
         H            3.367523115883    -2.843055590465     1.047255476284     1.007825032230
         H            2.608822115883     3.325617409535    -0.475268523716     1.007825032230
         H            3.366010115883     2.844371409535     1.046174476284     1.007825032230
         H            4.183619615883     2.433341209535    -0.512167523716     1.007825032230

  Basis Set: AUG-CC-PVTZ
    Blend: AUG-CC-PVTZ
  Basis Set: (AUG-CC-PVTZ AUX)
    Blend: AUG-CC-PVTZ-JKFIT + DEF2-UNIVERSAL-JKFIT
	 Reference Energy          =    -602.9512912582903255 [Eh]
	 Singles Energy            =      -0.0000000000000000 [Eh]
	 Same-Spin Energy          =      -0.4258840776024855 [Eh]
	 Opposite-Spin Energy      =      -1.3004410961852557 [Eh]
	 Correlation Energy        =      -1.7263251737877412 [Eh]
	 Total Energy              =    -604.6776164320780254 [Eh]

	 ================> DF-SCS-MP2 Energies <==================
	-----------------------------------------------------------
	 SCS Same-Spin Scale       =       0.3333333333333333 [-]
	 SCS Opposite-Spin Scale   =       1.2000000000000000 [-]
	 SCS Same-Spin Energy      =      -0.1419613592008285 [Eh]
	 SCS Opposite-Spin Energy  =      -1.5605293154223068 [Eh]
	 SCS Correlation Energy    =      -1.7024906746231352 [Eh]
	 SCS Total Energy          =    -604.6537819329134891 [Eh]
	-----------------------------------------------------------

  Dipole Moment: [D]
     X:     2.1726      Y:    -0.0115      Z:     0.0881     Total:     2.1744

*** Psi4 exiting successfully. Buy a developer a beer!
