                               Psi4 1.4a3.dev225

  ==> Input File <==

--------------------------------------------------------------------------
#psi4
#
memory 32 gb

molecule  {
0 1
  I       -2.0542504    -0.1470822     0.0015941
  C        2.1361270    -1.2244290    -0.0138000
  C        2.1361340     1.2244190    -0.0142730
  C        2.8182870    -0.0000010    -0.0208120
  C        0.7335970    -1.2186540    -0.0045600
  C        0.7335920     1.2186470    -0.0050340
  C        0.0490750     0.0000020     0.0008410
  C        2.8915970    -2.5298050     0.0156450
  C        2.8915460     2.5298400     0.0146700
  H        3.9079530    -0.0000080    -0.0344780
  H        0.1843020    -2.1569090    -0.0057920
  H        0.1843020     2.1569060    -0.0066320
  H        3.8558710    -2.4380930    -0.4900960
  H        2.3252680    -3.3261570    -0.4730740
  H        3.0845820    -2.8430750     1.0467350
  H        2.3258810     3.3255980    -0.4757890
  H        3.0830690     2.8443520     1.0456540
  H        3.8565230     2.4375450    -0.4896130
units angstrom
no_reorient  #important for SAPT in psi4, default
symmetry c1  #important for SAPT in psi4, default
}

set PROPERTIES_ORIGIN ["COM"]
properties('MP2/aug-cc-pvtz', properties = ['dipole'])
--------------------------------------------------------------------------

    Molecular point group: c1
  Charge       = 0
  Multiplicity = 1
  Basis Set: AUG-CC-PVTZ
    Blend: AUG-CC-PVTZ
  Basis Set: (AUG-CC-PVTZ AUX)
    Blend: AUG-CC-PVTZ-JKFIT + DEF2-UNIVERSAL-JKFIT

    Orbital Energies [Eh]
    ---------------------

    Doubly Occupied:

       1A    -11.290375     2A    -11.256197     3A    -11.255078
       4A    -11.243764     5A    -11.241439     6A    -11.236821
       7A    -11.232274     8A    -11.231718     9A     -7.717237
      10A     -5.548951    11A     -5.539352    12A     -5.539319
      13A     -2.278621    14A     -2.273671    15A     -2.273663
      16A     -2.262984    17A     -2.262976    18A     -1.167610
      19A     -1.067003    20A     -1.046971    21A     -0.949422
      22A     -0.939058    23A     -0.895095    24A     -0.794043
      25A     -0.786840    26A     -0.688503    27A     -0.659968
      28A     -0.594884    29A     -0.589548    30A     -0.577882
      31A     -0.573317    32A     -0.560153    33A     -0.549085
      34A     -0.537227    35A     -0.498750    36A     -0.494940
      37A     -0.450433    38A     -0.392212    39A     -0.367017
      40A     -0.331281    41A     -0.318597

  @DF-RHF Final Energy:  -602.95246098005350

   => Energetics <=

    Nuclear Repulsion Energy =            524.3898616557942205
    One-Electron Energy =               -1971.6560933711411963
    Two-Electron Energy =                 844.3137707352934740
    Total Energy =                       -602.9524609800535018
  Basis Set: (AUG-CC-PVTZ AUX)
    Blend: AUG-CC-PVTZ-RI + DEF2-QZVPP-RI
    Molecular point group: c1

    Geometry (in Angstrom), charge = 0, multiplicity = 1:

       Center              X                  Y                   Z               Mass
    ------------   -----------------  -----------------  -----------------  -----------------
         I           -1.773927483325    -0.066620904839     0.001627498949   126.904471900000
         C            2.416449916675    -1.143967704839    -0.013766601051    12.000000000000
         C            2.416456916675     1.304880295161    -0.014239601051    12.000000000000
         C            3.098609916675     0.080460295161    -0.020778601051    12.000000000000
         C            1.013919916675    -1.138192704839    -0.004526601051    12.000000000000
         C            1.013914916675     1.299108295161    -0.005000601051    12.000000000000
         C            0.329397916675     0.080463295161     0.000874398949    12.000000000000
         C            3.171919916675    -2.449343704839     0.015678398949    12.000000000000
         C            3.171868916675     2.610301295161     0.014703398949    12.000000000000
         H            4.188275916675     0.080453295161    -0.034444601051     1.007825032230
         H            0.464624916675    -2.076447704839    -0.005758601051     1.007825032230
         H            0.464624916675     2.237367295161    -0.006598601051     1.007825032230
         H            4.136193916675    -2.357631704839    -0.490062601051     1.007825032230
         H            2.605590916675    -3.245695704839    -0.473040601051     1.007825032230
         H            3.364904916675    -2.762613704839     1.046768398949     1.007825032230
         H            2.606203916675     3.406059295161    -0.475755601051     1.007825032230
         H            3.363391916675     2.924813295161     1.045687398949     1.007825032230
         H            4.136845916675     2.518006295161    -0.489579601051     1.007825032230

  Basis Set: AUG-CC-PVTZ
    Blend: AUG-CC-PVTZ
  Basis Set: (AUG-CC-PVTZ AUX)
    Blend: AUG-CC-PVTZ-JKFIT + DEF2-UNIVERSAL-JKFIT
	 Reference Energy          =    -602.9524609800535018 [Eh]
	 Singles Energy            =      -0.0000000000000000 [Eh]
	 Same-Spin Energy          =      -0.4259340609236693 [Eh]
	 Opposite-Spin Energy      =      -1.3002032943485786 [Eh]
	 Correlation Energy        =      -1.7261373552722479 [Eh]
	 Total Energy              =    -604.6785983353257734 [Eh]

	 ================> DF-SCS-MP2 Energies <==================
	-----------------------------------------------------------
	 SCS Same-Spin Scale       =       0.3333333333333333 [-]
	 SCS Opposite-Spin Scale   =       1.2000000000000000 [-]
	 SCS Same-Spin Energy      =      -0.1419780203078898 [Eh]
	 SCS Opposite-Spin Energy  =      -1.5602439532182943 [Eh]
	 SCS Correlation Energy    =      -1.7022219735261841 [Eh]
	 SCS Total Energy          =    -604.6546829535797087 [Eh]
	-----------------------------------------------------------

  Dipole Moment: [D]
     X:     2.2052      Y:     0.0327      Z:     0.0789     Total:     2.2069

*** Psi4 exiting successfully. Buy a developer a beer!
