                               Psi4 1.4a3.dev225

  ==> Input File <==

--------------------------------------------------------------------------
#psi4
#
memory 32 gb

molecule  {
0 1
  I       -2.0593870    -0.0000050     0.0008870
  C        2.1361270    -1.2244290    -0.0138000
  C        2.1361340     1.2244190    -0.0142730
  C        2.8182870    -0.0000010    -0.0208120
  C        0.7122250    -1.2304153    -0.0043817
  C        0.7335920     1.2186470    -0.0050340
  C        0.0490750     0.0000020     0.0008410
  C        2.8915970    -2.5298050     0.0156450
  C        2.8915460     2.5298400     0.0146700
  H        3.9079530    -0.0000080    -0.0344780
  H        0.1843020    -2.1569090    -0.0057920
  H        0.1843020     2.1569060    -0.0066320
  H        3.8558710    -2.4380930    -0.4900960
  H        2.3252680    -3.3261570    -0.4730740
  H        3.0845820    -2.8430750     1.0467350
  H        2.3258810     3.3255980    -0.4757890
  H        3.0830690     2.8443520     1.0456540
  H        3.8565230     2.4375450    -0.4896130
units angstrom
no_reorient  #important for SAPT in psi4, default
symmetry c1  #important for SAPT in psi4, default
}

set PROPERTIES_ORIGIN ["COM"]
properties('MP2/aug-cc-pvtz', properties = ['dipole'])
--------------------------------------------------------------------------

    Molecular point group: c1
  Charge       = 0
  Multiplicity = 1
  Basis Set: AUG-CC-PVTZ
    Blend: AUG-CC-PVTZ
  Basis Set: (AUG-CC-PVTZ AUX)
    Blend: AUG-CC-PVTZ-JKFIT + DEF2-UNIVERSAL-JKFIT

    Orbital Energies [Eh]
    ---------------------

    Doubly Occupied:

       1A    -11.291209     2A    -11.258578     3A    -11.256486
       4A    -11.243487     5A    -11.242559     6A    -11.236957
       7A    -11.232339     8A    -11.232175     9A     -7.716338
      10A     -5.548001    11A     -5.538490    12A     -5.538451
      13A     -2.277668    14A     -2.272743    15A     -2.272742
      16A     -2.262156    17A     -2.262150    18A     -1.166011
      19A     -1.065990    20A     -1.047381    21A     -0.949602
      22A     -0.939409    23A     -0.894472    24A     -0.795052
      25A     -0.784967    26A     -0.691152    27A     -0.659199
      28A     -0.596332    29A     -0.589628    30A     -0.578660
      31A     -0.574646    32A     -0.560861    33A     -0.549237
      34A     -0.537376    35A     -0.498020    36A     -0.497251
      37A     -0.447978    38A     -0.391894    39A     -0.366567
      40A     -0.329415    41A     -0.319149

  @DF-RHF Final Energy:  -602.95235703444996

   => Energetics <=

    Nuclear Repulsion Energy =            523.9918474667119881
    One-Electron Energy =               -1970.8628529101442837
    Two-Electron Energy =                 843.9186484089823352
    Total Energy =                       -602.9523570344499603
  Basis Set: (AUG-CC-PVTZ AUX)
    Blend: AUG-CC-PVTZ-RI + DEF2-QZVPP-RI
    Molecular point group: c1

    Geometry (in Angstrom), charge = 0, multiplicity = 1:

       Center              X                  Y                   Z               Mass
    ------------   -----------------  -----------------  -----------------  -----------------
         I           -1.775148480726     0.000604470593     0.001298002531   126.904471900000
         C            2.420365519274    -1.223819529407    -0.013388997469    12.000000000000
         C            2.420372519274     1.225028470593    -0.013861997469    12.000000000000
         C            3.102525519274     0.000608470593    -0.020400997469    12.000000000000
         C            0.996463519274    -1.229805829407    -0.003970697469    12.000000000000
         C            1.017830519274     1.219256470593    -0.004622997469    12.000000000000
         C            0.333313519274     0.000611470593     0.001252002531    12.000000000000
         C            3.175835519274    -2.529195529407     0.016056002531    12.000000000000
         C            3.175784519274     2.530449470593     0.015081002531    12.000000000000
         H            4.192191519274     0.000601470593    -0.034066997469     1.007825032230
         H            0.468540519274    -2.156299529407    -0.005380997469     1.007825032230
         H            0.468540519274     2.157515470593    -0.006220997469     1.007825032230
         H            4.140109519274    -2.437483529407    -0.489684997469     1.007825032230
         H            2.609506519274    -3.325547529407    -0.472662997469     1.007825032230
         H            3.368820519274    -2.842465529407     1.047146002531     1.007825032230
         H            2.610119519274     3.326207470593    -0.475377997469     1.007825032230
         H            3.367307519274     2.844961470593     1.046065002531     1.007825032230
         H            4.140761519274     2.438154470593    -0.489201997469     1.007825032230

  Basis Set: AUG-CC-PVTZ
    Blend: AUG-CC-PVTZ
  Basis Set: (AUG-CC-PVTZ AUX)
    Blend: AUG-CC-PVTZ-JKFIT + DEF2-UNIVERSAL-JKFIT
	 Reference Energy          =    -602.9523570344499603 [Eh]
	 Singles Energy            =      -0.0000000000000000 [Eh]
	 Same-Spin Energy          =      -0.4258728731024081 [Eh]
	 Opposite-Spin Energy      =      -1.3001374898490328 [Eh]
	 Correlation Energy        =      -1.7260103629514409 [Eh]
	 Total Energy              =    -604.6783673974014164 [Eh]

	 ================> DF-SCS-MP2 Energies <==================
	-----------------------------------------------------------
	 SCS Same-Spin Scale       =       0.3333333333333333 [-]
	 SCS Opposite-Spin Scale   =       1.2000000000000000 [-]
	 SCS Same-Spin Energy      =      -0.1419576243674693 [Eh]
	 SCS Opposite-Spin Energy  =      -1.5601649878188393 [Eh]
	 SCS Correlation Energy    =      -1.7021226121863087 [Eh]
	 SCS Total Energy          =    -604.6544796466362186 [Eh]
	-----------------------------------------------------------

  Dipole Moment: [D]
     X:     2.2499      Y:    -0.0101      Z:     0.0795     Total:     2.2513

*** Psi4 exiting successfully. Buy a developer a beer!
