                               Psi4 1.4a3.dev225

  ==> Input File <==

--------------------------------------------------------------------------
#psi4
#
memory 32 gb

molecule  {
0 1
  I       -2.0593870    -0.0000050     0.0008870
  C        2.1361270    -1.2244290    -0.0138000
  C        2.1361340     1.2244190    -0.0142730
  C        2.8182870    -0.0000010    -0.0208120
  C        0.7335970    -1.2186540    -0.0045600
  C        0.7335920     1.2186470    -0.0050340
  C        0.0490750     0.0000020     0.0008410
  C        2.8915970    -2.5298050     0.0156450
  C        2.8915460     2.5298400     0.0146700
  H        3.9079530    -0.0000080    -0.0344780
  H        0.1843020    -2.1569090    -0.0057920
  H        0.1843020     2.1569060    -0.0066320
  H        3.8558710    -2.4380930    -0.4900960
  H        2.3252680    -3.3261570    -0.4730740
  H        3.0493263    -2.7858449     0.8583690
  H        2.3258810     3.3255980    -0.4757890
  H        3.0830690     2.8443520     1.0456540
  H        3.8565230     2.4375450    -0.4896130
units angstrom
no_reorient  #important for SAPT in psi4, default
symmetry c1  #important for SAPT in psi4, default
}

set PROPERTIES_ORIGIN ["COM"]
properties('MP2/aug-cc-pvtz', properties = ['dipole'])
--------------------------------------------------------------------------

    Molecular point group: c1
  Charge       = 0
  Multiplicity = 1
  Basis Set: AUG-CC-PVTZ
    Blend: AUG-CC-PVTZ
  Basis Set: (AUG-CC-PVTZ AUX)
    Blend: AUG-CC-PVTZ-JKFIT + DEF2-UNIVERSAL-JKFIT

    Orbital Energies [Eh]
    ---------------------

    Doubly Occupied:

       1A    -11.290124     2A    -11.255361     3A    -11.254639
       4A    -11.242290     5A    -11.242171     6A    -11.236398
       7A    -11.231800     8A    -11.207537     9A     -7.717039
      10A     -5.548733    11A     -5.539167    12A     -5.539132
      13A     -2.278400    14A     -2.273457    15A     -2.273451
      16A     -2.262807    17A     -2.262801    18A     -1.167707
      19A     -1.071618    20A     -1.048546    21A     -0.964559
      22A     -0.941842    23A     -0.895027    24A     -0.798938
      25A     -0.787536    26A     -0.689038    27A     -0.659421
      28A     -0.622255    29A     -0.594010    30A     -0.582949
      31A     -0.572976    32A     -0.559281    33A     -0.548707
      34A     -0.536461    35A     -0.501751    36A     -0.494438
      37A     -0.450242    38A     -0.392496    39A     -0.367109
      40A     -0.331925    41A     -0.318597

  @DF-RHF Final Energy:  -602.91946400241625

   => Energetics <=

    Nuclear Repulsion Energy =            525.2716871768919873
    One-Electron Energy =               -1973.2768342901979395
    Two-Electron Energy =                 845.0856831108898177
    Total Energy =                       -602.9194640024162481
  Basis Set: (AUG-CC-PVTZ AUX)
    Blend: AUG-CC-PVTZ-RI + DEF2-QZVPP-RI
    Molecular point group: c1

    Geometry (in Angstrom), charge = 0, multiplicity = 1:

       Center              X                  Y                   Z               Mass
    ------------   -----------------  -----------------  -----------------  -----------------
         I           -1.776100878704    -0.000252577000     0.002125590224   126.904471900000
         C            2.419413121296    -1.224676577000    -0.012561409776    12.000000000000
         C            2.419420121296     1.224171423000    -0.013034409776    12.000000000000
         C            3.101573121296    -0.000248577000    -0.019573409776    12.000000000000
         C            1.016883121296    -1.218901577000    -0.003321409776    12.000000000000
         C            1.016878121296     1.218399423000    -0.003795409776    12.000000000000
         C            0.332361121296    -0.000245577000     0.002079590224    12.000000000000
         C            3.174883121296    -2.530052577000     0.016883590224    12.000000000000
         C            3.174832121296     2.529592423000     0.015908590224    12.000000000000
         H            4.191239121296    -0.000255577000    -0.033239409776     1.007825032230
         H            0.467588121296    -2.157156577000    -0.004553409776     1.007825032230
         H            0.467588121296     2.156658423000    -0.005393409776     1.007825032230
         H            4.139157121296    -2.438340577000    -0.488857409776     1.007825032230
         H            2.608554121296    -3.326404577000    -0.471835409776     1.007825032230
         H            3.332612421296    -2.786092477000     0.859607590224     1.007825032230
         H            2.609167121296     3.325350423000    -0.474550409776     1.007825032230
         H            3.366355121296     2.844104423000     1.046892590224     1.007825032230
         H            4.139809121296     2.437297423000    -0.488374409776     1.007825032230

  Basis Set: AUG-CC-PVTZ
    Blend: AUG-CC-PVTZ
  Basis Set: (AUG-CC-PVTZ AUX)
    Blend: AUG-CC-PVTZ-JKFIT + DEF2-UNIVERSAL-JKFIT
	 Reference Energy          =    -602.9194640024162481 [Eh]
	 Singles Energy            =      -0.0000000000000000 [Eh]
	 Same-Spin Energy          =      -0.4259916712649459 [Eh]
	 Opposite-Spin Energy      =      -1.2994948598522191 [Eh]
	 Correlation Energy        =      -1.7254865311171650 [Eh]
	 Total Energy              =    -604.6449505335334607 [Eh]

	 ================> DF-SCS-MP2 Energies <==================
	-----------------------------------------------------------
	 SCS Same-Spin Scale       =       0.3333333333333333 [-]
	 SCS Opposite-Spin Scale   =       1.2000000000000000 [-]
	 SCS Same-Spin Energy      =      -0.1419972237549819 [Eh]
	 SCS Opposite-Spin Energy  =      -1.5593938318226630 [Eh]
	 SCS Correlation Energy    =      -1.7013910555776450 [Eh]
	 SCS Total Energy          =    -604.6208550579939356 [Eh]
	-----------------------------------------------------------

  Dipole Moment: [D]
     X:     2.2285      Y:    -0.0403      Z:     0.1149     Total:     2.2319

*** Psi4 exiting successfully. Buy a developer a beer!
