                               Psi4 1.4a3.dev225

  ==> Input File <==

--------------------------------------------------------------------------
#psi4
#
memory 32 gb

molecule  {
0 1
  I       -2.0593870    -0.0000050     0.0008870
  C        2.1361270    -1.2244290    -0.0138000
  C        2.1361340     1.2244190    -0.0142730
  C        2.8182870    -0.0000010    -0.0208120
  C        0.7335970    -1.2186540    -0.0045600
  C        0.7335920     1.2186470    -0.0050340
  C        0.0990750     0.0000022     0.0008399
  C        2.8915970    -2.5298050     0.0156450
  C        2.8915460     2.5298400     0.0146700
  H        3.9079530    -0.0000080    -0.0344780
  H        0.1843020    -2.1569090    -0.0057920
  H        0.1843020     2.1569060    -0.0066320
  H        3.8558710    -2.4380930    -0.4900960
  H        2.3252680    -3.3261570    -0.4730740
  H        3.0845820    -2.8430750     1.0467350
  H        2.3258810     3.3255980    -0.4757890
  H        3.0830690     2.8443520     1.0456540
  H        3.8565230     2.4375450    -0.4896130
units angstrom
no_reorient  #important for SAPT in psi4, default
symmetry c1  #important for SAPT in psi4, default
}

set PROPERTIES_ORIGIN ["COM"]
properties('MP2/aug-cc-pvtz', properties = ['dipole'])
--------------------------------------------------------------------------

    Molecular point group: c1
  Charge       = 0
  Multiplicity = 1
  Basis Set: AUG-CC-PVTZ
    Blend: AUG-CC-PVTZ
  Basis Set: (AUG-CC-PVTZ AUX)
    Blend: AUG-CC-PVTZ-JKFIT + DEF2-UNIVERSAL-JKFIT

    Orbital Energies [Eh]
    ---------------------

    Doubly Occupied:

       1A    -11.290431     2A    -11.257431     3A    -11.257408
       4A    -11.241632     5A    -11.241600     6A    -11.237336
       7A    -11.232982     8A    -11.232981     9A     -7.712894
      10A     -5.544410    11A     -5.535072    12A     -5.535010
      13A     -2.273767    14A     -2.269183    15A     -2.269147
      16A     -2.258741    17A     -2.258734    18A     -1.173963
      19A     -1.069743    20A     -1.049245    21A     -0.950219
      22A     -0.944196    23A     -0.888703    24A     -0.796503
      25A     -0.788527    26A     -0.692247    27A     -0.664570
      28A     -0.595505    29A     -0.591217    30A     -0.582274
      31A     -0.576908    32A     -0.561551    33A     -0.548521
      34A     -0.539304    35A     -0.503502    36A     -0.498789
      37A     -0.438162    38A     -0.388592    39A     -0.364236
      40A     -0.333722    41A     -0.322647

  @DF-RHF Final Energy:  -602.95264798697463

   => Energetics <=

    Nuclear Repulsion Energy =            524.4221505213992032
    One-Electron Energy =               -1971.7263894008046918
    Two-Electron Energy =                 844.3515908924309770
    Total Energy =                       -602.9526479869746254
  Basis Set: (AUG-CC-PVTZ AUX)
    Blend: AUG-CC-PVTZ-RI + DEF2-QZVPP-RI
    Molecular point group: c1

    Geometry (in Angstrom), charge = 0, multiplicity = 1:

       Center              X                  Y                   Z               Mass
    ------------   -----------------  -----------------  -----------------  -----------------
         I           -1.778840535385    -0.000003948687     0.001307282845   126.904471900000
         C            2.416673464615    -1.224427948687    -0.013379717155    12.000000000000
         C            2.416680464615     1.224420051313    -0.013852717155    12.000000000000
         C            3.098833464615     0.000000051313    -0.020391717155    12.000000000000
         C            1.014143464615    -1.218652948687    -0.004139717155    12.000000000000
         C            1.014138464615     1.218648051313    -0.004613717155    12.000000000000
         C            0.379621464615     0.000003251313     0.001260182845    12.000000000000
         C            3.172143464615    -2.529803948687     0.016065282845    12.000000000000
         C            3.172092464615     2.529841051313     0.015090282845    12.000000000000
         H            4.188499464615    -0.000006948687    -0.034057717155     1.007825032230
         H            0.464848464615    -2.156907948687    -0.005371717155     1.007825032230
         H            0.464848464615     2.156907051313    -0.006211717155     1.007825032230
         H            4.136417464615    -2.438091948687    -0.489675717155     1.007825032230
         H            2.605814464615    -3.326155948687    -0.472653717155     1.007825032230
         H            3.365128464615    -2.843073948687     1.047155282845     1.007825032230
         H            2.606427464615     3.325599051313    -0.475368717155     1.007825032230
         H            3.363615464615     2.844353051313     1.046074282845     1.007825032230
         H            4.137069464615     2.437546051313    -0.489192717155     1.007825032230

  Basis Set: AUG-CC-PVTZ
    Blend: AUG-CC-PVTZ
  Basis Set: (AUG-CC-PVTZ AUX)
    Blend: AUG-CC-PVTZ-JKFIT + DEF2-UNIVERSAL-JKFIT
	 Reference Energy          =    -602.9526479869746254 [Eh]
	 Singles Energy            =      -0.0000000000000000 [Eh]
	 Same-Spin Energy          =      -0.4255498187611403 [Eh]
	 Opposite-Spin Energy      =      -1.2992205191329200 [Eh]
	 Correlation Energy        =      -1.7247703378940604 [Eh]
	 Total Energy              =    -604.6774183248686541 [Eh]

	 ================> DF-SCS-MP2 Energies <==================
	-----------------------------------------------------------
	 SCS Same-Spin Scale       =       0.3333333333333333 [-]
	 SCS Opposite-Spin Scale   =       1.2000000000000000 [-]
	 SCS Same-Spin Energy      =      -0.1418499395870468 [Eh]
	 SCS Opposite-Spin Energy  =      -1.5590646229595040 [Eh]
	 SCS Correlation Energy    =      -1.7009145625465507 [Eh]
	 SCS Total Energy          =    -604.6535625495212116 [Eh]
	-----------------------------------------------------------

  Dipole Moment: [D]
     X:     2.4428      Y:     0.0001      Z:     0.0800     Total:     2.4441

*** Psi4 exiting successfully. Buy a developer a beer!
