                               Psi4 1.4a3.dev225

  ==> Input File <==

--------------------------------------------------------------------------
#psi4
#
memory 32 gb

molecule  {
0 1
  I       -2.0542514     0.1470722     0.0001796
  C        2.1361270    -1.2244290    -0.0138000
  C        2.1361340     1.2244190    -0.0142730
  C        2.8182870    -0.0000010    -0.0208120
  C        0.7335970    -1.2186540    -0.0045600
  C        0.7335920     1.2186470    -0.0050340
  C        0.0490750     0.0000020     0.0008410
  C        2.8915970    -2.5298050     0.0156450
  C        2.8915460     2.5298400     0.0146700
  H        3.9079530    -0.0000080    -0.0344780
  H        0.1843020    -2.1569090    -0.0057920
  H        0.1843020     2.1569060    -0.0066320
  H        3.8558710    -2.4380930    -0.4900960
  H        2.3252680    -3.3261570    -0.4730740
  H        3.0845820    -2.8430750     1.0467350
  H        2.3258810     3.3255980    -0.4757890
  H        3.0830690     2.8443520     1.0456540
  H        3.8565230     2.4375450    -0.4896130
units angstrom
no_reorient  #important for SAPT in psi4, default
symmetry c1  #important for SAPT in psi4, default
}

set PROPERTIES_ORIGIN ["COM"]
properties('MP2/aug-cc-pvtz', properties = ['dipole'])
--------------------------------------------------------------------------

    Molecular point group: c1
  Charge       = 0
  Multiplicity = 1
  Basis Set: AUG-CC-PVTZ
    Blend: AUG-CC-PVTZ
  Basis Set: (AUG-CC-PVTZ AUX)
    Blend: AUG-CC-PVTZ-JKFIT + DEF2-UNIVERSAL-JKFIT

    Orbital Energies [Eh]
    ---------------------

    Doubly Occupied:

       1A    -11.290375     2A    -11.256196     3A    -11.255079
       4A    -11.243764     5A    -11.241440     6A    -11.236821
       7A    -11.232274     8A    -11.231718     9A     -7.717236
      10A     -5.548951    11A     -5.539351    12A     -5.539319
      13A     -2.278621    14A     -2.273670    15A     -2.273663
      16A     -2.262983    17A     -2.262976    18A     -1.167610
      19A     -1.067003    20A     -1.046971    21A     -0.949422
      22A     -0.939058    23A     -0.895095    24A     -0.794043
      25A     -0.786840    26A     -0.688503    27A     -0.659968
      28A     -0.594883    29A     -0.589548    30A     -0.577882
      31A     -0.573317    32A     -0.560153    33A     -0.549086
      34A     -0.537226    35A     -0.498750    36A     -0.494940
      37A     -0.450433    38A     -0.392212    39A     -0.367017
      40A     -0.331282    41A     -0.318597

  @DF-RHF Final Energy:  -602.95246080517757

   => Energetics <=

    Nuclear Repulsion Energy =            524.3899346683614340
    One-Electron Energy =               -1971.6562408171057541
    Two-Electron Energy =                 844.3138453435666406
    Total Energy =                       -602.9524608051775658
  Basis Set: (AUG-CC-PVTZ AUX)
    Blend: AUG-CC-PVTZ-RI + DEF2-QZVPP-RI
    Molecular point group: c1

    Geometry (in Angstrom), charge = 0, multiplicity = 1:

       Center              X                  Y                   Z               Mass
    ------------   -----------------  -----------------  -----------------  -----------------
         I           -1.773927936264     0.066613028157     0.000986817054   126.904471900000
         C            2.416450463736    -1.304888171843    -0.012992782946    12.000000000000
         C            2.416457463736     1.143959828157    -0.013465782946    12.000000000000
         C            3.098610463736    -0.080460171843    -0.020004782946    12.000000000000
         C            1.013920463736    -1.299113171843    -0.003752782946    12.000000000000
         C            1.013915463736     1.138187828157    -0.004226782946    12.000000000000
         C            0.329398463736    -0.080457171843     0.001648217054    12.000000000000
         C            3.171920463736    -2.610264171843     0.016452217054    12.000000000000
         C            3.171869463736     2.449380828157     0.015477217054    12.000000000000
         H            4.188276463736    -0.080467171843    -0.033670782946     1.007825032230
         H            0.464625463736    -2.237368171843    -0.004984782946     1.007825032230
         H            0.464625463736     2.076446828157    -0.005824782946     1.007825032230
         H            4.136194463736    -2.518552171843    -0.489288782946     1.007825032230
         H            2.605591463736    -3.406616171843    -0.472266782946     1.007825032230
         H            3.364905463736    -2.923534171843     1.047542217054     1.007825032230
         H            2.606204463736     3.245138828157    -0.474981782946     1.007825032230
         H            3.363392463736     2.763892828157     1.046461217054     1.007825032230
         H            4.136846463736     2.357085828157    -0.488805782946     1.007825032230

  Basis Set: AUG-CC-PVTZ
    Blend: AUG-CC-PVTZ
  Basis Set: (AUG-CC-PVTZ AUX)
    Blend: AUG-CC-PVTZ-JKFIT + DEF2-UNIVERSAL-JKFIT
	 Reference Energy          =    -602.9524608051775658 [Eh]
	 Singles Energy            =      -0.0000000000000000 [Eh]
	 Same-Spin Energy          =      -0.4259340875811313 [Eh]
	 Opposite-Spin Energy      =      -1.3002032902506269 [Eh]
	 Correlation Energy        =      -1.7261373778317581 [Eh]
	 Total Energy              =    -604.6785981830092851 [Eh]

	 ================> DF-SCS-MP2 Energies <==================
	-----------------------------------------------------------
	 SCS Same-Spin Scale       =       0.3333333333333333 [-]
	 SCS Opposite-Spin Scale   =       1.2000000000000000 [-]
	 SCS Same-Spin Energy      =      -0.1419780291937104 [Eh]
	 SCS Opposite-Spin Energy  =      -1.5602439483007522 [Eh]
	 SCS Correlation Energy    =      -1.7022219774944627 [Eh]
	 SCS Total Energy          =    -604.6546827826720119 [Eh]
	-----------------------------------------------------------

  Dipole Moment: [D]
     X:     2.2052      Y:    -0.0325      Z:     0.0791     Total:     2.2069

*** Psi4 exiting successfully. Buy a developer a beer!
