                               Psi4 1.4a3.dev225

  ==> Input File <==

--------------------------------------------------------------------------
#psi4
#
memory 32 gb

molecule  {
0 1
  I       -2.0593870    -0.0000050     0.0008870
  C        2.2589331    -1.1646941    -0.0930619
  C        2.1361340     1.2244190    -0.0142730
  C        2.8182870    -0.0000010    -0.0208120
  C        0.7335970    -1.2186540    -0.0045600
  C        0.7335920     1.2186470    -0.0050340
  C        0.0490750     0.0000020     0.0008410
  C        2.8915970    -2.5298050     0.0156450
  C        2.8915460     2.5298400     0.0146700
  H        3.9079530    -0.0000080    -0.0344780
  H        0.1843020    -2.1569090    -0.0057920
  H        0.1843020     2.1569060    -0.0066320
  H        3.8558710    -2.4380930    -0.4900960
  H        2.3252680    -3.3261570    -0.4730740
  H        3.0845820    -2.8430750     1.0467350
  H        2.3258810     3.3255980    -0.4757890
  H        3.0830690     2.8443520     1.0456540
  H        3.8565230     2.4375450    -0.4896130
units angstrom
no_reorient  #important for SAPT in psi4, default
symmetry c1  #important for SAPT in psi4, default
}

set PROPERTIES_ORIGIN ["COM"]
properties('MP2/aug-cc-pvtz', properties = ['dipole'])
--------------------------------------------------------------------------

    Molecular point group: c1
  Charge       = 0
  Multiplicity = 1
  Basis Set: AUG-CC-PVTZ
    Blend: AUG-CC-PVTZ
  Basis Set: (AUG-CC-PVTZ AUX)
    Blend: AUG-CC-PVTZ-JKFIT + DEF2-UNIVERSAL-JKFIT

    Orbital Energies [Eh]
    ---------------------

    Doubly Occupied:

       1A    -11.289144     2A    -11.257562     3A    -11.255077
       4A    -11.252721     5A    -11.242221     6A    -11.233479
       7A    -11.232808     8A    -11.226236     9A     -7.716106
      10A     -5.547775    11A     -5.538269    12A     -5.538196
      13A     -2.277438    14A     -2.272530    15A     -2.272489
      16A     -2.261914    17A     -2.261908    18A     -1.169203
      19A     -1.066049    20A     -1.050770    21A     -0.958674
      22A     -0.932662    23A     -0.892267    24A     -0.807027
      25A     -0.773983    26A     -0.688819    27A     -0.657342
      28A     -0.605478    29A     -0.591095    30A     -0.578025
      31A     -0.569213    32A     -0.559767    33A     -0.545078
      34A     -0.530901    35A     -0.507789    36A     -0.496850
      37A     -0.435709    38A     -0.400228    39A     -0.366104
      40A     -0.332773    41A     -0.315051

  @DF-RHF Final Energy:  -602.92880297526983

   => Energetics <=

    Nuclear Repulsion Energy =            523.9091822746769367
    One-Electron Energy =               -1970.6625049493413826
    Two-Electron Energy =                 843.8245196993947275
    Total Energy =                       -602.9288029752698321
  Basis Set: (AUG-CC-PVTZ AUX)
    Blend: AUG-CC-PVTZ-RI + DEF2-QZVPP-RI
    Molecular point group: c1

    Geometry (in Angstrom), charge = 0, multiplicity = 1:

       Center              X                  Y                   Z               Mass
    ------------   -----------------  -----------------  -----------------  -----------------
         I           -1.782606775658    -0.003094008899     0.005407423039   126.904471900000
         C            2.535713324342    -1.167783108899    -0.088541476961    12.000000000000
         C            2.412914224342     1.221329991101    -0.009752576961    12.000000000000
         C            3.095067224342    -0.003090008899    -0.016291576961    12.000000000000
         C            1.010377224342    -1.221743008899    -0.000039576961    12.000000000000
         C            1.010372224342     1.215557991101    -0.000513576961    12.000000000000
         C            0.325855224342    -0.003087008899     0.005361423039    12.000000000000
         C            3.168377224342    -2.532894008899     0.020165423039    12.000000000000
         C            3.168326224342     2.526750991101     0.019190423039    12.000000000000
         H            4.184733224342    -0.003097008899    -0.029957576961     1.007825032230
         H            0.461082224342    -2.159998008899    -0.001271576961     1.007825032230
         H            0.461082224342     2.153816991101    -0.002111576961     1.007825032230
         H            4.132651224342    -2.441182008899    -0.485575576961     1.007825032230
         H            2.602048224342    -3.329246008899    -0.468553576961     1.007825032230
         H            3.361362224342    -2.846164008899     1.051255423039     1.007825032230
         H            2.602661224342     3.322508991101    -0.471268576961     1.007825032230
         H            3.359849224342     2.841262991101     1.050174423039     1.007825032230
         H            4.133303224342     2.434455991101    -0.485092576961     1.007825032230

  Basis Set: AUG-CC-PVTZ
    Blend: AUG-CC-PVTZ
  Basis Set: (AUG-CC-PVTZ AUX)
    Blend: AUG-CC-PVTZ-JKFIT + DEF2-UNIVERSAL-JKFIT
	 Reference Energy          =    -602.9288029752698321 [Eh]
	 Singles Energy            =      -0.0000000000000000 [Eh]
	 Same-Spin Energy          =      -0.4255615073548098 [Eh]
	 Opposite-Spin Energy      =      -1.3013000836379360 [Eh]
	 Correlation Energy        =      -1.7268615909927458 [Eh]
	 Total Energy              =    -604.6556645662625442 [Eh]

	 ================> DF-SCS-MP2 Energies <==================
	-----------------------------------------------------------
	 SCS Same-Spin Scale       =       0.3333333333333333 [-]
	 SCS Opposite-Spin Scale   =       1.2000000000000000 [-]
	 SCS Same-Spin Energy      =      -0.1418538357849366 [Eh]
	 SCS Opposite-Spin Energy  =      -1.5615601003655233 [Eh]
	 SCS Correlation Energy    =      -1.7034139361504599 [Eh]
	 SCS Total Energy          =    -604.6322169114203007 [Eh]
	-----------------------------------------------------------

  Dipole Moment: [D]
     X:     2.2351      Y:     0.0049      Z:     0.1052     Total:     2.2376

*** Psi4 exiting successfully. Buy a developer a beer!
