                               Psi4 1.4a3.dev225

  ==> Input File <==

--------------------------------------------------------------------------
#psi4
#
memory 32 gb

molecule  {
0 1
  I       -2.0593870    -0.0000050     0.0008870
  C        2.1361270    -1.2244290    -0.0138000
  C        2.1361340     1.2244190    -0.0142730
  C        2.8182870    -0.0000010    -0.0208120
  C        0.7335970    -1.2186540    -0.0045600
  C        0.7335920     1.2186470    -0.0050340
  C        0.0490750     0.0000020     0.0008410
  C        2.8915970    -2.5298050     0.0156450
  C        2.8915460     2.5298400     0.0146700
  H        3.9079530    -0.0000080    -0.0344780
  H        0.1843020    -2.1569090    -0.0057920
  H        0.1843020     2.1569060    -0.0066320
  H        3.8558710    -2.4380930    -0.4900960
  H        2.3252680    -3.3261570    -0.4730740
  H        3.0845820    -2.8430750     1.0467350
  H        2.3258810     3.3255980    -0.4757890
  H        3.0830690     2.8443520     1.0456540
  H        3.8123675     2.4417682    -0.4665380
units angstrom
no_reorient  #important for SAPT in psi4, default
symmetry c1  #important for SAPT in psi4, default
}

set PROPERTIES_ORIGIN ["COM"]
properties('MP2/aug-cc-pvtz', properties = ['dipole'])
--------------------------------------------------------------------------

    Molecular point group: c1
  Charge       = 0
  Multiplicity = 1
  Basis Set: AUG-CC-PVTZ
    Blend: AUG-CC-PVTZ
  Basis Set: (AUG-CC-PVTZ AUX)
    Blend: AUG-CC-PVTZ-JKFIT + DEF2-UNIVERSAL-JKFIT

    Orbital Energies [Eh]
    ---------------------

    Doubly Occupied:

       1A    -11.290246     2A    -11.255592     3A    -11.255273
       4A    -11.242460     5A    -11.242281     6A    -11.236770
       7A    -11.231949     8A    -11.225896     9A     -7.717121
      10A     -5.548817    11A     -5.539248    12A     -5.539212
      13A     -2.278484    14A     -2.273541    15A     -2.273534
      16A     -2.262887    17A     -2.262880    18A     -1.167507
      19A     -1.067556    20A     -1.047235    21A     -0.951537
      22A     -0.940277    23A     -0.895187    24A     -0.794576
      25A     -0.787484    26A     -0.688417    27A     -0.660771
      28A     -0.595502    29A     -0.589993    30A     -0.578543
      31A     -0.574089    32A     -0.563245    33A     -0.549490
      34A     -0.539688    35A     -0.498754    36A     -0.494652
      37A     -0.450523    38A     -0.392116    39A     -0.367189
      40A     -0.331078    41A     -0.318624

  @DF-RHF Final Energy:  -602.95238167312232

   => Energetics <=

    Nuclear Repulsion Energy =            524.4893942156804769
    One-Electron Energy =               -1971.8430992871226408
    Two-Electron Energy =                 844.4013233983198461
    Total Energy =                       -602.9523816731223178
  Basis Set: (AUG-CC-PVTZ AUX)
    Blend: AUG-CC-PVTZ-RI + DEF2-QZVPP-RI
    Molecular point group: c1

    Geometry (in Angstrom), charge = 0, multiplicity = 1:

       Center              X                  Y                   Z               Mass
    ------------   -----------------  -----------------  -----------------  -----------------
         I           -1.776062213136    -0.000022286217     0.001206975601   126.904471900000
         C            2.419451786864    -1.224446286217    -0.013480024399    12.000000000000
         C            2.419458786864     1.224401713783    -0.013953024399    12.000000000000
         C            3.101611786864    -0.000018286217    -0.020492024399    12.000000000000
         C            1.016921786864    -1.218671286217    -0.004240024399    12.000000000000
         C            1.016916786864     1.218629713783    -0.004714024399    12.000000000000
         C            0.332399786864    -0.000015286217     0.001160975601    12.000000000000
         C            3.174921786864    -2.529822286217     0.015964975601    12.000000000000
         C            3.174870786864     2.529822713783     0.014989975601    12.000000000000
         H            4.191277786864    -0.000025286217    -0.034158024399     1.007825032230
         H            0.467626786864    -2.156926286217    -0.005472024399     1.007825032230
         H            0.467626786864     2.156888713783    -0.006312024399     1.007825032230
         H            4.139195786864    -2.438110286217    -0.489776024399     1.007825032230
         H            2.608592786864    -3.326174286217    -0.472754024399     1.007825032230
         H            3.367906786864    -2.843092286217     1.047054975601     1.007825032230
         H            2.609205786864     3.325580713783    -0.475469024399     1.007825032230
         H            3.366393786864     2.844334713783     1.045973975601     1.007825032230
         H            4.095692286864     2.441750913783    -0.466218024399     1.007825032230

  Basis Set: AUG-CC-PVTZ
    Blend: AUG-CC-PVTZ
  Basis Set: (AUG-CC-PVTZ AUX)
    Blend: AUG-CC-PVTZ-JKFIT + DEF2-UNIVERSAL-JKFIT
	 Reference Energy          =    -602.9523816731223178 [Eh]
	 Singles Energy            =      -0.0000000000000000 [Eh]
	 Same-Spin Energy          =      -0.4258669493886513 [Eh]
	 Opposite-Spin Energy      =      -1.2997932909639203 [Eh]
	 Correlation Energy        =      -1.7256602403525716 [Eh]
	 Total Energy              =    -604.6780419134748854 [Eh]

	 ================> DF-SCS-MP2 Energies <==================
	-----------------------------------------------------------
	 SCS Same-Spin Scale       =       0.3333333333333333 [-]
	 SCS Opposite-Spin Scale   =       1.2000000000000000 [-]
	 SCS Same-Spin Energy      =      -0.1419556497962171 [Eh]
	 SCS Opposite-Spin Energy  =      -1.5597519491567042 [Eh]
	 SCS Correlation Energy    =      -1.7017075989529213 [Eh]
	 SCS Total Energy          =    -604.6540892720752254 [Eh]
	-----------------------------------------------------------

  Dipole Moment: [D]
     X:     2.2259      Y:     0.0103      Z:     0.0714     Total:     2.2271

*** Psi4 exiting successfully. Buy a developer a beer!
