                               Psi4 1.4a3.dev225

  ==> Input File <==

--------------------------------------------------------------------------
#psi4
#
memory 32 gb

molecule  {
0 1
  I       -2.0593870    -0.0000050     0.0008870
  C        2.1361270    -1.2244290    -0.0138000
  C        2.1361340     1.2244190    -0.0142730
  C        2.8182870    -0.0000010    -0.0208120
  C        0.7335970    -1.2186540    -0.0045600
  C        0.7335920     1.2186470    -0.0050340
  C        0.0490750     0.0000020     0.0008410
  C        2.8915970    -2.5298050     0.0156450
  C        2.8915460     2.5298400     0.0146700
  H        3.9079530    -0.0000080    -0.0344780
  H        0.1843020    -2.1569090    -0.0057920
  H        0.1843020     2.1569060    -0.0066320
  H        3.8558710    -2.4380930    -0.4900960
  H        2.3252680    -3.3261570    -0.4730740
  H        3.0845820    -2.8430750     1.0467350
  H        2.2999946     3.3620141    -0.4982337
  H        3.0830690     2.8443520     1.0456540
  H        3.8565230     2.4375450    -0.4896130
units angstrom
no_reorient  #important for SAPT in psi4, default
symmetry c1  #important for SAPT in psi4, default
}

set PROPERTIES_ORIGIN ["COM"]
properties('MP2/aug-cc-pvtz', properties = ['dipole'])
--------------------------------------------------------------------------

    Molecular point group: c1
  Charge       = 0
  Multiplicity = 1
  Basis Set: AUG-CC-PVTZ
    Blend: AUG-CC-PVTZ
  Basis Set: (AUG-CC-PVTZ AUX)
    Blend: AUG-CC-PVTZ-JKFIT + DEF2-UNIVERSAL-JKFIT

    Orbital Energies [Eh]
    ---------------------

    Doubly Occupied:

       1A    -11.290481     2A    -11.256090     3A    -11.255852
       4A    -11.242780     5A    -11.242701     6A    -11.237930
       7A    -11.237207     8A    -11.232142     9A     -7.717313
      10A     -5.549013    11A     -5.539437    12A     -5.539402
      13A     -2.278680    14A     -2.273734    15A     -2.273728
      16A     -2.263074    17A     -2.263067    18A     -1.167704
      19A     -1.066496    20A     -1.046794    21A     -0.947701
      22A     -0.937648    23A     -0.895383    24A     -0.792949
      25A     -0.787013    26A     -0.688555    27A     -0.659495
      28A     -0.593995    29A     -0.589398    30A     -0.577905
      31A     -0.572617    32A     -0.557451    33A     -0.548670
      34A     -0.534312    35A     -0.498606    36A     -0.494395
      37A     -0.450693    38A     -0.392287    39A     -0.367370
      40A     -0.331291    41A     -0.318850

  @DF-RHF Final Energy:  -602.95128682200516

   => Energetics <=

    Nuclear Repulsion Energy =            524.0543713942764725
    One-Electron Energy =               -1970.9909025884544462
    Two-Electron Energy =                 843.9852443721727013
    Total Energy =                       -602.9512868220051587
  Basis Set: (AUG-CC-PVTZ AUX)
    Blend: AUG-CC-PVTZ-RI + DEF2-QZVPP-RI
    Molecular point group: c1

    Geometry (in Angstrom), charge = 0, multiplicity = 1:

       Center              X                  Y                   Z               Mass
    ------------   -----------------  -----------------  -----------------  -----------------
         I           -1.776141584035    -0.000162149672     0.001404737918   126.904471900000
         C            2.419372415965    -1.224586149672    -0.013282262082    12.000000000000
         C            2.419379415965     1.224261850328    -0.013755262082    12.000000000000
         C            3.101532415965    -0.000158149672    -0.020294262082    12.000000000000
         C            1.016842415965    -1.218811149672    -0.004042262082    12.000000000000
         C            1.016837415965     1.218489850328    -0.004516262082    12.000000000000
         C            0.332320415965    -0.000155149672     0.001358737918    12.000000000000
         C            3.174842415965    -2.529962149672     0.016162737918    12.000000000000
         C            3.174791415965     2.529682850328     0.015187737918    12.000000000000
         H            4.191198415965    -0.000165149672    -0.033960262082     1.007825032230
         H            0.467547415965    -2.157066149672    -0.005274262082     1.007825032230
         H            0.467547415965     2.156748850328    -0.006114262082     1.007825032230
         H            4.139116415965    -2.438250149672    -0.489578262082     1.007825032230
         H            2.608513415965    -3.326314149672    -0.472556262082     1.007825032230
         H            3.367827415965    -2.843232149672     1.047252737918     1.007825032230
         H            2.583240015965     3.361856950328    -0.497715962082     1.007825032230
         H            3.366314415965     2.844194850328     1.046171737918     1.007825032230
         H            4.139768415965     2.437387850328    -0.489095262082     1.007825032230

  Basis Set: AUG-CC-PVTZ
    Blend: AUG-CC-PVTZ
  Basis Set: (AUG-CC-PVTZ AUX)
    Blend: AUG-CC-PVTZ-JKFIT + DEF2-UNIVERSAL-JKFIT
	 Reference Energy          =    -602.9512868220051587 [Eh]
	 Singles Energy            =      -0.0000000000000000 [Eh]
	 Same-Spin Energy          =      -0.4258852507208586 [Eh]
	 Opposite-Spin Energy      =      -1.3004438593976846 [Eh]
	 Correlation Energy        =      -1.7263291101185432 [Eh]
	 Total Energy              =    -604.6776159321236719 [Eh]

	 ================> DF-SCS-MP2 Energies <==================
	-----------------------------------------------------------
	 SCS Same-Spin Scale       =       0.3333333333333333 [-]
	 SCS Opposite-Spin Scale   =       1.2000000000000000 [-]
	 SCS Same-Spin Energy      =      -0.1419617502402862 [Eh]
	 SCS Opposite-Spin Energy  =      -1.5605326312772214 [Eh]
	 SCS Correlation Energy    =      -1.7024943815175075 [Eh]
	 SCS Total Energy          =    -604.6537812035226125 [Eh]
	-----------------------------------------------------------

  Dipole Moment: [D]
     X:     2.2027      Y:    -0.0278      Z:     0.0875     Total:     2.2046

*** Psi4 exiting successfully. Buy a developer a beer!
