                               Psi4 1.4a3.dev225

  ==> Input File <==

--------------------------------------------------------------------------
#psi4
#
memory 32 gb

molecule  {
0 1
  I       -2.0593870    -0.0000050     0.0008870
  C        2.1361270    -1.2244290    -0.0138000
  C        2.1361340     1.2244190    -0.0142730
  C        2.8182870    -0.0000010    -0.0208120
  C        0.7335970    -1.2186540    -0.0045600
  C        0.7335920     1.2186470    -0.0050340
  C        0.0490750     0.0000020     0.0008410
  C        2.8415165    -2.4432710     0.0136931
  C        2.8915460     2.5298400     0.0146700
  H        3.9079530    -0.0000080    -0.0344780
  H        0.1843020    -2.1569090    -0.0057920
  H        0.1843020     2.1569060    -0.0066320
  H        3.8558710    -2.4380930    -0.4900960
  H        2.3252680    -3.3261570    -0.4730740
  H        3.0845820    -2.8430750     1.0467350
  H        2.3258810     3.3255980    -0.4757890
  H        3.0830690     2.8443520     1.0456540
  H        3.8565230     2.4375450    -0.4896130
units angstrom
no_reorient  #important for SAPT in psi4, default
symmetry c1  #important for SAPT in psi4, default
}

set PROPERTIES_ORIGIN ["COM"]
properties('MP2/aug-cc-pvtz', properties = ['dipole'])
--------------------------------------------------------------------------

    Molecular point group: c1
  Charge       = 0
  Multiplicity = 1
  Basis Set: AUG-CC-PVTZ
    Blend: AUG-CC-PVTZ
  Basis Set: (AUG-CC-PVTZ AUX)
    Blend: AUG-CC-PVTZ-JKFIT + DEF2-UNIVERSAL-JKFIT

    Orbital Energies [Eh]
    ---------------------

    Doubly Occupied:

       1A    -11.290719     2A    -11.255953     3A    -11.250633
       4A    -11.242964     5A    -11.242833     6A    -11.237017
       7A    -11.236214     8A    -11.232226     9A     -7.717513
      10A     -5.549215    11A     -5.539635    12A     -5.539601
      13A     -2.278884    14A     -2.273936    15A     -2.273929
      16A     -2.263270    17A     -2.263264    18A     -1.171622
      19A     -1.077352    20A     -1.049674    21A     -0.948956
      22A     -0.937733    23A     -0.895970    24A     -0.793685
      25A     -0.787748    26A     -0.688935    27A     -0.662517
      28A     -0.614956    29A     -0.588237    30A     -0.578159
      31A     -0.569492    32A     -0.556875    33A     -0.547639
      34A     -0.524778    35A     -0.499419    36A     -0.494039
      37A     -0.451024    38A     -0.391301    39A     -0.367564
      40A     -0.329434    41A     -0.318583

  @DF-RHF Final Energy:  -602.94123869863688

   => Energetics <=

    Nuclear Repulsion Energy =            526.1241796051183428
    One-Electron Energy =               -1975.0638425681966055
    Two-Electron Energy =                 845.9984242644413825
    Total Energy =                       -602.9412386986368801
  Basis Set: (AUG-CC-PVTZ AUX)
    Blend: AUG-CC-PVTZ-RI + DEF2-QZVPP-RI
    Molecular point group: c1

    Geometry (in Angstrom), charge = 0, multiplicity = 1:

       Center              X                  Y                   Z               Mass
    ------------   -----------------  -----------------  -----------------  -----------------
         I           -1.773663397624    -0.004480319245     0.001408197212   126.904471900000
         C            2.421850602376    -1.228904319245    -0.013278802788    12.000000000000
         C            2.421857602376     1.219943680755    -0.013751802788    12.000000000000
         C            3.104010602376    -0.004476319245    -0.020290802788    12.000000000000
         C            1.019320602376    -1.223129319245    -0.004038802788    12.000000000000
         C            1.019315602376     1.214171680755    -0.004512802788    12.000000000000
         C            0.334798602376    -0.004473319245     0.001362197212    12.000000000000
         C            3.127240102376    -2.447746319245     0.014214297212    12.000000000000
         C            3.177269602376     2.525364680755     0.015191197212    12.000000000000
         H            4.193676602376    -0.004483319245    -0.033956802788     1.007825032230
         H            0.470025602376    -2.161384319245    -0.005270802788     1.007825032230
         H            0.470025602376     2.152430680755    -0.006110802788     1.007825032230
         H            4.141594602376    -2.442568319245    -0.489574802788     1.007825032230
         H            2.610991602376    -3.330632319245    -0.472552802788     1.007825032230
         H            3.370305602376    -2.847550319245     1.047256197212     1.007825032230
         H            2.611604602376     3.321122680755    -0.475267802788     1.007825032230
         H            3.368792602376     2.839876680755     1.046175197212     1.007825032230
         H            4.142246602376     2.433069680755    -0.489091802788     1.007825032230

  Basis Set: AUG-CC-PVTZ
    Blend: AUG-CC-PVTZ
  Basis Set: (AUG-CC-PVTZ AUX)
    Blend: AUG-CC-PVTZ-JKFIT + DEF2-UNIVERSAL-JKFIT
	 Reference Energy          =    -602.9412386986368801 [Eh]
	 Singles Energy            =      -0.0000000000000000 [Eh]
	 Same-Spin Energy          =      -0.4271518674243900 [Eh]
	 Opposite-Spin Energy      =      -1.3015925625369187 [Eh]
	 Correlation Energy        =      -1.7287444299613086 [Eh]
	 Total Energy              =    -604.6699831285982327 [Eh]

	 ================> DF-SCS-MP2 Energies <==================
	-----------------------------------------------------------
	 SCS Same-Spin Scale       =       0.3333333333333333 [-]
	 SCS Opposite-Spin Scale   =       1.2000000000000000 [-]
	 SCS Same-Spin Energy      =      -0.1423839558081300 [Eh]
	 SCS Opposite-Spin Energy  =      -1.5619110750443024 [Eh]
	 SCS Correlation Energy    =      -1.7042950308524323 [Eh]
	 SCS Total Energy          =    -604.6455337294893297 [Eh]
	-----------------------------------------------------------

  Dipole Moment: [D]
     X:     2.1963      Y:    -0.0010      Z:     0.0840     Total:     2.1979

*** Psi4 exiting successfully. Buy a developer a beer!
