                               Psi4 1.4a3.dev225

  ==> Input File <==

--------------------------------------------------------------------------
#psi4
#
memory 32 gb

molecule  {
0 1
  I       -2.0593870    -0.0000050     0.0008870
  C        2.2171594    -1.1829729    -0.0667309
  C        2.1361340     1.2244190    -0.0142730
  C        2.8182870    -0.0000010    -0.0208120
  C        0.7335970    -1.2186540    -0.0045600
  C        0.7335920     1.2186470    -0.0050340
  C        0.0490750     0.0000020     0.0008410
  C        2.8915970    -2.5298050     0.0156450
  C        2.8915460     2.5298400     0.0146700
  H        3.9079530    -0.0000080    -0.0344780
  H        0.1843020    -2.1569090    -0.0057920
  H        0.1843020     2.1569060    -0.0066320
  H        3.8558710    -2.4380930    -0.4900960
  H        2.3252680    -3.3261570    -0.4730740
  H        3.0845820    -2.8430750     1.0467350
  H        2.3258810     3.3255980    -0.4757890
  H        3.0830690     2.8443520     1.0456540
  H        3.8565230     2.4375450    -0.4896130
units angstrom
no_reorient  #important for SAPT in psi4, default
symmetry c1  #important for SAPT in psi4, default
}

set PROPERTIES_ORIGIN ["COM"]
properties('MP2/aug-cc-pvtz', properties = ['dipole'])
--------------------------------------------------------------------------

    Molecular point group: c1
  Charge       = 0
  Multiplicity = 1
  Basis Set: AUG-CC-PVTZ
    Blend: AUG-CC-PVTZ
  Basis Set: (AUG-CC-PVTZ AUX)
    Blend: AUG-CC-PVTZ-JKFIT + DEF2-UNIVERSAL-JKFIT

    Orbital Energies [Eh]
    ---------------------

    Doubly Occupied:

       1A    -11.289664     2A    -11.257031     3A    -11.255475
       4A    -11.249865     5A    -11.242105     6A    -11.232744
       7A    -11.232568     8A    -11.229702     9A     -7.716535
      10A     -5.548215    11A     -5.538684    12A     -5.538625
      13A     -2.277881    14A     -2.272957    15A     -2.272931
      16A     -2.262327    17A     -2.262320    18A     -1.168318
      19A     -1.064688    20A     -1.050650    21A     -0.955586
      22A     -0.934411    23A     -0.893484    24A     -0.802814
      25A     -0.778301    26A     -0.688685    27A     -0.658713
      28A     -0.601094    29A     -0.590662    30A     -0.577941
      31A     -0.569617    32A     -0.560000    33A     -0.546468
      34A     -0.532777    35A     -0.505703    36A     -0.497427
      37A     -0.441852    38A     -0.397135    39A     -0.366591
      40A     -0.329439    41A     -0.318679

  @DF-RHF Final Energy:  -602.94231328879289

   => Energetics <=

    Nuclear Repulsion Energy =            524.0456332819301224
    One-Electron Energy =               -1970.9545601829076986
    Two-Electron Energy =                 843.9666136121846876
    Total Energy =                       -602.9423132887928887
  Basis Set: (AUG-CC-PVTZ AUX)
    Blend: AUG-CC-PVTZ-RI + DEF2-QZVPP-RI
    Molecular point group: c1

    Geometry (in Angstrom), charge = 0, multiplicity = 1:

       Center              X                  Y                   Z               Mass
    ------------   -----------------  -----------------  -----------------  -----------------
         I           -1.780445833219    -0.002148451416     0.004045327382   126.904471900000
         C            2.496100566781    -1.185116351416    -0.063572572618    12.000000000000
         C            2.415075166781     1.222275548584    -0.011114672618    12.000000000000
         C            3.097228166781    -0.002144451416    -0.017653672618    12.000000000000
         C            1.012538166781    -1.220797451416    -0.001401672618    12.000000000000
         C            1.012533166781     1.216503548584    -0.001875672618    12.000000000000
         C            0.328016166781    -0.002141451416     0.003999327382    12.000000000000
         C            3.170538166781    -2.531948451416     0.018803327382    12.000000000000
         C            3.170487166781     2.527696548584     0.017828327382    12.000000000000
         H            4.186894166781    -0.002151451416    -0.031319672618     1.007825032230
         H            0.463243166781    -2.159052451416    -0.002633672618     1.007825032230
         H            0.463243166781     2.154762548584    -0.003473672618     1.007825032230
         H            4.134812166781    -2.440236451416    -0.486937672618     1.007825032230
         H            2.604209166781    -3.328300451416    -0.469915672618     1.007825032230
         H            3.363523166781    -2.845218451416     1.049893327382     1.007825032230
         H            2.604822166781     3.323454548584    -0.472630672618     1.007825032230
         H            3.362010166781     2.842208548584     1.048812327382     1.007825032230
         H            4.135464166781     2.435401548584    -0.486454672618     1.007825032230

  Basis Set: AUG-CC-PVTZ
    Blend: AUG-CC-PVTZ
  Basis Set: (AUG-CC-PVTZ AUX)
    Blend: AUG-CC-PVTZ-JKFIT + DEF2-UNIVERSAL-JKFIT
	 Reference Energy          =    -602.9423132887928887 [Eh]
	 Singles Energy            =      -0.0000000000000000 [Eh]
	 Same-Spin Energy          =      -0.4257212835738159 [Eh]
	 Opposite-Spin Energy      =      -1.3006373207659285 [Eh]
	 Correlation Energy        =      -1.7263586043397445 [Eh]
	 Total Energy              =    -604.6686718931326823 [Eh]

	 ================> DF-SCS-MP2 Energies <==================
	-----------------------------------------------------------
	 SCS Same-Spin Scale       =       0.3333333333333333 [-]
	 SCS Opposite-Spin Scale   =       1.2000000000000000 [-]
	 SCS Same-Spin Energy      =      -0.1419070945246053 [Eh]
	 SCS Opposite-Spin Energy  =      -1.5607647849191142 [Eh]
	 SCS Correlation Energy    =      -1.7026718794437194 [Eh]
	 SCS Total Energy          =    -604.6449851682366443 [Eh]
	-----------------------------------------------------------

  Dipole Moment: [D]
     X:     2.2201      Y:     0.0044      Z:     0.0971     Total:     2.2223

*** Psi4 exiting successfully. Buy a developer a beer!
