                               Psi4 1.4a3.dev225

  ==> Input File <==

--------------------------------------------------------------------------
#psi4
#
memory 32 gb

molecule  {
0 1
  I       -2.0593870    -0.0000050     0.0008870
  C        2.1361270    -1.2244290    -0.0138000
  C        2.1361340     1.2244190    -0.0142730
  C        2.8182870    -0.0000010    -0.0208120
  C        0.7335970    -1.2186540    -0.0045600
  C        0.7335920     1.2186470    -0.0050340
  C        0.0490750     0.0000020     0.0008410
  C        2.8915970    -2.5298050     0.0156450
  C        2.8915460     2.5298400     0.0146700
  H        3.9079530    -0.0000080    -0.0344780
  H        0.1843020    -2.1569090    -0.0057920
  H        0.1843020     2.1569060    -0.0066320
  H        3.8730938    -2.4485820    -0.4577220
  H        2.3252680    -3.3261570    -0.4730740
  H        3.0845820    -2.8430750     1.0467350
  H        2.3258810     3.3255980    -0.4757890
  H        3.0830690     2.8443520     1.0456540
  H        3.8565230     2.4375450    -0.4896130
units angstrom
no_reorient  #important for SAPT in psi4, default
symmetry c1  #important for SAPT in psi4, default
}

set PROPERTIES_ORIGIN ["COM"]
properties('MP2/aug-cc-pvtz', properties = ['dipole'])
--------------------------------------------------------------------------

    Molecular point group: c1
  Charge       = 0
  Multiplicity = 1
  Basis Set: AUG-CC-PVTZ
    Blend: AUG-CC-PVTZ
  Basis Set: (AUG-CC-PVTZ AUX)
    Blend: AUG-CC-PVTZ-JKFIT + DEF2-UNIVERSAL-JKFIT

    Orbital Energies [Eh]
    ---------------------

    Doubly Occupied:

       1A    -11.290470     2A    -11.255938     3A    -11.255660
       4A    -11.242741     5A    -11.242621     6A    -11.236850
       7A    -11.232001     8A    -11.232000     9A     -7.717289
      10A     -5.548989    11A     -5.539414    12A     -5.539378
      13A     -2.278657    14A     -2.273710    15A     -2.273704
      16A     -2.263050    17A     -2.263043    18A     -1.167604
      19A     -1.066940    20A     -1.046859    21A     -0.949419
      22A     -0.939005    23A     -0.895312    24A     -0.794143
      25A     -0.787117    26A     -0.688535    27A     -0.660112
      28A     -0.595123    29A     -0.588633    30A     -0.577008
      31A     -0.572848    32A     -0.560658    33A     -0.549395
      34A     -0.538274    35A     -0.498391    36A     -0.494895
      37A     -0.450788    38A     -0.392144    39A     -0.367350
      40A     -0.331175    41A     -0.318714

  @DF-RHF Final Energy:  -602.95325670286047

   => Energetics <=

    Nuclear Repulsion Energy =            524.2307102151437448
    One-Electron Energy =               -1971.3360263857955488
    Two-Electron Energy =                 844.1520594677913323
    Total Energy =                       -602.9532567028604717
  Basis Set: (AUG-CC-PVTZ AUX)
    Blend: AUG-CC-PVTZ-RI + DEF2-QZVPP-RI
    Molecular point group: c1

    Geometry (in Angstrom), charge = 0, multiplicity = 1:

       Center              X                  Y                   Z               Mass
    ------------   -----------------  -----------------  -----------------  -----------------
         I           -1.776328873830     0.000041631576     0.001166575691   126.904471900000
         C            2.419185126170    -1.224382368424    -0.013520424309    12.000000000000
         C            2.419192126170     1.224465631576    -0.013993424309    12.000000000000
         C            3.101345126170     0.000045631576    -0.020532424309    12.000000000000
         C            1.016655126170    -1.218607368424    -0.004280424309    12.000000000000
         C            1.016650126170     1.218693631576    -0.004754424309    12.000000000000
         C            0.332133126170     0.000048631576     0.001120575691    12.000000000000
         C            3.174655126170    -2.529758368424     0.015924575691    12.000000000000
         C            3.174604126170     2.529886631576     0.014949575691    12.000000000000
         H            4.191011126170     0.000038631576    -0.034198424309     1.007825032230
         H            0.467360126170    -2.156862368424    -0.005512424309     1.007825032230
         H            0.467360126170     2.156952631576    -0.006352424309     1.007825032230
         H            4.156151926170    -2.448535368424    -0.457442424309     1.007825032230
         H            2.608326126170    -3.326110368424    -0.472794424309     1.007825032230
         H            3.367640126170    -2.843028368424     1.047014575691     1.007825032230
         H            2.608939126170     3.325644631576    -0.475509424309     1.007825032230
         H            3.366127126170     2.844398631576     1.045933575691     1.007825032230
         H            4.139581126170     2.437591631576    -0.489333424309     1.007825032230

  Basis Set: AUG-CC-PVTZ
    Blend: AUG-CC-PVTZ
  Basis Set: (AUG-CC-PVTZ AUX)
    Blend: AUG-CC-PVTZ-JKFIT + DEF2-UNIVERSAL-JKFIT
	 Reference Energy          =    -602.9532567028604717 [Eh]
	 Singles Energy            =      -0.0000000000000000 [Eh]
	 Same-Spin Energy          =      -0.4258723883492598 [Eh]
	 Opposite-Spin Energy      =      -1.3000679093781859 [Eh]
	 Correlation Energy        =      -1.7259402977274458 [Eh]
	 Total Energy              =    -604.6791970005879193 [Eh]

	 ================> DF-SCS-MP2 Energies <==================
	-----------------------------------------------------------
	 SCS Same-Spin Scale       =       0.3333333333333333 [-]
	 SCS Opposite-Spin Scale   =       1.2000000000000000 [-]
	 SCS Same-Spin Energy      =      -0.1419574627830866 [Eh]
	 SCS Opposite-Spin Energy  =      -1.5600814912538230 [Eh]
	 SCS Correlation Energy    =      -1.7020389540369096 [Eh]
	 SCS Total Energy          =    -604.6552956568973514 [Eh]
	-----------------------------------------------------------

  Dipole Moment: [D]
     X:     2.2079      Y:    -0.0002      Z:     0.0888     Total:     2.2097

*** Psi4 exiting successfully. Buy a developer a beer!
