                               Psi4 1.4a3.dev225

  ==> Input File <==

--------------------------------------------------------------------------
#psi4
#
memory 32 gb

molecule  {
0 1
  I       -2.0593870    -0.0000050     0.0008870
  C        2.1361270    -1.2244290    -0.0138000
  C        2.1361340     1.2244190    -0.0142730
  C        2.8182870    -0.0000010    -0.0208120
  C        0.7335970    -1.2186540    -0.0045600
  C        0.7335920     1.2186470    -0.0050340
  C        0.0245885     0.0435953     0.0010342
  C        2.8915970    -2.5298050     0.0156450
  C        2.8915460     2.5298400     0.0146700
  H        3.9079530    -0.0000080    -0.0344780
  H        0.1843020    -2.1569090    -0.0057920
  H        0.1843020     2.1569060    -0.0066320
  H        3.8558710    -2.4380930    -0.4900960
  H        2.3252680    -3.3261570    -0.4730740
  H        3.0845820    -2.8430750     1.0467350
  H        2.3258810     3.3255980    -0.4757890
  H        3.0830690     2.8443520     1.0456540
  H        3.8565230     2.4375450    -0.4896130
units angstrom
no_reorient  #important for SAPT in psi4, default
symmetry c1  #important for SAPT in psi4, default
}

set PROPERTIES_ORIGIN ["COM"]
properties('MP2/aug-cc-pvtz', properties = ['dipole'])
--------------------------------------------------------------------------

    Molecular point group: c1
  Charge       = 0
  Multiplicity = 1
  Basis Set: AUG-CC-PVTZ
    Blend: AUG-CC-PVTZ
  Basis Set: (AUG-CC-PVTZ AUX)
    Blend: AUG-CC-PVTZ-JKFIT + DEF2-UNIVERSAL-JKFIT

    Orbital Energies [Eh]
    ---------------------

    Doubly Occupied:

       1A    -11.290371     2A    -11.255386     3A    -11.254478
       4A    -11.246228     5A    -11.239929     6A    -11.236701
       7A    -11.231831     8A    -11.231357     9A     -7.719162
      10A     -5.550944    11A     -5.541268    12A     -5.541249
      13A     -2.280782    14A     -2.275667    15A     -2.275636
      16A     -2.264904    17A     -2.264897    18A     -1.165036
      19A     -1.066320    20A     -1.045980    21A     -0.949102
      22A     -0.936356    23A     -0.898358    24A     -0.795066
      25A     -0.783826    26A     -0.686808    27A     -0.657634
      28A     -0.594678    29A     -0.588850    30A     -0.576970
      31A     -0.570964    32A     -0.559539    33A     -0.549279
      34A     -0.536163    35A     -0.496910    36A     -0.493231
      37A     -0.455321    38A     -0.394091    39A     -0.368484
      40A     -0.331494    41A     -0.315583

  @DF-RHF Final Energy:  -602.95019844792114

   => Energetics <=

    Nuclear Repulsion Energy =            524.2070372565713114
    One-Electron Energy =               -1971.2807987198752926
    Two-Electron Energy =                 844.1235630153828424
    Total Energy =                       -602.9501984479211387
  Basis Set: (AUG-CC-PVTZ AUX)
    Blend: AUG-CC-PVTZ-RI + DEF2-QZVPP-RI
    Molecular point group: c1

    Geometry (in Angstrom), charge = 0, multiplicity = 1:

       Center              X                  Y                   Z               Mass
    ------------   -----------------  -----------------  -----------------  -----------------
         I           -1.774987368466    -0.002259008206     0.001297231758   126.904471900000
         C            2.420526631534    -1.226683008206    -0.013389768242    12.000000000000
         C            2.420533631534     1.222164991794    -0.013862768242    12.000000000000
         C            3.102686631534    -0.002255008206    -0.020401768242    12.000000000000
         C            1.017996631534    -1.220908008206    -0.004149768242    12.000000000000
         C            1.017991631534     1.216392991794    -0.004623768242    12.000000000000
         C            0.308988131534     0.041341291794     0.001444431758    12.000000000000
         C            3.175996631534    -2.532059008206     0.016055231758    12.000000000000
         C            3.175945631534     2.527585991794     0.015080231758    12.000000000000
         H            4.192352631534    -0.002262008206    -0.034067768242     1.007825032230
         H            0.468701631534    -2.159163008206    -0.005381768242     1.007825032230
         H            0.468701631534     2.154651991794    -0.006221768242     1.007825032230
         H            4.140270631534    -2.440347008206    -0.489685768242     1.007825032230
         H            2.609667631534    -3.328411008206    -0.472663768242     1.007825032230
         H            3.368981631534    -2.845329008206     1.047145231758     1.007825032230
         H            2.610280631534     3.323343991794    -0.475378768242     1.007825032230
         H            3.367468631534     2.842097991794     1.046064231758     1.007825032230
         H            4.140922631534     2.435290991794    -0.489202768242     1.007825032230

  Basis Set: AUG-CC-PVTZ
    Blend: AUG-CC-PVTZ
  Basis Set: (AUG-CC-PVTZ AUX)
    Blend: AUG-CC-PVTZ-JKFIT + DEF2-UNIVERSAL-JKFIT
	 Reference Energy          =    -602.9501984479211387 [Eh]
	 Singles Energy            =      -0.0000000000000000 [Eh]
	 Same-Spin Energy          =      -0.4260145470291236 [Eh]
	 Opposite-Spin Energy      =      -1.3006839917395112 [Eh]
	 Correlation Energy        =      -1.7266985387686349 [Eh]
	 Total Energy              =    -604.6768969866898260 [Eh]

	 ================> DF-SCS-MP2 Energies <==================
	-----------------------------------------------------------
	 SCS Same-Spin Scale       =       0.3333333333333333 [-]
	 SCS Opposite-Spin Scale   =       1.2000000000000000 [-]
	 SCS Same-Spin Energy      =      -0.1420048490097078 [Eh]
	 SCS Opposite-Spin Energy  =      -1.5608207900874134 [Eh]
	 SCS Correlation Energy    =      -1.7028256390971213 [Eh]
	 SCS Total Energy          =    -604.6530240870182524 [Eh]
	-----------------------------------------------------------

  Dipole Moment: [D]
     X:     2.0920      Y:    -0.0079      Z:     0.0785     Total:     2.0935

*** Psi4 exiting successfully. Buy a developer a beer!
