                               Psi4 1.4a3.dev225

  ==> Input File <==

--------------------------------------------------------------------------
#psi4
#
memory 32 gb

molecule  {
0 1
  I       -2.0593870    -0.0000050     0.0008870
  C        2.1361270    -1.2244290    -0.0138000
  C        2.1361340     1.2244190    -0.0142730
  C        2.8182870    -0.0000010    -0.0208120
  C        0.7335970    -1.2186540    -0.0045600
  C        0.7335920     1.2186470    -0.0050340
  C        0.0490750     0.0000020     0.0008410
  C        2.8915970    -2.5298050     0.0156450
  C        2.8915460     2.5298400     0.0146700
  H        3.9079530    -0.0000080    -0.0344780
  H        0.1843020    -2.1569090    -0.0057920
  H        0.1843020     2.1569060    -0.0066320
  H        3.8558710    -2.4380930    -0.4900960
  H        2.3252680    -3.3261570    -0.4730740
  H        3.0845820    -2.8430750     1.0467350
  H        2.3258810     3.3255980    -0.4757890
  H        3.0830690     2.8443520     1.0456540
  H        3.9448340     2.4290985    -0.5357630
units angstrom
no_reorient  #important for SAPT in psi4, default
symmetry c1  #important for SAPT in psi4, default
}

set PROPERTIES_ORIGIN ["COM"]
properties('MP2/aug-cc-pvtz', properties = ['dipole'])
--------------------------------------------------------------------------

    Molecular point group: c1
  Charge       = 0
  Multiplicity = 1
  Basis Set: AUG-CC-PVTZ
    Blend: AUG-CC-PVTZ
  Basis Set: (AUG-CC-PVTZ AUX)
    Blend: AUG-CC-PVTZ-JKFIT + DEF2-UNIVERSAL-JKFIT

    Orbital Energies [Eh]
    ---------------------

    Doubly Occupied:

       1A    -11.290790     2A    -11.256569     3A    -11.255839
       4A    -11.243717     5A    -11.243410     6A    -11.243005
       7A    -11.237032     8A    -11.232129     9A     -7.717564
      10A     -5.549268    11A     -5.539688    12A     -5.539651
      13A     -2.278936    14A     -2.273987    15A     -2.273982
      16A     -2.263321    17A     -2.263314    18A     -1.167867
      19A     -1.066416    20A     -1.046448    21A     -0.947381
      22A     -0.935681    23A     -0.895515    24A     -0.793386
      25A     -0.785851    26A     -0.688722    27A     -0.658862
      28A     -0.594929    29A     -0.589249    30A     -0.577987
      31A     -0.572824    32A     -0.555275    33A     -0.548112
      34A     -0.527494    35A     -0.498301    36A     -0.495572
      37A     -0.450621    38A     -0.392333    39A     -0.367612
      40A     -0.331643    41A     -0.318903

  @DF-RHF Final Energy:  -602.94686349802907

   => Energetics <=

    Nuclear Repulsion Energy =            523.8443244408714463
    One-Electron Energy =               -1970.5639926496592125
    Two-Electron Energy =                 843.7728047107588054
    Total Energy =                       -602.9468634980290744
  Basis Set: (AUG-CC-PVTZ AUX)
    Blend: AUG-CC-PVTZ-RI + DEF2-QZVPP-RI
    Molecular point group: c1

    Geometry (in Angstrom), charge = 0, multiplicity = 1:

       Center              X                  Y                   Z               Mass
    ------------   -----------------  -----------------  -----------------  -----------------
         I           -1.776637719607     0.000032757845     0.001507726625   126.904471900000
         C            2.418876280393    -1.224391242155    -0.013179273375    12.000000000000
         C            2.418883280393     1.224456757845    -0.013652273375    12.000000000000
         C            3.101036280393     0.000036757845    -0.020191273375    12.000000000000
         C            1.016346280393    -1.218616242155    -0.003939273375    12.000000000000
         C            1.016341280393     1.218684757845    -0.004413273375    12.000000000000
         C            0.331824280393     0.000039757845     0.001461726625    12.000000000000
         C            3.174346280393    -2.529767242155     0.016265726625    12.000000000000
         C            3.174295280393     2.529877757845     0.015290726625    12.000000000000
         H            4.190702280393     0.000029757845    -0.033857273375     1.007825032230
         H            0.467051280393    -2.156871242155    -0.005171273375     1.007825032230
         H            0.467051280393     2.156943757845    -0.006011273375     1.007825032230
         H            4.138620280393    -2.438055242155    -0.489475273375     1.007825032230
         H            2.608017280393    -3.326119242155    -0.472453273375     1.007825032230
         H            3.367331280393    -2.843037242155     1.047355726625     1.007825032230
         H            2.608630280393     3.325635757845    -0.475168273375     1.007825032230
         H            3.365818280393     2.844389757845     1.046274726625     1.007825032230
         H            4.227583280393     2.429136257845    -0.535142273375     1.007825032230

  Basis Set: AUG-CC-PVTZ
    Blend: AUG-CC-PVTZ
  Basis Set: (AUG-CC-PVTZ AUX)
    Blend: AUG-CC-PVTZ-JKFIT + DEF2-UNIVERSAL-JKFIT
	 Reference Energy          =    -602.9468634980290744 [Eh]
	 Singles Energy            =      -0.0000000000000000 [Eh]
	 Same-Spin Energy          =      -0.4258987721054371 [Eh]
	 Opposite-Spin Energy      =      -1.3008444868859983 [Eh]
	 Correlation Energy        =      -1.7267432589914353 [Eh]
	 Total Energy              =    -604.6736067570204796 [Eh]

	 ================> DF-SCS-MP2 Energies <==================
	-----------------------------------------------------------
	 SCS Same-Spin Scale       =       0.3333333333333333 [-]
	 SCS Opposite-Spin Scale   =       1.2000000000000000 [-]
	 SCS Same-Spin Energy      =      -0.1419662573684790 [Eh]
	 SCS Opposite-Spin Energy  =      -1.5610133842631979 [Eh]
	 SCS Correlation Energy    =      -1.7029796416316769 [Eh]
	 SCS Total Energy          =    -604.6498431396607884 [Eh]
	-----------------------------------------------------------

  Dipole Moment: [D]
     X:     2.1402      Y:    -0.0245      Z:     0.0986     Total:     2.1426

*** Psi4 exiting successfully. Buy a developer a beer!
