                               Psi4 1.4a3.dev225

  ==> Input File <==

--------------------------------------------------------------------------
#psi4
#
memory 32 gb

molecule  {
0 1
  I       -2.0593870    -0.0000050     0.0008870
  C        2.2231964    -1.2690339    -0.0146562
  C        2.1361340     1.2244190    -0.0142730
  C        2.8182870    -0.0000010    -0.0208120
  C        0.7335970    -1.2186540    -0.0045600
  C        0.7335920     1.2186470    -0.0050340
  C        0.0490750     0.0000020     0.0008410
  C        2.8915970    -2.5298050     0.0156450
  C        2.8915460     2.5298400     0.0146700
  H        3.9079530    -0.0000080    -0.0344780
  H        0.1843020    -2.1569090    -0.0057920
  H        0.1843020     2.1569060    -0.0066320
  H        3.8558710    -2.4380930    -0.4900960
  H        2.3252680    -3.3261570    -0.4730740
  H        3.0845820    -2.8430750     1.0467350
  H        2.3258810     3.3255980    -0.4757890
  H        3.0830690     2.8443520     1.0456540
  H        3.8565230     2.4375450    -0.4896130
units angstrom
no_reorient  #important for SAPT in psi4, default
symmetry c1  #important for SAPT in psi4, default
}

set PROPERTIES_ORIGIN ["COM"]
properties('MP2/aug-cc-pvtz', properties = ['dipole'])
--------------------------------------------------------------------------

    Molecular point group: c1
  Charge       = 0
  Multiplicity = 1
  Basis Set: AUG-CC-PVTZ
    Blend: AUG-CC-PVTZ
  Basis Set: (AUG-CC-PVTZ AUX)
    Blend: AUG-CC-PVTZ-JKFIT + DEF2-UNIVERSAL-JKFIT

    Orbital Energies [Eh]
    ---------------------

    Doubly Occupied:

       1A    -11.289253     2A    -11.262116     3A    -11.256017
       4A    -11.249874     5A    -11.242044     6A    -11.237318
       7A    -11.232012     8A    -11.230872     9A     -7.716737
      10A     -5.548469    11A     -5.538858    12A     -5.538793
      13A     -2.278137    14A     -2.273182    15A     -2.273159
      16A     -2.262461    17A     -2.262454    18A     -1.162110
      19A     -1.074065    20A     -1.047965    21A     -0.955020
      22A     -0.935857    23A     -0.891760    24A     -0.797092
      25A     -0.780615    26A     -0.683810    27A     -0.658757
      28A     -0.611851    29A     -0.595580    30A     -0.580109
      31A     -0.570840    32A     -0.562315    33A     -0.542613
      34A     -0.530127    35A     -0.508798    36A     -0.493629
      37A     -0.443517    38A     -0.391528    39A     -0.366626
      40A     -0.321393    41A     -0.319268

  @DF-RHF Final Energy:  -602.93953614628083

   => Energetics <=

    Nuclear Repulsion Energy =            523.2253348083946776
    One-Electron Energy =               -1969.2957409751154501
    Two-Electron Energy =                 843.1308700204398292
    Total Energy =                       -602.9395361462808296
  Basis Set: (AUG-CC-PVTZ AUX)
    Blend: AUG-CC-PVTZ-RI + DEF2-QZVPP-RI
    Molecular point group: c1

    Geometry (in Angstrom), charge = 0, multiplicity = 1:

       Center              X                  Y                   Z               Mass
    ------------   -----------------  -----------------  -----------------  -----------------
         I           -1.780758125630     0.002303461323     0.001351516942   126.904471900000
         C            2.501825274370    -1.266725438677    -0.014191683058    12.000000000000
         C            2.414762874370     1.226727461323    -0.013808483058    12.000000000000
         C            3.096915874370     0.002307461323    -0.020347483058    12.000000000000
         C            1.012225874370    -1.216345538677    -0.004095483058    12.000000000000
         C            1.012220874370     1.220955461323    -0.004569483058    12.000000000000
         C            0.327703874370     0.002310461323     0.001305516942    12.000000000000
         C            3.170225874370    -2.527496538677     0.016109516942    12.000000000000
         C            3.170174874370     2.532148461323     0.015134516942    12.000000000000
         H            4.186581874370     0.002300461323    -0.034013483058     1.007825032230
         H            0.462930874370    -2.154600538677    -0.005327483058     1.007825032230
         H            0.462930874370     2.159214461323    -0.006167483058     1.007825032230
         H            4.134499874370    -2.435784538677    -0.489631483058     1.007825032230
         H            2.603896874370    -3.323848538677    -0.472609483058     1.007825032230
         H            3.363210874370    -2.840766538677     1.047199516942     1.007825032230
         H            2.604509874370     3.327906461323    -0.475324483058     1.007825032230
         H            3.361697874370     2.846660461323     1.046118516942     1.007825032230
         H            4.135151874370     2.439853461323    -0.489148483058     1.007825032230

  Basis Set: AUG-CC-PVTZ
    Blend: AUG-CC-PVTZ
  Basis Set: (AUG-CC-PVTZ AUX)
    Blend: AUG-CC-PVTZ-JKFIT + DEF2-UNIVERSAL-JKFIT
	 Reference Energy          =    -602.9395361462808296 [Eh]
	 Singles Energy            =      -0.0000000000000000 [Eh]
	 Same-Spin Energy          =      -0.4268955096081932 [Eh]
	 Opposite-Spin Energy      =      -1.3019925140894075 [Eh]
	 Correlation Energy        =      -1.7288880236976008 [Eh]
	 Total Energy              =    -604.6684241699783797 [Eh]

	 ================> DF-SCS-MP2 Energies <==================
	-----------------------------------------------------------
	 SCS Same-Spin Scale       =       0.3333333333333333 [-]
	 SCS Opposite-Spin Scale   =       1.2000000000000000 [-]
	 SCS Same-Spin Energy      =      -0.1422985032027310 [Eh]
	 SCS Opposite-Spin Energy  =      -1.5623910169072890 [Eh]
	 SCS Correlation Energy    =      -1.7046895201100201 [Eh]
	 SCS Total Energy          =    -604.6442256663908665 [Eh]
	-----------------------------------------------------------

  Dipole Moment: [D]
     X:     2.2709      Y:    -0.1385      Z:     0.0884     Total:     2.2769

*** Psi4 exiting successfully. Buy a developer a beer!
