                               Psi4 1.4a3.dev225

  ==> Input File <==

--------------------------------------------------------------------------
#psi4
#
memory 32 gb

molecule  {
0 1
  I       -2.0593870    -0.0000050     0.0008870
  C        2.1361270    -1.2244290    -0.0138000
  C        2.1361340     1.2244190    -0.0142730
  C        2.8182870    -0.0000010    -0.0208120
  C        0.7335970    -1.2186540    -0.0045600
  C        0.7335920     1.2186470    -0.0050340
  C       -0.1509250     0.0000013     0.0008454
  C        2.8915970    -2.5298050     0.0156450
  C        2.8915460     2.5298400     0.0146700
  H        3.9079530    -0.0000080    -0.0344780
  H        0.1843020    -2.1569090    -0.0057920
  H        0.1843020     2.1569060    -0.0066320
  H        3.8558710    -2.4380930    -0.4900960
  H        2.3252680    -3.3261570    -0.4730740
  H        3.0845820    -2.8430750     1.0467350
  H        2.3258810     3.3255980    -0.4757890
  H        3.0830690     2.8443520     1.0456540
  H        3.8565230     2.4375450    -0.4896130
units angstrom
no_reorient  #important for SAPT in psi4, default
symmetry c1  #important for SAPT in psi4, default
}

set PROPERTIES_ORIGIN ["COM"]
properties('MP2/aug-cc-pvtz', properties = ['dipole'])
--------------------------------------------------------------------------

    Molecular point group: c1
  Charge       = 0
  Multiplicity = 1
  Basis Set: AUG-CC-PVTZ
    Blend: AUG-CC-PVTZ
  Basis Set: (AUG-CC-PVTZ AUX)
    Blend: AUG-CC-PVTZ-JKFIT + DEF2-UNIVERSAL-JKFIT

    Orbital Energies [Eh]
    ---------------------

    Doubly Occupied:

       1A    -11.297127     2A    -11.252082     3A    -11.252074
       4A    -11.250650     5A    -11.250640     6A    -11.236688
       7A    -11.229856     8A    -11.229855     9A     -7.730007
      10A     -5.562325    11A     -5.552268    12A     -5.552095
      13A     -2.293998    14A     -2.287223    15A     -2.286920
      16A     -2.276023    17A     -2.276019    18A     -1.149784
      19A     -1.060362    20A     -1.045782    21A     -0.949371
      22A     -0.923414    23A     -0.917790    24A     -0.784938
      25A     -0.778254    26A     -0.676330    27A     -0.646336
      28A     -0.597570    29A     -0.585477    30A     -0.574227
      31A     -0.558635    32A     -0.557542    33A     -0.550887
      34A     -0.527405    35A     -0.487938    36A     -0.487026
      37A     -0.476348    38A     -0.407856    39A     -0.372237
      40A     -0.324976    41A     -0.298569

  @DF-RHF Final Energy:  -602.90858337322152

   => Energetics <=

    Nuclear Repulsion Energy =            524.1335308003276623
    One-Electron Energy =               -1970.9744204223243287
    Two-Electron Energy =                 843.9323062487751486
    Total Energy =                       -602.9085833732215178
  Basis Set: (AUG-CC-PVTZ AUX)
    Blend: AUG-CC-PVTZ-RI + DEF2-QZVPP-RI
    Molecular point group: c1

    Geometry (in Angstrom), charge = 0, multiplicity = 1:

       Center              X                  Y                   Z               Mass
    ------------   -----------------  -----------------  -----------------  -----------------
         I           -1.765908101590    -0.000003902130     0.001306998332   126.904471900000
         C            2.429605898410    -1.224427902130    -0.013380001668    12.000000000000
         C            2.429612898410     1.224420097870    -0.013853001668    12.000000000000
         C            3.111765898410     0.000000097870    -0.020392001668    12.000000000000
         C            1.027075898410    -1.218652902130    -0.004140001668    12.000000000000
         C            1.027070898410     1.218648097870    -0.004614001668    12.000000000000
         C            0.142553898410     0.000002397870     0.001265398332    12.000000000000
         C            3.185075898410    -2.529803902130     0.016064998332    12.000000000000
         C            3.185024898410     2.529841097870     0.015089998332    12.000000000000
         H            4.201431898410    -0.000006902130    -0.034058001668     1.007825032230
         H            0.477780898410    -2.156907902130    -0.005372001668     1.007825032230
         H            0.477780898410     2.156907097870    -0.006212001668     1.007825032230
         H            4.149349898410    -2.438091902130    -0.489676001668     1.007825032230
         H            2.618746898410    -3.326155902130    -0.472654001668     1.007825032230
         H            3.378060898410    -2.843073902130     1.047154998332     1.007825032230
         H            2.619359898410     3.325599097870    -0.475369001668     1.007825032230
         H            3.376547898410     2.844353097870     1.046073998332     1.007825032230
         H            4.150001898410     2.437546097870    -0.489193001668     1.007825032230

  Basis Set: AUG-CC-PVTZ
    Blend: AUG-CC-PVTZ
  Basis Set: (AUG-CC-PVTZ AUX)
    Blend: AUG-CC-PVTZ-JKFIT + DEF2-UNIVERSAL-JKFIT
	 Reference Energy          =    -602.9085833732215178 [Eh]
	 Singles Energy            =      -0.0000000000000000 [Eh]
	 Same-Spin Energy          =      -0.4295126783853319 [Eh]
	 Opposite-Spin Energy      =      -1.3071169742968975 [Eh]
	 Correlation Energy        =      -1.7366296526822294 [Eh]
	 Total Energy              =    -604.6452130259037858 [Eh]

	 ================> DF-SCS-MP2 Energies <==================
	-----------------------------------------------------------
	 SCS Same-Spin Scale       =       0.3333333333333333 [-]
	 SCS Opposite-Spin Scale   =       1.2000000000000000 [-]
	 SCS Same-Spin Energy      =      -0.1431708927951106 [Eh]
	 SCS Opposite-Spin Energy  =      -1.5685403691562769 [Eh]
	 SCS Correlation Energy    =      -1.7117112619513875 [Eh]
	 SCS Total Energy          =    -604.6202946351728542 [Eh]
	-----------------------------------------------------------

  Dipole Moment: [D]
     X:     1.4446      Y:     0.0001      Z:     0.0756     Total:     1.4466

*** Psi4 exiting successfully. Buy a developer a beer!
