                               Psi4 1.4a3.dev225

  ==> Input File <==

--------------------------------------------------------------------------
#psi4
#
memory 32 gb

molecule  {
0 1
  I       -2.0593870    -0.0000050     0.0008870
  C        2.1361270    -1.2244290    -0.0138000
  C        2.1361340     1.2244190    -0.0142730
  C        2.8182870    -0.0000010    -0.0208120
  C        0.7335970    -1.2186540    -0.0045600
  C        0.7335920     1.2186470    -0.0050340
  C        0.0490750     0.0000020     0.0008410
  C        2.8915970    -2.5298050     0.0156450
  C        2.8915460     2.5298400     0.0146700
  H        3.9079530    -0.0000080    -0.0344780
  H        0.1843020    -2.1569090    -0.0057920
  H        0.1843020     2.1569060    -0.0066320
  H        3.8558710    -2.4380930    -0.4900960
  H        2.3252680    -3.3261570    -0.4730740
  H        3.0845820    -2.8430750     1.0467350
  H        2.3258810     3.3255980    -0.4757890
  H        3.0830690     2.8443520     1.0456540
  H        3.7682120     2.4459915    -0.4434630
units angstrom
no_reorient  #important for SAPT in psi4, default
symmetry c1  #important for SAPT in psi4, default
}

set PROPERTIES_ORIGIN ["COM"]
properties('MP2/aug-cc-pvtz', properties = ['dipole'])
--------------------------------------------------------------------------

    Molecular point group: c1
  Charge       = 0
  Multiplicity = 1
  Basis Set: AUG-CC-PVTZ
    Blend: AUG-CC-PVTZ
  Basis Set: (AUG-CC-PVTZ AUX)
    Blend: AUG-CC-PVTZ-JKFIT + DEF2-UNIVERSAL-JKFIT

    Orbital Energies [Eh]
    ---------------------

    Doubly Occupied:

       1A    -11.290112     2A    -11.255546     3A    -11.254942
       4A    -11.242339     5A    -11.242000     6A    -11.236738
       7A    -11.231912     8A    -11.219701     9A     -7.717013
      10A     -5.548707    11A     -5.539141    12A     -5.539106
      13A     -2.278374    14A     -2.273432    15A     -2.273425
      16A     -2.262781    17A     -2.262775    18A     -1.167488
      19A     -1.068417    20A     -1.047695    21A     -0.954756
      22A     -0.941229    23A     -0.895117    24A     -0.795514
      25A     -0.787948    26A     -0.688410    27A     -0.661814
      28A     -0.597284    29A     -0.590560    30A     -0.580147
      31A     -0.574804    32A     -0.565416    33A     -0.549745
      34A     -0.541094    35A     -0.498765    36A     -0.494420
      37A     -0.450487    38A     -0.392075    39A     -0.367087
      40A     -0.330950    41A     -0.318568

  @DF-RHF Final Energy:  -602.94726843406249

   => Energetics <=

    Nuclear Repulsion Energy =            524.7320835751770574
    One-Electron Energy =               -1972.3030304919395803
    Two-Electron Energy =                 844.6236784827000292
    Total Energy =                       -602.9472684340624937
  Basis Set: (AUG-CC-PVTZ AUX)
    Blend: AUG-CC-PVTZ-RI + DEF2-QZVPP-RI
    Molecular point group: c1

    Geometry (in Angstrom), charge = 0, multiplicity = 1:

       Center              X                  Y                   Z               Mass
    ------------   -----------------  -----------------  -----------------  -----------------
         I           -1.775870377645    -0.000040634528     0.001106725260   126.904471900000
         C            2.419643622355    -1.224464634528    -0.013580274740    12.000000000000
         C            2.419650622355     1.224383365472    -0.014053274740    12.000000000000
         C            3.101803622355    -0.000036634528    -0.020592274740    12.000000000000
         C            1.017113622355    -1.218689634528    -0.004340274740    12.000000000000
         C            1.017108622355     1.218611365472    -0.004814274740    12.000000000000
         C            0.332591622355    -0.000033634528     0.001060725260    12.000000000000
         C            3.175113622355    -2.529840634528     0.015864725260    12.000000000000
         C            3.175062622355     2.529804365472     0.014889725260    12.000000000000
         H            4.191469622355    -0.000043634528    -0.034258274740     1.007825032230
         H            0.467818622355    -2.156944634528    -0.005572274740     1.007825032230
         H            0.467818622355     2.156870365472    -0.006412274740     1.007825032230
         H            4.139387622355    -2.438128634528    -0.489876274740     1.007825032230
         H            2.608784622355    -3.326192634528    -0.472854274740     1.007825032230
         H            3.368098622355    -2.843110634528     1.046954725260     1.007825032230
         H            2.609397622355     3.325562365472    -0.475569274740     1.007825032230
         H            3.366585622355     2.844316365472     1.045873725260     1.007825032230
         H            4.051728622355     2.445955865472    -0.443243274740     1.007825032230

  Basis Set: AUG-CC-PVTZ
    Blend: AUG-CC-PVTZ
  Basis Set: (AUG-CC-PVTZ AUX)
    Blend: AUG-CC-PVTZ-JKFIT + DEF2-UNIVERSAL-JKFIT
	 Reference Energy          =    -602.9472684340624937 [Eh]
	 Singles Energy            =      -0.0000000000000000 [Eh]
	 Same-Spin Energy          =      -0.4258732957646022 [Eh]
	 Opposite-Spin Energy      =      -1.2995766554738799 [Eh]
	 Correlation Energy        =      -1.7254499512384820 [Eh]
	 Total Energy              =    -604.6727183853009819 [Eh]

	 ================> DF-SCS-MP2 Energies <==================
	-----------------------------------------------------------
	 SCS Same-Spin Scale       =       0.3333333333333333 [-]
	 SCS Opposite-Spin Scale   =       1.2000000000000000 [-]
	 SCS Same-Spin Energy      =      -0.1419577652548674 [Eh]
	 SCS Opposite-Spin Energy  =      -1.5594919865686558 [Eh]
	 SCS Correlation Energy    =      -1.7014497518235232 [Eh]
	 SCS Total Energy          =    -604.6487181858859685 [Eh]
	-----------------------------------------------------------

  Dipole Moment: [D]
     X:     2.2468      Y:     0.0191      Z:     0.0653     Total:     2.2479

*** Psi4 exiting successfully. Buy a developer a beer!
