                               Psi4 1.4a3.dev225

  ==> Input File <==

--------------------------------------------------------------------------
#psi4
#
memory 32 gb

molecule  {
0 1
  I       -2.0593870    -0.0000050     0.0008870
  C        2.1361270    -1.2244290    -0.0138000
  C        2.1361340     1.2244190    -0.0142730
  C        2.8182870    -0.0000010    -0.0208120
  C        0.7335970    -1.2186540    -0.0045600
  C        0.7335920     1.2186470    -0.0050340
  C        0.0490750     0.0000020     0.0008410
  C        2.8915970    -2.5298050     0.0156450
  C        2.8915460     2.5298400     0.0146700
  H        3.9079530    -0.0000080    -0.0344780
  H        0.1843020    -2.1569090    -0.0057920
  H        0.1843020     2.1569060    -0.0066320
  H        3.8179234    -2.4174628    -0.5529567
  H        2.3252680    -3.3261570    -0.4730740
  H        3.0845820    -2.8430750     1.0467350
  H        2.3258810     3.3255980    -0.4757890
  H        3.0830690     2.8443520     1.0456540
  H        3.8565230     2.4375450    -0.4896130
units angstrom
no_reorient  #important for SAPT in psi4, default
symmetry c1  #important for SAPT in psi4, default
}

set PROPERTIES_ORIGIN ["COM"]
properties('MP2/aug-cc-pvtz', properties = ['dipole'])
--------------------------------------------------------------------------

    Molecular point group: c1
  Charge       = 0
  Multiplicity = 1
  Basis Set: AUG-CC-PVTZ
    Blend: AUG-CC-PVTZ
  Basis Set: (AUG-CC-PVTZ AUX)
    Blend: AUG-CC-PVTZ-JKFIT + DEF2-UNIVERSAL-JKFIT

    Orbital Energies [Eh]
    ---------------------

    Doubly Occupied:

       1A    -11.290268     2A    -11.255644     3A    -11.255126
       4A    -11.242571     5A    -11.242334     6A    -11.236769
       7A    -11.232010     8A    -11.231987     9A     -7.717163
      10A     -5.548858    11A     -5.539291    12A     -5.539256
      13A     -2.278526    14A     -2.273583    15A     -2.273576
      16A     -2.262931    17A     -2.262924    18A     -1.167530
      19A     -1.067078    20A     -1.046920    21A     -0.949318
      22A     -0.938817    23A     -0.895199    24A     -0.793588
      25A     -0.786585    26A     -0.688349    27A     -0.659645
      28A     -0.594757    29A     -0.592341    30A     -0.580068
      31A     -0.573354    32A     -0.558710    33A     -0.548511
      34A     -0.534335    35A     -0.499267    36A     -0.494913
      37A     -0.450060    38A     -0.392216    39A     -0.367226
      40A     -0.331334    41A     -0.318660

  @DF-RHF Final Energy:  -602.95282164672574

   => Energetics <=

    Nuclear Repulsion Energy =            524.3281537611132990
    One-Electron Energy =               -1971.5387556429109281
    Two-Electron Energy =                 844.2577802350718912
    Total Energy =                       -602.9528216467257380
  Basis Set: (AUG-CC-PVTZ AUX)
    Blend: AUG-CC-PVTZ-RI + DEF2-QZVPP-RI
    Molecular point group: c1

    Geometry (in Angstrom), charge = 0, multiplicity = 1:

       Center              X                  Y                   Z               Mass
    ------------   -----------------  -----------------  -----------------  -----------------
         I           -1.776089183627    -0.000093567143     0.001580326988   126.904471900000
         C            2.419424816373    -1.224517567143    -0.013106673012    12.000000000000
         C            2.419431816373     1.224330432857    -0.013579673012    12.000000000000
         C            3.101584816373    -0.000089567143    -0.020118673012    12.000000000000
         C            1.016894816373    -1.218742567143    -0.003866673012    12.000000000000
         C            1.016889816373     1.218558432857    -0.004340673012    12.000000000000
         C            0.332372816373    -0.000086567143     0.001534326988    12.000000000000
         C            3.174894816373    -2.529893567143     0.016338326988    12.000000000000
         C            3.174843816373     2.529751432857     0.015363326988    12.000000000000
         H            4.191250816373    -0.000096567143    -0.033784673012     1.007825032230
         H            0.467599816373    -2.156997567143    -0.005098673012     1.007825032230
         H            0.467599816373     2.156817432857    -0.005938673012     1.007825032230
         H            4.101221216373    -2.417551367143    -0.552263373012     1.007825032230
         H            2.608565816373    -3.326245567143    -0.472380673012     1.007825032230
         H            3.367879816373    -2.843163567143     1.047428326988     1.007825032230
         H            2.609178816373     3.325509432857    -0.475095673012     1.007825032230
         H            3.366366816373     2.844263432857     1.046347326988     1.007825032230
         H            4.139820816373     2.437456432857    -0.488919673012     1.007825032230

  Basis Set: AUG-CC-PVTZ
    Blend: AUG-CC-PVTZ
  Basis Set: (AUG-CC-PVTZ AUX)
    Blend: AUG-CC-PVTZ-JKFIT + DEF2-UNIVERSAL-JKFIT
	 Reference Energy          =    -602.9528216467257380 [Eh]
	 Singles Energy            =      -0.0000000000000000 [Eh]
	 Same-Spin Energy          =      -0.4259114331412318 [Eh]
	 Opposite-Spin Energy      =      -1.3001780137601153 [Eh]
	 Correlation Energy        =      -1.7260894469013470 [Eh]
	 Total Energy              =    -604.6789110936271072 [Eh]

	 ================> DF-SCS-MP2 Energies <==================
	-----------------------------------------------------------
	 SCS Same-Spin Scale       =       0.3333333333333333 [-]
	 SCS Opposite-Spin Scale   =       1.2000000000000000 [-]
	 SCS Same-Spin Energy      =      -0.1419704777137439 [Eh]
	 SCS Opposite-Spin Energy  =      -1.5602136165121383 [Eh]
	 SCS Correlation Energy    =      -1.7021840942258821 [Eh]
	 SCS Total Energy          =    -604.6550057409516512 [Eh]
	-----------------------------------------------------------

  Dipole Moment: [D]
     X:     2.1873      Y:    -0.0004      Z:     0.0616     Total:     2.1881

*** Psi4 exiting successfully. Buy a developer a beer!
