                               Psi4 1.4a3.dev225

  ==> Input File <==

--------------------------------------------------------------------------
#psi4
#
memory 32 gb

molecule  {
0 1
  I       -2.0593870    -0.0000050     0.0008870
  C        2.0970566    -1.2486810    -0.0394481
  C        2.1361340     1.2244190    -0.0142730
  C        2.8182870    -0.0000010    -0.0208120
  C        0.7335970    -1.2186540    -0.0045600
  C        0.7335920     1.2186470    -0.0050340
  C        0.0490750     0.0000020     0.0008410
  C        2.8915970    -2.5298050     0.0156450
  C        2.8915460     2.5298400     0.0146700
  H        3.9079530    -0.0000080    -0.0344780
  H        0.1843020    -2.1569090    -0.0057920
  H        0.1843020     2.1569060    -0.0066320
  H        3.8558710    -2.4380930    -0.4900960
  H        2.3252680    -3.3261570    -0.4730740
  H        3.0845820    -2.8430750     1.0467350
  H        2.3258810     3.3255980    -0.4757890
  H        3.0830690     2.8443520     1.0456540
  H        3.8565230     2.4375450    -0.4896130
units angstrom
no_reorient  #important for SAPT in psi4, default
symmetry c1  #important for SAPT in psi4, default
}

set PROPERTIES_ORIGIN ["COM"]
properties('MP2/aug-cc-pvtz', properties = ['dipole'])
--------------------------------------------------------------------------

    Molecular point group: c1
  Charge       = 0
  Multiplicity = 1
  Basis Set: AUG-CC-PVTZ
    Blend: AUG-CC-PVTZ
  Basis Set: (AUG-CC-PVTZ AUX)
    Blend: AUG-CC-PVTZ-JKFIT + DEF2-UNIVERSAL-JKFIT

    Orbital Energies [Eh]
    ---------------------

    Doubly Occupied:

       1A    -11.290664     2A    -11.255097     3A    -11.254886
       4A    -11.243485     5A    -11.240314     6A    -11.238627
       7A    -11.231878     8A    -11.231703     9A     -7.717589
      10A     -5.549296    11A     -5.539705    12A     -5.539678
      13A     -2.278965    14A     -2.274021    15A     -2.274001
      16A     -2.263339    17A     -2.263333    18A     -1.167679
      19A     -1.069579    20A     -1.044298    21A     -0.946300
      22A     -0.941587    23A     -0.895816    24A     -0.792534
      25A     -0.788034    26A     -0.688458    27A     -0.659813
      28A     -0.592878    29A     -0.589422    30A     -0.579413
      31A     -0.574626    32A     -0.560057    33A     -0.549457
      34A     -0.538691    35A     -0.499461    36A     -0.487011
      37A     -0.453492    38A     -0.390326    39A     -0.367635
      40A     -0.336612    41A     -0.315306

  @DF-RHF Final Energy:  -602.95058703960342

   => Energetics <=

    Nuclear Repulsion Energy =            524.3177777698438149
    One-Electron Energy =               -1971.5065943691918164
    Two-Electron Energy =                 844.2382295597445818
    Total Energy =                       -602.9505870396034197
  Basis Set: (AUG-CC-PVTZ AUX)
    Blend: AUG-CC-PVTZ-RI + DEF2-QZVPP-RI
    Molecular point group: c1

    Geometry (in Angstrom), charge = 0, multiplicity = 1:

       Center              X                  Y                   Z               Mass
    ------------   -----------------  -----------------  -----------------  -----------------
         I           -1.774232947181     0.001250611196     0.002633995363   126.904471900000
         C            2.382210652819    -1.247425388804    -0.037701104637    12.000000000000
         C            2.421288052819     1.225674611196    -0.012526004637    12.000000000000
         C            3.103441052819     0.001254611196    -0.019065004637    12.000000000000
         C            1.018751052819    -1.217398388804    -0.002813004637    12.000000000000
         C            1.018746052819     1.219902611196    -0.003287004637    12.000000000000
         C            0.334229052819     0.001257611196     0.002587995363    12.000000000000
         C            3.176751052819    -2.528549388804     0.017391995363    12.000000000000
         C            3.176700052819     2.531095611196     0.016416995363    12.000000000000
         H            4.193107052819     0.001247611196    -0.032731004637     1.007825032230
         H            0.469456052819    -2.155653388804    -0.004045004637     1.007825032230
         H            0.469456052819     2.158161611196    -0.004885004637     1.007825032230
         H            4.141025052819    -2.436837388804    -0.488349004637     1.007825032230
         H            2.610422052819    -3.324901388804    -0.471327004637     1.007825032230
         H            3.369736052819    -2.841819388804     1.048481995363     1.007825032230
         H            2.611035052819     3.326853611196    -0.474042004637     1.007825032230
         H            3.368223052819     2.845607611196     1.047400995363     1.007825032230
         H            4.141677052819     2.438800611196    -0.487866004637     1.007825032230

  Basis Set: AUG-CC-PVTZ
    Blend: AUG-CC-PVTZ
  Basis Set: (AUG-CC-PVTZ AUX)
    Blend: AUG-CC-PVTZ-JKFIT + DEF2-UNIVERSAL-JKFIT
	 Reference Energy          =    -602.9505870396034197 [Eh]
	 Singles Energy            =      -0.0000000000000000 [Eh]
	 Same-Spin Energy          =      -0.4257961808460448 [Eh]
	 Opposite-Spin Energy      =      -1.3002385064124424 [Eh]
	 Correlation Energy        =      -1.7260346872584873 [Eh]
	 Total Energy              =    -604.6766217268618675 [Eh]

	 ================> DF-SCS-MP2 Energies <==================
	-----------------------------------------------------------
	 SCS Same-Spin Scale       =       0.3333333333333333 [-]
	 SCS Opposite-Spin Scale   =       1.2000000000000000 [-]
	 SCS Same-Spin Energy      =      -0.1419320602820149 [Eh]
	 SCS Opposite-Spin Energy  =      -1.5602862076949309 [Eh]
	 SCS Correlation Energy    =      -1.7022182679769458 [Eh]
	 SCS Total Energy          =    -604.6528053075803655 [Eh]
	-----------------------------------------------------------

  Dipole Moment: [D]
     X:     2.1836      Y:     0.0110      Z:     0.0888     Total:     2.1854

*** Psi4 exiting successfully. Buy a developer a beer!
