                               Psi4 1.4a3.dev225

  ==> Input File <==

--------------------------------------------------------------------------
#psi4
#
memory 32 gb

molecule  {
0 1
  I       -2.0593870    -0.0000050     0.0008870
  C        2.1361270    -1.2244290    -0.0138000
  C        2.1361340     1.2244190    -0.0142730
  C        2.8182870    -0.0000010    -0.0208120
  C        0.7335970    -1.2186540    -0.0045600
  C        0.7335920     1.2186470    -0.0050340
  C       -0.0509250     0.0000017     0.0008432
  C        2.8915970    -2.5298050     0.0156450
  C        2.8915460     2.5298400     0.0146700
  H        3.9079530    -0.0000080    -0.0344780
  H        0.1843020    -2.1569090    -0.0057920
  H        0.1843020     2.1569060    -0.0066320
  H        3.8558710    -2.4380930    -0.4900960
  H        2.3252680    -3.3261570    -0.4730740
  H        3.0845820    -2.8430750     1.0467350
  H        2.3258810     3.3255980    -0.4757890
  H        3.0830690     2.8443520     1.0456540
  H        3.8565230     2.4375450    -0.4896130
units angstrom
no_reorient  #important for SAPT in psi4, default
symmetry c1  #important for SAPT in psi4, default
}

set PROPERTIES_ORIGIN ["COM"]
properties('MP2/aug-cc-pvtz', properties = ['dipole'])
--------------------------------------------------------------------------

    Molecular point group: c1
  Charge       = 0
  Multiplicity = 1
  Basis Set: AUG-CC-PVTZ
    Blend: AUG-CC-PVTZ
  Basis Set: (AUG-CC-PVTZ AUX)
    Blend: AUG-CC-PVTZ-JKFIT + DEF2-UNIVERSAL-JKFIT

    Orbital Energies [Eh]
    ---------------------

    Doubly Occupied:

       1A    -11.292709     2A    -11.253240     3A    -11.253212
       4A    -11.246120     5A    -11.246102     6A    -11.236526
       7A    -11.230644     8A    -11.230644     9A     -7.724311
      10A     -5.556320    11A     -5.546438    12A     -5.546394
      13A     -2.286806    14A     -2.281089    15A     -2.280965
      16A     -2.270095    17A     -2.270090    18A     -1.157267
      19A     -1.062965    20A     -1.044017    21A     -0.948738
      22A     -0.930160    23A     -0.907703    24A     -0.789218
      25A     -0.783213    26A     -0.681865    27A     -0.652343
      28A     -0.595122    29A     -0.587083    30A     -0.575407
      31A     -0.563506    32A     -0.558283    33A     -0.550821
      34A     -0.532424    35A     -0.491350    36A     -0.486133
      37A     -0.471937    38A     -0.399791    39A     -0.371437
      40A     -0.327476    41A     -0.309389

  @DF-RHF Final Energy:  -602.94111224072617

   => Energetics <=

    Nuclear Repulsion Energy =            524.0831184642373728
    One-Electron Energy =               -1970.9897577481287954
    Two-Electron Energy =                 843.9655270431651388
    Total Energy =                       -602.9411122407261701
  Basis Set: (AUG-CC-PVTZ AUX)
    Blend: AUG-CC-PVTZ-RI + DEF2-QZVPP-RI
    Molecular point group: c1

    Geometry (in Angstrom), charge = 0, multiplicity = 1:

       Center              X                  Y                   Z               Mass
    ------------   -----------------  -----------------  -----------------  -----------------
         I           -1.771081075108    -0.000003922822     0.001307112137   126.904471900000
         C            2.424432924892    -1.224427922822    -0.013379887863    12.000000000000
         C            2.424439924892     1.224420077178    -0.013852887863    12.000000000000
         C            3.106592924892     0.000000077178    -0.020391887863    12.000000000000
         C            1.021902924892    -1.218652922822    -0.004139887863    12.000000000000
         C            1.021897924892     1.218648077178    -0.004613887863    12.000000000000
         C            0.237380924892     0.000002777178     0.001263312137    12.000000000000
         C            3.179902924892    -2.529803922822     0.016065112137    12.000000000000
         C            3.179851924892     2.529841077178     0.015090112137    12.000000000000
         H            4.196258924892    -0.000006922822    -0.034057887863     1.007825032230
         H            0.472607924892    -2.156907922822    -0.005371887863     1.007825032230
         H            0.472607924892     2.156907077178    -0.006211887863     1.007825032230
         H            4.144176924892    -2.438091922822    -0.489675887863     1.007825032230
         H            2.613573924892    -3.326155922822    -0.472653887863     1.007825032230
         H            3.372887924892    -2.843073922822     1.047155112137     1.007825032230
         H            2.614186924892     3.325599077178    -0.475368887863     1.007825032230
         H            3.371374924892     2.844353077178     1.046074112137     1.007825032230
         H            4.144828924892     2.437546077178    -0.489192887863     1.007825032230

  Basis Set: AUG-CC-PVTZ
    Blend: AUG-CC-PVTZ
  Basis Set: (AUG-CC-PVTZ AUX)
    Blend: AUG-CC-PVTZ-JKFIT + DEF2-UNIVERSAL-JKFIT
	 Reference Energy          =    -602.9411122407261701 [Eh]
	 Singles Energy            =      -0.0000000000000000 [Eh]
	 Same-Spin Energy          =      -0.4271968968000775 [Eh]
	 Opposite-Spin Energy      =      -1.3028445495130905 [Eh]
	 Correlation Energy        =      -1.7300414463131679 [Eh]
	 Total Energy              =    -604.6711536870393502 [Eh]

	 ================> DF-SCS-MP2 Energies <==================
	-----------------------------------------------------------
	 SCS Same-Spin Scale       =       0.3333333333333333 [-]
	 SCS Opposite-Spin Scale   =       1.2000000000000000 [-]
	 SCS Same-Spin Energy      =      -0.1423989656000258 [Eh]
	 SCS Opposite-Spin Energy  =      -1.5634134594157085 [Eh]
	 SCS Correlation Energy    =      -1.7058124250157343 [Eh]
	 SCS Total Energy          =    -604.6469246657419490 [Eh]
	-----------------------------------------------------------

  Dipole Moment: [D]
     X:     1.7929      Y:     0.0001      Z:     0.0772     Total:     1.7946

*** Psi4 exiting successfully. Buy a developer a beer!
