                               Psi4 1.4a3.dev225

  ==> Input File <==

--------------------------------------------------------------------------
#psi4
#
memory 32 gb

molecule  {
0 1
  I       -2.0593870    -0.0000050     0.0008870
  C        2.1361270    -1.2244290    -0.0138000
  C        2.1361340     1.2244190    -0.0142730
  C        2.8182870    -0.0000010    -0.0208120
  C        0.7335970    -1.2186540    -0.0045600
  C        0.7335920     1.2186470    -0.0050340
  C        0.0490750     0.0000020     0.0008410
  C        2.8915970    -2.5298050     0.0156450
  C        2.8915460     2.5298400     0.0146700
  H        3.9079530    -0.0000080    -0.0344780
  H        0.1843020    -2.1569090    -0.0057920
  H        0.1843020     2.1569060    -0.0066320
  H        3.8374734    -2.4277157    -0.5218538
  H        2.3252680    -3.3261570    -0.4730740
  H        3.0845820    -2.8430750     1.0467350
  H        2.3258810     3.3255980    -0.4757890
  H        3.0830690     2.8443520     1.0456540
  H        3.8565230     2.4375450    -0.4896130
units angstrom
no_reorient  #important for SAPT in psi4, default
symmetry c1  #important for SAPT in psi4, default
}

set PROPERTIES_ORIGIN ["COM"]
properties('MP2/aug-cc-pvtz', properties = ['dipole'])
--------------------------------------------------------------------------

    Molecular point group: c1
  Charge       = 0
  Multiplicity = 1
  Basis Set: AUG-CC-PVTZ
    Blend: AUG-CC-PVTZ
  Basis Set: (AUG-CC-PVTZ AUX)
    Blend: AUG-CC-PVTZ-JKFIT + DEF2-UNIVERSAL-JKFIT

    Orbital Energies [Eh]
    ---------------------

    Doubly Occupied:

       1A    -11.290336     2A    -11.255651     3A    -11.255384
       4A    -11.242594     5A    -11.242473     6A    -11.236801
       7A    -11.232000     8A    -11.231993     9A     -7.717206
      10A     -5.548903    11A     -5.539333    12A     -5.539298
      13A     -2.278570    14A     -2.273626    15A     -2.273620
      16A     -2.262972    17A     -2.262965    18A     -1.167553
      19A     -1.067020    20A     -1.046896    21A     -0.949331
      22A     -0.938866    23A     -0.895238    24A     -0.793757
      25A     -0.786769    26A     -0.688412    27A     -0.659796
      28A     -0.594691    29A     -0.590811    30A     -0.579015
      31A     -0.573391    32A     -0.559444    33A     -0.548817
      34A     -0.535927    35A     -0.499001    36A     -0.494929
      37A     -0.450321    38A     -0.392197    39A     -0.367269
      40A     -0.331289    41A     -0.318680

  @DF-RHF Final Energy:  -602.95324316161873

   => Energetics <=

    Nuclear Repulsion Energy =            524.2941873910177719
    One-Electron Energy =               -1971.4685672909372443
    Two-Electron Energy =                 844.2211367383008565
    Total Energy =                       -602.9532431616187296
  Basis Set: (AUG-CC-PVTZ AUX)
    Blend: AUG-CC-PVTZ-RI + DEF2-QZVPP-RI
    Molecular point group: c1

    Geometry (in Angstrom), charge = 0, multiplicity = 1:

       Center              X                  Y                   Z               Mass
    ------------   -----------------  -----------------  -----------------  -----------------
         I           -1.776174119453    -0.000049022973     0.001445199086   126.904471900000
         C            2.419339880547    -1.224473022973    -0.013241800914    12.000000000000
         C            2.419346880547     1.224374977027    -0.013714800914    12.000000000000
         C            3.101499880547    -0.000045022973    -0.020253800914    12.000000000000
         C            1.016809880547    -1.218698022973    -0.004001800914    12.000000000000
         C            1.016804880547     1.218602977027    -0.004475800914    12.000000000000
         C            0.332287880547    -0.000042022973     0.001399199086    12.000000000000
         C            3.174809880547    -2.529849022973     0.016203199086    12.000000000000
         C            3.174758880547     2.529795977027     0.015228199086    12.000000000000
         H            4.191165880547    -0.000052022973    -0.033919800914     1.007825032230
         H            0.467514880547    -2.156953022973    -0.005233800914     1.007825032230
         H            0.467514880547     2.156861977027    -0.006073800914     1.007825032230
         H            4.120686280547    -2.427759722973    -0.521295600914     1.007825032230
         H            2.608480880547    -3.326201022973    -0.472515800914     1.007825032230
         H            3.367794880547    -2.843119022973     1.047293199086     1.007825032230
         H            2.609093880547     3.325553977027    -0.475230800914     1.007825032230
         H            3.366281880547     2.844307977027     1.046212199086     1.007825032230
         H            4.139735880547     2.437500977027    -0.489054800914     1.007825032230

  Basis Set: AUG-CC-PVTZ
    Blend: AUG-CC-PVTZ
  Basis Set: (AUG-CC-PVTZ AUX)
    Blend: AUG-CC-PVTZ-JKFIT + DEF2-UNIVERSAL-JKFIT
	 Reference Energy          =    -602.9532431616187296 [Eh]
	 Singles Energy            =      -0.0000000000000000 [Eh]
	 Same-Spin Energy          =      -0.4258851489037176 [Eh]
	 Opposite-Spin Energy      =      -1.3001232305763568 [Eh]
	 Correlation Energy        =      -1.7260083794800745 [Eh]
	 Total Energy              =    -604.6792515410987789 [Eh]

	 ================> DF-SCS-MP2 Energies <==================
	-----------------------------------------------------------
	 SCS Same-Spin Scale       =       0.3333333333333333 [-]
	 SCS Opposite-Spin Scale   =       1.2000000000000000 [-]
	 SCS Same-Spin Energy      =      -0.1419617163012392 [Eh]
	 SCS Opposite-Spin Energy  =      -1.5601478766916281 [Eh]
	 SCS Correlation Energy    =      -1.7021095929928673 [Eh]
	 SCS Total Energy          =    -604.6553527546116129 [Eh]
	-----------------------------------------------------------

  Dipole Moment: [D]
     X:     2.1943      Y:     0.0000      Z:     0.0700     Total:     2.1954

*** Psi4 exiting successfully. Buy a developer a beer!
