                               Psi4 1.4a3.dev225

  ==> Input File <==

--------------------------------------------------------------------------
#psi4
#
memory 32 gb

molecule  {
0 1
  I       -2.0593870    -0.0000050     0.0008870
  C        2.1361270    -1.2244290    -0.0138000
  C        2.1361340     1.2244190    -0.0142730
  C        2.8182870    -0.0000010    -0.0208120
  C        0.7335970    -1.2186540    -0.0045600
  C        0.7335920     1.2186470    -0.0050340
  C        0.0490750     0.0000020     0.0008410
  C        2.8915970    -2.5298050     0.0156450
  C        2.8915460     2.5298400     0.0146700
  H        3.9079530    -0.0000080    -0.0344780
  H        0.1843020    -2.1569090    -0.0057920
  H        0.1843020     2.1569060    -0.0066320
  H        3.8558710    -2.4380930    -0.4900960
  H        2.3252680    -3.3261570    -0.4730740
  H        3.0845820    -2.8430750     1.0467350
  H        2.3155265     3.3401644    -0.4847669
  H        3.0830690     2.8443520     1.0456540
  H        3.8565230     2.4375450    -0.4896130
units angstrom
no_reorient  #important for SAPT in psi4, default
symmetry c1  #important for SAPT in psi4, default
}

set PROPERTIES_ORIGIN ["COM"]
properties('MP2/aug-cc-pvtz', properties = ['dipole'])
--------------------------------------------------------------------------

    Molecular point group: c1
  Charge       = 0
  Multiplicity = 1
  Basis Set: AUG-CC-PVTZ
    Blend: AUG-CC-PVTZ
  Basis Set: (AUG-CC-PVTZ AUX)
    Blend: AUG-CC-PVTZ-JKFIT + DEF2-UNIVERSAL-JKFIT

    Orbital Energies [Eh]
    ---------------------

    Doubly Occupied:

       1A    -11.290432     2A    -11.255825     3A    -11.255729
       4A    -11.242679     5A    -11.242639     6A    -11.236974
       7A    -11.234391     8A    -11.232053     9A     -7.717272
      10A     -5.548972    11A     -5.539398    12A     -5.539362
      13A     -2.278639    14A     -2.273694    15A     -2.273687
      16A     -2.263035    17A     -2.263028    18A     -1.167623
      19A     -1.066759    20A     -1.046832    21A     -0.948599
      22A     -0.938444    23A     -0.895317    24A     -0.793520
      25A     -0.786971    26A     -0.688501    27A     -0.659750
      28A     -0.594413    29A     -0.589479    30A     -0.577856
      31A     -0.572955    32A     -0.559016    33A     -0.548960
      34A     -0.536224    35A     -0.498660    36A     -0.494759
      37A     -0.450613    38A     -0.392217    39A     -0.367333
      40A     -0.331256    41A     -0.318756

  @DF-RHF Final Energy:  -602.95287256705490

   => Energetics <=

    Nuclear Repulsion Energy =            524.1773029052252468
    One-Electron Energy =               -1971.2351082916604810
    Two-Electron Energy =                 844.1049328193802239
    Total Energy =                       -602.9528725670548965
  Basis Set: (AUG-CC-PVTZ AUX)
    Blend: AUG-CC-PVTZ-RI + DEF2-QZVPP-RI
    Molecular point group: c1

    Geometry (in Angstrom), charge = 0, multiplicity = 1:

       Center              X                  Y                   Z               Mass
    ------------   -----------------  -----------------  -----------------  -----------------
         I           -1.776209063051    -0.000067222700     0.001346230819   126.904471900000
         C            2.419304936949    -1.224491222700    -0.013340769181    12.000000000000
         C            2.419311936949     1.224356777300    -0.013813769181    12.000000000000
         C            3.101464936949    -0.000063222700    -0.020352769181    12.000000000000
         C            1.016774936949    -1.218716222700    -0.004100769181    12.000000000000
         C            1.016769936949     1.218584777300    -0.004574769181    12.000000000000
         C            0.332252936949    -0.000060222700     0.001300230819    12.000000000000
         C            3.174774936949    -2.529867222700     0.016104230819    12.000000000000
         C            3.174723936949     2.529777777300     0.015129230819    12.000000000000
         H            4.191130936949    -0.000070222700    -0.034018769181     1.007825032230
         H            0.467479936949    -2.156971222700    -0.005332769181     1.007825032230
         H            0.467479936949     2.156843777300    -0.006172769181     1.007825032230
         H            4.139048936949    -2.438155222700    -0.489636769181     1.007825032230
         H            2.608445936949    -3.326219222700    -0.472614769181     1.007825032230
         H            3.367759936949    -2.843137222700     1.047194230819     1.007825032230
         H            2.598704436949     3.340102177300    -0.484307669181     1.007825032230
         H            3.366246936949     2.844289777300     1.046113230819     1.007825032230
         H            4.139700936949     2.437482777300    -0.489153769181     1.007825032230

  Basis Set: AUG-CC-PVTZ
    Blend: AUG-CC-PVTZ
  Basis Set: (AUG-CC-PVTZ AUX)
    Blend: AUG-CC-PVTZ-JKFIT + DEF2-UNIVERSAL-JKFIT
	 Reference Energy          =    -602.9528725670548965 [Eh]
	 Singles Energy            =      -0.0000000000000000 [Eh]
	 Same-Spin Energy          =      -0.4258767824028835 [Eh]
	 Opposite-Spin Energy      =      -1.3002226925940348 [Eh]
	 Correlation Energy        =      -1.7260994749969183 [Eh]
	 Total Energy              =    -604.6789720420517824 [Eh]

	 ================> DF-SCS-MP2 Energies <==================
	-----------------------------------------------------------
	 SCS Same-Spin Scale       =       0.3333333333333333 [-]
	 SCS Opposite-Spin Scale   =       1.2000000000000000 [-]
	 SCS Same-Spin Energy      =      -0.1419589274676278 [Eh]
	 SCS Opposite-Spin Energy  =      -1.5602672311128416 [Eh]
	 SCS Correlation Energy    =      -1.7022261585804694 [Eh]
	 SCS Total Energy          =    -604.6550987256354119 [Eh]
	-----------------------------------------------------------

  Dipole Moment: [D]
     X:     2.2018      Y:    -0.0106      Z:     0.0823     Total:     2.2033

*** Psi4 exiting successfully. Buy a developer a beer!
