                               Psi4 1.4a3.dev225

  ==> Input File <==

--------------------------------------------------------------------------
#psi4
#
memory 32 gb

molecule  {
0 1
  I       -2.0593870    -0.0000050     0.0008870
  C        2.0215980    -1.2984658     0.0657845
  C        2.1361340     1.2244190    -0.0142730
  C        2.8182870    -0.0000010    -0.0208120
  C        0.7335970    -1.2186540    -0.0045600
  C        0.7335920     1.2186470    -0.0050340
  C        0.0490750     0.0000020     0.0008410
  C        2.8915970    -2.5298050     0.0156450
  C        2.8915460     2.5298400     0.0146700
  H        3.9079530    -0.0000080    -0.0344780
  H        0.1843020    -2.1569090    -0.0057920
  H        0.1843020     2.1569060    -0.0066320
  H        3.8558710    -2.4380930    -0.4900960
  H        2.3252680    -3.3261570    -0.4730740
  H        3.0845820    -2.8430750     1.0467350
  H        2.3258810     3.3255980    -0.4757890
  H        3.0830690     2.8443520     1.0456540
  H        3.8565230     2.4375450    -0.4896130
units angstrom
no_reorient  #important for SAPT in psi4, default
symmetry c1  #important for SAPT in psi4, default
}

set PROPERTIES_ORIGIN ["COM"]
properties('MP2/aug-cc-pvtz', properties = ['dipole'])
--------------------------------------------------------------------------

    Molecular point group: c1
  Charge       = 0
  Multiplicity = 1
  Basis Set: AUG-CC-PVTZ
    Blend: AUG-CC-PVTZ
  Basis Set: (AUG-CC-PVTZ AUX)
    Blend: AUG-CC-PVTZ-JKFIT + DEF2-UNIVERSAL-JKFIT

    Orbital Energies [Eh]
    ---------------------

    Doubly Occupied:

       1A    -11.290817     2A    -11.253455     3A    -11.253056
       4A    -11.245732     5A    -11.244979     6A    -11.232548
       7A    -11.230988     8A    -11.229954     9A     -7.718008
      10A     -5.549727    11A     -5.540113    12A     -5.540093
      13A     -2.279395    14A     -2.274460    15A     -2.274412
      16A     -2.263738    17A     -2.263732    18A     -1.169104
      19A     -1.075945    20A     -1.039501    21A     -0.947881
      22A     -0.940557    23A     -0.896038    24A     -0.800160
      25A     -0.779027    26A     -0.688361    27A     -0.657745
      28A     -0.598675    29A     -0.587211    30A     -0.581639
      31A     -0.576552    32A     -0.559330    33A     -0.549048
      34A     -0.540273    35A     -0.500829    36A     -0.467885
      37A     -0.456557    38A     -0.387410    39A     -0.367983
      40A     -0.348512    41A     -0.308440

  @DF-RHF Final Energy:  -602.92899184801126

   => Energetics <=

    Nuclear Repulsion Energy =            524.4496768178771617
    One-Electron Energy =               -1971.7375948380083628
    Two-Electron Energy =                 844.3589261721199364
    Total Energy =                       -602.9289918480112647
  Basis Set: (AUG-CC-PVTZ AUX)
    Blend: AUG-CC-PVTZ-RI + DEF2-QZVPP-RI
    Molecular point group: c1

    Geometry (in Angstrom), charge = 0, multiplicity = 1:

       Center              X                  Y                   Z               Mass
    ------------   -----------------  -----------------  -----------------  -----------------
         I           -1.770329493786     0.003825965716    -0.002809659167   126.904471900000
         C            2.310655506214    -1.294634834284     0.062087840833    12.000000000000
         C            2.425191506214     1.228249965716    -0.017969659167    12.000000000000
         C            3.107344506214     0.003829965716    -0.024508659167    12.000000000000
         C            1.022654506214    -1.214823034284    -0.008256659167    12.000000000000
         C            1.022649506214     1.222477965716    -0.008730659167    12.000000000000
         C            0.338132506214     0.003832965716    -0.002855659167    12.000000000000
         C            3.180654506214    -2.525974034284     0.011948340833    12.000000000000
         C            3.180603506214     2.533670965716     0.010973340833    12.000000000000
         H            4.197010506214     0.003822965716    -0.038174659167     1.007825032230
         H            0.473359506214    -2.153078034284    -0.009488659167     1.007825032230
         H            0.473359506214     2.160736965716    -0.010328659167     1.007825032230
         H            4.144928506214    -2.434262034284    -0.493792659167     1.007825032230
         H            2.614325506214    -3.322326034284    -0.476770659167     1.007825032230
         H            3.373639506214    -2.839244034284     1.043038340833     1.007825032230
         H            2.614938506214     3.329428965716    -0.479485659167     1.007825032230
         H            3.372126506214     2.848182965716     1.041957340833     1.007825032230
         H            4.145580506214     2.441375965716    -0.493309659167     1.007825032230

  Basis Set: AUG-CC-PVTZ
    Blend: AUG-CC-PVTZ
  Basis Set: (AUG-CC-PVTZ AUX)
    Blend: AUG-CC-PVTZ-JKFIT + DEF2-UNIVERSAL-JKFIT
	 Reference Energy          =    -602.9289918480112647 [Eh]
	 Singles Energy            =      -0.0000000000000000 [Eh]
	 Same-Spin Energy          =      -0.4253779488828372 [Eh]
	 Opposite-Spin Energy      =      -1.3012578351902735 [Eh]
	 Correlation Energy        =      -1.7266357840731108 [Eh]
	 Total Energy              =    -604.6556276320843608 [Eh]

	 ================> DF-SCS-MP2 Energies <==================
	-----------------------------------------------------------
	 SCS Same-Spin Scale       =       0.3333333333333333 [-]
	 SCS Opposite-Spin Scale   =       1.2000000000000000 [-]
	 SCS Same-Spin Energy      =      -0.1417926496276124 [Eh]
	 SCS Opposite-Spin Energy  =      -1.5615094022283282 [Eh]
	 SCS Correlation Energy    =      -1.7033020518559405 [Eh]
	 SCS Total Energy          =    -604.6322938998672498 [Eh]
	-----------------------------------------------------------

  Dipole Moment: [D]
     X:     2.1694      Y:    -0.0153      Z:     0.0529     Total:     2.1701

*** Psi4 exiting successfully. Buy a developer a beer!
