                               Psi4 1.4a3.dev225

  ==> Input File <==

--------------------------------------------------------------------------
#psi4
#
memory 32 gb

molecule  {
0 1
  I       -2.0593870    -0.0000050     0.0008870
  C        2.1361270    -1.2244290    -0.0138000
  C        2.1361340     1.2244190    -0.0142730
  C        2.8182870    -0.0000010    -0.0208120
  C        0.7335970    -1.2186540    -0.0045600
  C        0.7335920     1.2186470    -0.0050340
  C        0.0490750     0.0000020     0.0008410
  C        2.8915970    -2.5298050     0.0156450
  C        2.8915460     2.5298400     0.0146700
  H        3.9079530    -0.0000080    -0.0344780
  H        0.1843020    -2.1569090    -0.0057920
  H        0.1843020     2.1569060    -0.0066320
  H        3.8891207    -2.4591700    -0.4247713
  H        2.3252680    -3.3261570    -0.4730740
  H        3.0845820    -2.8430750     1.0467350
  H        2.3258810     3.3255980    -0.4757890
  H        3.0830690     2.8443520     1.0456540
  H        3.8565230     2.4375450    -0.4896130
units angstrom
no_reorient  #important for SAPT in psi4, default
symmetry c1  #important for SAPT in psi4, default
}

set PROPERTIES_ORIGIN ["COM"]
properties('MP2/aug-cc-pvtz', properties = ['dipole'])
--------------------------------------------------------------------------

    Molecular point group: c1
  Charge       = 0
  Multiplicity = 1
  Basis Set: AUG-CC-PVTZ
    Blend: AUG-CC-PVTZ
  Basis Set: (AUG-CC-PVTZ AUX)
    Blend: AUG-CC-PVTZ-JKFIT + DEF2-UNIVERSAL-JKFIT

    Orbital Energies [Eh]
    ---------------------

    Doubly Occupied:

       1A    -11.290534     2A    -11.256230     3A    -11.255664
       4A    -11.242864     5A    -11.242630     6A    -11.236865
       7A    -11.232010     8A    -11.232002     9A     -7.717327
      10A     -5.549029    11A     -5.539452    12A     -5.539415
      13A     -2.278697    14A     -2.273749    15A     -2.273744
      16A     -2.263087    17A     -2.263080    18A     -1.167630
      19A     -1.066915    20A     -1.046846    21A     -0.949495
      22A     -0.939094    23A     -0.895346    24A     -0.794363
      25A     -0.787280    26A     -0.688594    27A     -0.660278
      28A     -0.595465    29A     -0.588035    30A     -0.576728
      31A     -0.572069    32A     -0.560783    33A     -0.549633
      34A     -0.539057    35A     -0.498051    36A     -0.494824
      37A     -0.450995    38A     -0.392110    39A     -0.367387
      40A     -0.331105    41A     -0.318726

  @DF-RHF Final Energy:  -602.95284903555080

   => Energetics <=

    Nuclear Repulsion Energy =            524.2012163311716222
    One-Electron Energy =               -1971.2737575353057764
    Two-Electron Energy =                 844.1196921685834695
    Total Energy =                       -602.9528490355507984
  Basis Set: (AUG-CC-PVTZ AUX)
    Blend: AUG-CC-PVTZ-RI + DEF2-QZVPP-RI
    Molecular point group: c1

    Geometry (in Angstrom), charge = 0, multiplicity = 1:

       Center              X                  Y                   Z               Mass
    ------------   -----------------  -----------------  -----------------  -----------------
         I           -1.776398503394     0.000087631602     0.001023419941   126.904471900000
         C            2.419115496606    -1.224336368398    -0.013663580059    12.000000000000
         C            2.419122496606     1.224511631602    -0.014136580059    12.000000000000
         C            3.101275496606     0.000091631602    -0.020675580059    12.000000000000
         C            1.016585496606    -1.218561368398    -0.004423580059    12.000000000000
         C            1.016580496606     1.218739631602    -0.004897580059    12.000000000000
         C            0.332063496606     0.000094631602     0.000977419941    12.000000000000
         C            3.174585496606    -2.529712368398     0.015781419941    12.000000000000
         C            3.174534496606     2.529932631602     0.014806419941    12.000000000000
         H            4.190941496606     0.000084631602    -0.034341580059     1.007825032230
         H            0.467290496606    -2.156816368398    -0.005655580059     1.007825032230
         H            0.467290496606     2.156998631602    -0.006495580059     1.007825032230
         H            4.172109196606    -2.459077368398    -0.424634880059     1.007825032230
         H            2.608256496606    -3.326064368398    -0.472937580059     1.007825032230
         H            3.367570496606    -2.842982368398     1.046871419941     1.007825032230
         H            2.608869496606     3.325690631602    -0.475652580059     1.007825032230
         H            3.366057496606     2.844444631602     1.045790419941     1.007825032230
         H            4.139511496606     2.437637631602    -0.489476580059     1.007825032230

  Basis Set: AUG-CC-PVTZ
    Blend: AUG-CC-PVTZ
  Basis Set: (AUG-CC-PVTZ AUX)
    Blend: AUG-CC-PVTZ-JKFIT + DEF2-UNIVERSAL-JKFIT
	 Reference Energy          =    -602.9528490355507984 [Eh]
	 Singles Energy            =      -0.0000000000000000 [Eh]
	 Same-Spin Energy          =      -0.4258861703324562 [Eh]
	 Opposite-Spin Energy      =      -1.3000686276403877 [Eh]
	 Correlation Energy        =      -1.7259547979728440 [Eh]
	 Total Energy              =    -604.6788038335236024 [Eh]

	 ================> DF-SCS-MP2 Energies <==================
	-----------------------------------------------------------
	 SCS Same-Spin Scale       =       0.3333333333333333 [-]
	 SCS Opposite-Spin Scale   =       1.2000000000000000 [-]
	 SCS Same-Spin Energy      =      -0.1419620567774854 [Eh]
	 SCS Opposite-Spin Energy  =      -1.5600823531684651 [Eh]
	 SCS Correlation Energy    =      -1.7020444099459504 [Eh]
	 SCS Total Energy          =    -604.6548934454967821 [Eh]
	-----------------------------------------------------------

  Dipole Moment: [D]
     X:     2.2146      Y:    -0.0010      Z:     0.0994     Total:     2.2168

*** Psi4 exiting successfully. Buy a developer a beer!
