                               Psi4 1.4a3.dev225

  ==> Input File <==

--------------------------------------------------------------------------
#psi4
#
memory 32 gb

molecule  {
0 1
  I       -2.0593870    -0.0000050     0.0008870
  C        2.1361270    -1.2244290    -0.0138000
  C        2.1361340     1.2244190    -0.0142730
  C        2.8182870    -0.0000010    -0.0208120
  C        0.7335970    -1.2186540    -0.0045600
  C        0.7335920     1.2186470    -0.0050340
  C        0.0490750     0.0000020     0.0008410
  C        2.8915970    -2.5298050     0.0156450
  C        2.8915460     2.5298400     0.0146700
  H        3.9079530    -0.0000080    -0.0344780
  H        0.1843020    -2.1569090    -0.0057920
  H        0.1843020     2.1569060    -0.0066320
  H        3.8558710    -2.4380930    -0.4900960
  H        2.3252680    -3.3261570    -0.4730740
  H        3.0757681    -2.8287675     0.9996435
  H        2.3258810     3.3255980    -0.4757890
  H        3.0830690     2.8443520     1.0456540
  H        3.8565230     2.4375450    -0.4896130
units angstrom
no_reorient  #important for SAPT in psi4, default
symmetry c1  #important for SAPT in psi4, default
}

set PROPERTIES_ORIGIN ["COM"]
properties('MP2/aug-cc-pvtz', properties = ['dipole'])
--------------------------------------------------------------------------

    Molecular point group: c1
  Charge       = 0
  Multiplicity = 1
  Basis Set: AUG-CC-PVTZ
    Blend: AUG-CC-PVTZ
  Basis Set: (AUG-CC-PVTZ AUX)
    Blend: AUG-CC-PVTZ-JKFIT + DEF2-UNIVERSAL-JKFIT

    Orbital Energies [Eh]
    ---------------------

    Doubly Occupied:

       1A    -11.290300     2A    -11.255547     3A    -11.255342
       4A    -11.242464     5A    -11.242422     6A    -11.236647
       7A    -11.231920     8A    -11.225936     9A     -7.717167
      10A     -5.548864    11A     -5.539294    12A     -5.539258
      13A     -2.278531    14A     -2.273587    15A     -2.273581
      16A     -2.262932    17A     -2.262926    18A     -1.167517
      19A     -1.067627    20A     -1.047145    21A     -0.951747
      22A     -0.940106    23A     -0.895178    24A     -0.794822
      25A     -0.787113    26A     -0.688494    27A     -0.659754
      28A     -0.595993    29A     -0.594294    30A     -0.581025
      31A     -0.573247    32A     -0.559828    33A     -0.548962
      34A     -0.536963    35A     -0.499654    36A     -0.494794
      37A     -0.450442    38A     -0.392239    39A     -0.367231
      40A     -0.331381    41A     -0.318643

  @DF-RHF Final Energy:  -602.95236882667155

   => Energetics <=

    Nuclear Repulsion Energy =            524.4895851025364664
    One-Electron Energy =               -1971.8420704797381404
    Two-Electron Energy =                 844.4001165505301287
    Total Energy =                       -602.9523688266715453
  Basis Set: (AUG-CC-PVTZ AUX)
    Blend: AUG-CC-PVTZ-RI + DEF2-QZVPP-RI
    Molecular point group: c1

    Geometry (in Angstrom), charge = 0, multiplicity = 1:

       Center              X                  Y                   Z               Mass
    ------------   -----------------  -----------------  -----------------  -----------------
         I           -1.776215756254    -0.000066097897     0.001511817013   126.904471900000
         C            2.419298243746    -1.224490097897    -0.013175182987    12.000000000000
         C            2.419305243746     1.224357902103    -0.013648182987    12.000000000000
         C            3.101458243746    -0.000062097897    -0.020187182987    12.000000000000
         C            1.016768243746    -1.218715097897    -0.003935182987    12.000000000000
         C            1.016763243746     1.218585902103    -0.004409182987    12.000000000000
         C            0.332246243746    -0.000059097897     0.001465817013    12.000000000000
         C            3.174768243746    -2.529866097897     0.016269817013    12.000000000000
         C            3.174717243746     2.529778902103     0.015294817013    12.000000000000
         H            4.191124243746    -0.000069097897    -0.033853182987     1.007825032230
         H            0.467473243746    -2.156970097897    -0.005167182987     1.007825032230
         H            0.467473243746     2.156844902103    -0.006007182987     1.007825032230
         H            4.139042243746    -2.438154097897    -0.489471182987     1.007825032230
         H            2.608439243746    -3.326218097897    -0.472449182987     1.007825032230
         H            3.358939343746    -2.828828597897     1.000268317013     1.007825032230
         H            2.609052243746     3.325536902103    -0.475164182987     1.007825032230
         H            3.366240243746     2.844290902103     1.046278817013     1.007825032230
         H            4.139694243746     2.437483902103    -0.488988182987     1.007825032230

  Basis Set: AUG-CC-PVTZ
    Blend: AUG-CC-PVTZ
  Basis Set: (AUG-CC-PVTZ AUX)
    Blend: AUG-CC-PVTZ-JKFIT + DEF2-UNIVERSAL-JKFIT
	 Reference Energy          =    -602.9523688266715453 [Eh]
	 Singles Energy            =      -0.0000000000000000 [Eh]
	 Same-Spin Energy          =      -0.4258820865139153 [Eh]
	 Opposite-Spin Energy      =      -1.2998218035694906 [Eh]
	 Correlation Energy        =      -1.7257038900834059 [Eh]
	 Total Energy              =    -604.6780727167549685 [Eh]

	 ================> DF-SCS-MP2 Energies <==================
	-----------------------------------------------------------
	 SCS Same-Spin Scale       =       0.3333333333333333 [-]
	 SCS Opposite-Spin Scale   =       1.2000000000000000 [-]
	 SCS Same-Spin Energy      =      -0.1419606955046384 [Eh]
	 SCS Opposite-Spin Energy  =      -1.5597861642833888 [Eh]
	 SCS Correlation Energy    =      -1.7017468597880272 [Eh]
	 SCS Total Energy          =    -604.6541156864595905 [Eh]
	-----------------------------------------------------------

  Dipole Moment: [D]
     X:     2.2116      Y:    -0.0152      Z:     0.0930     Total:     2.2136

*** Psi4 exiting successfully. Buy a developer a beer!
