                               Psi4 1.4a3.dev225

  ==> Input File <==

--------------------------------------------------------------------------
#psi4
#
memory 32 gb

molecule  {
0 1
  I       -2.0593870    -0.0000050     0.0008870
  C        2.1361270    -1.2244290    -0.0138000
  C        2.1361340     1.2244190    -0.0142730
  C        2.8182870    -0.0000010    -0.0208120
  C        0.7335970    -1.2186540    -0.0045600
  C        0.7335920     1.2186470    -0.0050340
  C        0.0001021     0.0871886     0.0012274
  C        2.8915970    -2.5298050     0.0156450
  C        2.8915460     2.5298400     0.0146700
  H        3.9079530    -0.0000080    -0.0344780
  H        0.1843020    -2.1569090    -0.0057920
  H        0.1843020     2.1569060    -0.0066320
  H        3.8558710    -2.4380930    -0.4900960
  H        2.3252680    -3.3261570    -0.4730740
  H        3.0845820    -2.8430750     1.0467350
  H        2.3258810     3.3255980    -0.4757890
  H        3.0830690     2.8443520     1.0456540
  H        3.8565230     2.4375450    -0.4896130
units angstrom
no_reorient  #important for SAPT in psi4, default
symmetry c1  #important for SAPT in psi4, default
}

set PROPERTIES_ORIGIN ["COM"]
properties('MP2/aug-cc-pvtz', properties = ['dipole'])
--------------------------------------------------------------------------

    Molecular point group: c1
  Charge       = 0
  Multiplicity = 1
  Basis Set: AUG-CC-PVTZ
    Blend: AUG-CC-PVTZ
  Basis Set: (AUG-CC-PVTZ AUX)
    Blend: AUG-CC-PVTZ-JKFIT + DEF2-UNIVERSAL-JKFIT

    Orbital Energies [Eh]
    ---------------------

    Doubly Occupied:

       1A    -11.289934     2A    -11.255138     3A    -11.253430
       4A    -11.249211     5A    -11.237255     6A    -11.236668
       7A    -11.231661     8A    -11.230786     9A     -7.720978
      10A     -5.552844    11A     -5.543063    12A     -5.543062
      13A     -2.282860    14A     -2.277569    15A     -2.277512
      16A     -2.266700    17A     -2.266694    18A     -1.163126
      19A     -1.066606    20A     -1.045401    21A     -0.948912
      22A     -0.933786    23A     -0.901176    24A     -0.798037
      25A     -0.778975    26A     -0.685305    27A     -0.654999
      28A     -0.594526    29A     -0.588244    30A     -0.576342
      31A     -0.569339    32A     -0.559000    33A     -0.548927
      34A     -0.535094    35A     -0.495773    36A     -0.492483
      37A     -0.457469    38A     -0.396182    39A     -0.369272
      40A     -0.333327    41A     -0.311524

  @DF-RHF Final Energy:  -602.94256454377660

   => Energetics <=

    Nuclear Repulsion Energy =            524.1744948196572977
    One-Electron Energy =               -1971.1957425774319290
    Two-Electron Energy =                 844.0786832139981470
    Total Energy =                       -602.9425645437765979
  Basis Set: (AUG-CC-PVTZ AUX)
    Blend: AUG-CC-PVTZ-RI + DEF2-QZVPP-RI
    Molecular point group: c1

    Geometry (in Angstrom), charge = 0, multiplicity = 1:

       Center              X                  Y                   Z               Mass
    ------------   -----------------  -----------------  -----------------  -----------------
         I           -1.773720693478    -0.004514078070     0.001287237573   126.904471900000
         C            2.421793306522    -1.228938078070    -0.013399762427    12.000000000000
         C            2.421800306522     1.219909921930    -0.013872762427    12.000000000000
         C            3.103953306522    -0.004510078070    -0.020411762427    12.000000000000
         C            1.019263306522    -1.223163078070    -0.004159762427    12.000000000000
         C            1.019258306522     1.214137921930    -0.004633762427    12.000000000000
         C            0.285768406522     0.082679521930     0.001627637573    12.000000000000
         C            3.177263306522    -2.534314078070     0.016045237573    12.000000000000
         C            3.177212306522     2.525330921930     0.015070237573    12.000000000000
         H            4.193619306522    -0.004517078070    -0.034077762427     1.007825032230
         H            0.469968306522    -2.161418078070    -0.005391762427     1.007825032230
         H            0.469968306522     2.152396921930    -0.006231762427     1.007825032230
         H            4.141537306522    -2.442602078070    -0.489695762427     1.007825032230
         H            2.610934306522    -3.330666078070    -0.472673762427     1.007825032230
         H            3.370248306522    -2.847584078070     1.047135237573     1.007825032230
         H            2.611547306522     3.321088921930    -0.475388762427     1.007825032230
         H            3.368735306522     2.839842921930     1.046054237573     1.007825032230
         H            4.142189306522     2.433035921930    -0.489212762427     1.007825032230

  Basis Set: AUG-CC-PVTZ
    Blend: AUG-CC-PVTZ
  Basis Set: (AUG-CC-PVTZ AUX)
    Blend: AUG-CC-PVTZ-JKFIT + DEF2-UNIVERSAL-JKFIT
	 Reference Energy          =    -602.9425645437765979 [Eh]
	 Singles Energy            =      -0.0000000000000000 [Eh]
	 Same-Spin Energy          =      -0.4260432189959507 [Eh]
	 Opposite-Spin Energy      =      -1.3014662061099205 [Eh]
	 Correlation Energy        =      -1.7275094251058711 [Eh]
	 Total Energy              =    -604.6700739688824342 [Eh]

	 ================> DF-SCS-MP2 Energies <==================
	-----------------------------------------------------------
	 SCS Same-Spin Scale       =       0.3333333333333333 [-]
	 SCS Opposite-Spin Scale   =       1.2000000000000000 [-]
	 SCS Same-Spin Energy      =      -0.1420144063319835 [Eh]
	 SCS Opposite-Spin Energy  =      -1.5617594473319045 [Eh]
	 SCS Correlation Energy    =      -1.7037738536638880 [Eh]
	 SCS Total Energy          =    -604.6463383974404451 [Eh]
	-----------------------------------------------------------

  Dipole Moment: [D]
     X:     1.9861      Y:    -0.0189      Z:     0.0779     Total:     1.9877

*** Psi4 exiting successfully. Buy a developer a beer!
