                               Psi4 1.4a3.dev225

  ==> Input File <==

--------------------------------------------------------------------------
#psi4
#
memory 32 gb

molecule  {
0 1
  I       -2.0590657    -0.0368023     0.0010639
  C        2.1361270    -1.2244290    -0.0138000
  C        2.1361340     1.2244190    -0.0142730
  C        2.8182870    -0.0000010    -0.0208120
  C        0.7335970    -1.2186540    -0.0045600
  C        0.7335920     1.2186470    -0.0050340
  C        0.0490750     0.0000020     0.0008410
  C        2.8915970    -2.5298050     0.0156450
  C        2.8915460     2.5298400     0.0146700
  H        3.9079530    -0.0000080    -0.0344780
  H        0.1843020    -2.1569090    -0.0057920
  H        0.1843020     2.1569060    -0.0066320
  H        3.8558710    -2.4380930    -0.4900960
  H        2.3252680    -3.3261570    -0.4730740
  H        3.0845820    -2.8430750     1.0467350
  H        2.3258810     3.3255980    -0.4757890
  H        3.0830690     2.8443520     1.0456540
  H        3.8565230     2.4375450    -0.4896130
units angstrom
no_reorient  #important for SAPT in psi4, default
symmetry c1  #important for SAPT in psi4, default
}

set PROPERTIES_ORIGIN ["COM"]
properties('MP2/aug-cc-pvtz', properties = ['dipole'])
--------------------------------------------------------------------------

    Molecular point group: c1
  Charge       = 0
  Multiplicity = 1
  Basis Set: AUG-CC-PVTZ
    Blend: AUG-CC-PVTZ
  Basis Set: (AUG-CC-PVTZ AUX)
    Blend: AUG-CC-PVTZ-JKFIT + DEF2-UNIVERSAL-JKFIT

    Orbital Energies [Eh]
    ---------------------

    Doubly Occupied:

       1A    -11.290402     2A    -11.255795     3A    -11.255514
       4A    -11.242901     5A    -11.242319     6A    -11.236828
       7A    -11.232067     8A    -11.231928     9A     -7.717247
      10A     -5.548947    11A     -5.539373    12A     -5.539337
      13A     -2.278615    14A     -2.273669    15A     -2.273663
      16A     -2.263010    17A     -2.263003    18A     -1.167580
      19A     -1.066976    20A     -1.046881    21A     -0.949368
      22A     -0.938937    23A     -0.895265    24A     -0.793948
      25A     -0.786940    26A     -0.688476    27A     -0.659952
      28A     -0.594860    29A     -0.589540    30A     -0.577876
      31A     -0.573284    32A     -0.560140    33A     -0.549115
      34A     -0.537236    35A     -0.498711    36A     -0.494927
      37A     -0.450555    38A     -0.392175    39A     -0.367292
      40A     -0.331239    41A     -0.318692

  @DF-RHF Final Energy:  -602.95333044970550

   => Energetics <=

    Nuclear Repulsion Energy =            524.2697029928083339
    One-Electron Energy =               -1971.4169017795884429
    Two-Electron Energy =                 844.1938683370746048
    Total Energy =                       -602.9533304497055042
  Basis Set: (AUG-CC-PVTZ AUX)
    Blend: AUG-CC-PVTZ-RI + DEF2-QZVPP-RI
    Molecular point group: c1

    Geometry (in Angstrom), charge = 0, multiplicity = 1:

       Center              X                  Y                   Z               Mass
    ------------   -----------------  -----------------  -----------------  -----------------
         I           -1.776108519398    -0.016670862251     0.001387350811   126.904471900000
         C            2.419084180602    -1.204297562251    -0.013476549189    12.000000000000
         C            2.419091180602     1.244550437749    -0.013949549189    12.000000000000
         C            3.101244180602     0.020130437749    -0.020488549189    12.000000000000
         C            1.016554180602    -1.198522562251    -0.004236549189    12.000000000000
         C            1.016549180602     1.238778437749    -0.004710549189    12.000000000000
         C            0.332032180602     0.020133437749     0.001164450811    12.000000000000
         C            3.174554180602    -2.509673562251     0.015968450811    12.000000000000
         C            3.174503180602     2.549971437749     0.014993450811    12.000000000000
         H            4.190910180602     0.020123437749    -0.034154549189     1.007825032230
         H            0.467259180602    -2.136777562251    -0.005468549189     1.007825032230
         H            0.467259180602     2.177037437749    -0.006308549189     1.007825032230
         H            4.138828180602    -2.417961562251    -0.489772549189     1.007825032230
         H            2.608225180602    -3.306025562251    -0.472750549189     1.007825032230
         H            3.367539180602    -2.822943562251     1.047058450811     1.007825032230
         H            2.608838180602     3.345729437749    -0.475465549189     1.007825032230
         H            3.366026180602     2.864483437749     1.045977450811     1.007825032230
         H            4.139480180602     2.457676437749    -0.489289549189     1.007825032230

  Basis Set: AUG-CC-PVTZ
    Blend: AUG-CC-PVTZ
  Basis Set: (AUG-CC-PVTZ AUX)
    Blend: AUG-CC-PVTZ-JKFIT + DEF2-UNIVERSAL-JKFIT
	 Reference Energy          =    -602.9533304497055042 [Eh]
	 Singles Energy            =      -0.0000000000000000 [Eh]
	 Same-Spin Energy          =      -0.4258759656176924 [Eh]
	 Opposite-Spin Energy      =      -1.3000936568808110 [Eh]
	 Correlation Energy        =      -1.7259696224985035 [Eh]
	 Total Energy              =    -604.6793000722040006 [Eh]

	 ================> DF-SCS-MP2 Energies <==================
	-----------------------------------------------------------
	 SCS Same-Spin Scale       =       0.3333333333333333 [-]
	 SCS Opposite-Spin Scale   =       1.2000000000000000 [-]
	 SCS Same-Spin Energy      =      -0.1419586552058975 [Eh]
	 SCS Opposite-Spin Energy  =      -1.5601123882569732 [Eh]
	 SCS Correlation Energy    =      -1.7020710434628705 [Eh]
	 SCS Total Energy          =    -604.6554014931683696 [Eh]
	-----------------------------------------------------------

  Dipole Moment: [D]
     X:     2.2014      Y:     0.0083      Z:     0.0790     Total:     2.2028

*** Psi4 exiting successfully. Buy a developer a beer!
