                               Psi4 1.4a3.dev225

  ==> Input File <==

--------------------------------------------------------------------------
#psi4
#
memory 32 gb

molecule  {
0 1
  I       -2.0593870    -0.0000050     0.0008870
  C        2.1361270    -1.2244290    -0.0138000
  C        2.1361340     1.2244190    -0.0142730
  C        2.8182870    -0.0000010    -0.0208120
  C        0.7335970    -1.2186540    -0.0045600
  C        0.7335920     1.2186470    -0.0050340
  C        0.0490750     0.0000020     0.0008410
  C        2.8915970    -2.5298050     0.0156450
  C        2.8915460     2.5298400     0.0146700
  H        3.9079530    -0.0000080    -0.0344780
  H        0.1843020    -2.1569090    -0.0057920
  H        0.1843020     2.1569060    -0.0066320
  H        3.8558710    -2.4380930    -0.4900960
  H        2.3252680    -3.3261570    -0.4730740
  H        3.0881076    -2.8487980     1.0655716
  H        2.3258810     3.3255980    -0.4757890
  H        3.0830690     2.8443520     1.0456540
  H        3.8565230     2.4375450    -0.4896130
units angstrom
no_reorient  #important for SAPT in psi4, default
symmetry c1  #important for SAPT in psi4, default
}

set PROPERTIES_ORIGIN ["COM"]
properties('MP2/aug-cc-pvtz', properties = ['dipole'])
--------------------------------------------------------------------------

    Molecular point group: c1
  Charge       = 0
  Multiplicity = 1
  Basis Set: AUG-CC-PVTZ
    Blend: AUG-CC-PVTZ
  Basis Set: (AUG-CC-PVTZ AUX)
    Blend: AUG-CC-PVTZ-JKFIT + DEF2-UNIVERSAL-JKFIT

    Orbital Energies [Eh]
    ---------------------

    Doubly Occupied:

       1A    -11.290452     2A    -11.255793     3A    -11.255705
       4A    -11.242707     5A    -11.242677     6A    -11.236916
       7A    -11.234377     8A    -11.232034     9A     -7.717287
      10A     -5.548986    11A     -5.539412    12A     -5.539376
      13A     -2.278653    14A     -2.273708    15A     -2.273701
      16A     -2.263049    17A     -2.263042    18A     -1.167619
      19A     -1.066779    20A     -1.046796    21A     -0.948677
      22A     -0.938369    23A     -0.895323    24A     -0.793659
      25A     -0.786880    26A     -0.688486    27A     -0.660043
      28A     -0.594969    29A     -0.588119    30A     -0.575913
      31A     -0.573059    32A     -0.560283    33A     -0.549189
      34A     -0.537359    35A     -0.498300    36A     -0.494952
      37A     -0.450620    38A     -0.392149    39A     -0.367348
      40A     -0.331183    41A     -0.318726

  @DF-RHF Final Energy:  -602.95289414340425

   => Energetics <=

    Nuclear Repulsion Energy =            524.1743057647532851
    One-Electron Energy =               -1971.2290542745770381
    Two-Electron Energy =                 844.1018543664193885
    Total Energy =                       -602.9528941434042508
  Basis Set: (AUG-CC-PVTZ AUX)
    Blend: AUG-CC-PVTZ-RI + DEF2-QZVPP-RI
    Molecular point group: c1

    Geometry (in Angstrom), charge = 0, multiplicity = 1:

       Center              X                  Y                   Z               Mass
    ------------   -----------------  -----------------  -----------------  -----------------
         I           -1.776269365749     0.000020925481     0.001225389514   126.904471900000
         C            2.419244634251    -1.224403074519    -0.013461610486    12.000000000000
         C            2.419251634251     1.224444925481    -0.013934610486    12.000000000000
         C            3.101404634251     0.000024925481    -0.020473610486    12.000000000000
         C            1.016714634251    -1.218628074519    -0.004221610486    12.000000000000
         C            1.016709634251     1.218672925481    -0.004695610486    12.000000000000
         C            0.332192634251     0.000027925481     0.001179389514    12.000000000000
         C            3.174714634251    -2.529779074519     0.015983389514    12.000000000000
         C            3.174663634251     2.529865925481     0.015008389514    12.000000000000
         H            4.191070634251     0.000017925481    -0.034139610486     1.007825032230
         H            0.467419634251    -2.156883074519    -0.005453610486     1.007825032230
         H            0.467419634251     2.156931925481    -0.006293610486     1.007825032230
         H            4.138988634251    -2.438067074519    -0.489757610486     1.007825032230
         H            2.608385634251    -3.326131074519    -0.472735610486     1.007825032230
         H            3.371225234251    -2.848772074519     1.065909989514     1.007825032230
         H            2.608998634251     3.325623925481    -0.475450610486     1.007825032230
         H            3.366186634251     2.844377925481     1.045992389514     1.007825032230
         H            4.139640634251     2.437570925481    -0.489274610486     1.007825032230

  Basis Set: AUG-CC-PVTZ
    Blend: AUG-CC-PVTZ
  Basis Set: (AUG-CC-PVTZ AUX)
    Blend: AUG-CC-PVTZ-JKFIT + DEF2-UNIVERSAL-JKFIT
	 Reference Energy          =    -602.9528941434042508 [Eh]
	 Singles Energy            =      -0.0000000000000000 [Eh]
	 Same-Spin Energy          =      -0.4258700766708554 [Eh]
	 Opposite-Spin Energy      =      -1.3002084164872210 [Eh]
	 Correlation Energy        =      -1.7260784931580764 [Eh]
	 Total Energy              =    -604.6789726365623210 [Eh]

	 ================> DF-SCS-MP2 Energies <==================
	-----------------------------------------------------------
	 SCS Same-Spin Scale       =       0.3333333333333333 [-]
	 SCS Opposite-Spin Scale   =       1.2000000000000000 [-]
	 SCS Same-Spin Energy      =      -0.1419566922236185 [Eh]
	 SCS Opposite-Spin Energy  =      -1.5602500997846651 [Eh]
	 SCS Correlation Energy    =      -1.7022067920082835 [Eh]
	 SCS Total Energy          =    -604.6551009354125199 [Eh]
	-----------------------------------------------------------

  Dipole Moment: [D]
     X:     2.1963      Y:     0.0073      Z:     0.0725     Total:     2.1975

*** Psi4 exiting successfully. Buy a developer a beer!
