                               Psi4 1.4a3.dev225

  ==> Input File <==

--------------------------------------------------------------------------
#psi4
#
memory 32 gb

molecule  {
0 1
  I       -2.0593870    -0.0000050     0.0008870
  C        2.1361270    -1.2244290    -0.0138000
  C        2.1361340     1.2244190    -0.0142730
  C        2.8182870    -0.0000010    -0.0208120
  C        0.7335970    -1.2186540    -0.0045600
  C        0.7335920     1.2186470    -0.0050340
  C        0.1490750     0.0000023     0.0008388
  C        2.8915970    -2.5298050     0.0156450
  C        2.8915460     2.5298400     0.0146700
  H        3.9079530    -0.0000080    -0.0344780
  H        0.1843020    -2.1569090    -0.0057920
  H        0.1843020     2.1569060    -0.0066320
  H        3.8558710    -2.4380930    -0.4900960
  H        2.3252680    -3.3261570    -0.4730740
  H        3.0845820    -2.8430750     1.0467350
  H        2.3258810     3.3255980    -0.4757890
  H        3.0830690     2.8443520     1.0456540
  H        3.8565230     2.4375450    -0.4896130
units angstrom
no_reorient  #important for SAPT in psi4, default
symmetry c1  #important for SAPT in psi4, default
}

set PROPERTIES_ORIGIN ["COM"]
properties('MP2/aug-cc-pvtz', properties = ['dipole'])
--------------------------------------------------------------------------

    Molecular point group: c1
  Charge       = 0
  Multiplicity = 1
  Basis Set: AUG-CC-PVTZ
    Blend: AUG-CC-PVTZ
  Basis Set: (AUG-CC-PVTZ AUX)
    Blend: AUG-CC-PVTZ-JKFIT + DEF2-UNIVERSAL-JKFIT

    Orbital Energies [Eh]
    ---------------------

    Doubly Occupied:

       1A    -11.291445     2A    -11.259644     3A    -11.259622
       4A    -11.241291     5A    -11.241253     6A    -11.238170
       7A    -11.234226     8A    -11.234225     9A     -7.707845
      10A     -5.539149    11A     -5.530102    12A     -5.530019
      13A     -2.268245    14A     -2.263998    15A     -2.263928
      16A     -2.253845    17A     -2.253838    18A     -1.181235
      19A     -1.073168    20A     -1.051995    21A     -0.951464
      22A     -0.950083    23A     -0.882020    24A     -0.799210
      25A     -0.790010    26A     -0.696356    27A     -0.669852
      28A     -0.596663    29A     -0.593261    30A     -0.589353
      31A     -0.578785    32A     -0.563231    33A     -0.548341
      34A     -0.541200    35A     -0.509026    36A     -0.502435
      37A     -0.424889    38A     -0.385275    39A     -0.360521
      40A     -0.336682    41A     -0.325966

  @DF-RHF Final Energy:  -602.94773196387291

   => Energetics <=

    Nuclear Repulsion Energy =            524.6222501665719165
    One-Electron Energy =               -1972.1162346608111875
    Two-Electron Energy =                 844.5462525303662460
    Total Energy =                       -602.9477319638729114
  Basis Set: (AUG-CC-PVTZ AUX)
    Blend: AUG-CC-PVTZ-RI + DEF2-QZVPP-RI
    Molecular point group: c1

    Geometry (in Angstrom), charge = 0, multiplicity = 1:

       Center              X                  Y                   Z               Mass
    ------------   -----------------  -----------------  -----------------  -----------------
         I           -1.781427022144    -0.000003953860     0.001307339748   126.904471900000
         C            2.414086977856    -1.224427953860    -0.013379660252    12.000000000000
         C            2.414093977856     1.224420046140    -0.013852660252    12.000000000000
         C            3.096246977856     0.000000046140    -0.020391660252    12.000000000000
         C            1.011556977856    -1.218652953860    -0.004139660252    12.000000000000
         C            1.011551977856     1.218648046140    -0.004613660252    12.000000000000
         C            0.427034977856     0.000003346140     0.001259139748    12.000000000000
         C            3.169556977856    -2.529803953860     0.016065339748    12.000000000000
         C            3.169505977856     2.529841046140     0.015090339748    12.000000000000
         H            4.185912977856    -0.000006953860    -0.034057660252     1.007825032230
         H            0.462261977856    -2.156907953860    -0.005371660252     1.007825032230
         H            0.462261977856     2.156907046140    -0.006211660252     1.007825032230
         H            4.133830977856    -2.438091953860    -0.489675660252     1.007825032230
         H            2.603227977856    -3.326155953860    -0.472653660252     1.007825032230
         H            3.362541977856    -2.843073953860     1.047155339748     1.007825032230
         H            2.603840977856     3.325599046140    -0.475368660252     1.007825032230
         H            3.361028977856     2.844353046140     1.046074339748     1.007825032230
         H            4.134482977856     2.437546046140    -0.489192660252     1.007825032230

  Basis Set: AUG-CC-PVTZ
    Blend: AUG-CC-PVTZ
  Basis Set: (AUG-CC-PVTZ AUX)
    Blend: AUG-CC-PVTZ-JKFIT + DEF2-UNIVERSAL-JKFIT
	 Reference Energy          =    -602.9477319638729114 [Eh]
	 Singles Energy            =      -0.0000000000000000 [Eh]
	 Same-Spin Energy          =      -0.4254347338604465 [Eh]
	 Opposite-Spin Energy      =      -1.2986509273943287 [Eh]
	 Correlation Energy        =      -1.7240856612547752 [Eh]
	 Total Energy              =    -604.6718176251276873 [Eh]

	 ================> DF-SCS-MP2 Energies <==================
	-----------------------------------------------------------
	 SCS Same-Spin Scale       =       0.3333333333333333 [-]
	 SCS Opposite-Spin Scale   =       1.2000000000000000 [-]
	 SCS Same-Spin Energy      =      -0.1418115779534821 [Eh]
	 SCS Opposite-Spin Energy  =      -1.5583811128731944 [Eh]
	 SCS Correlation Energy    =      -1.7001926908266765 [Eh]
	 SCS Total Energy          =    -604.6479246546996364 [Eh]
	-----------------------------------------------------------

  Dipole Moment: [D]
     X:     2.7159      Y:     0.0001      Z:     0.0809     Total:     2.7171

*** Psi4 exiting successfully. Buy a developer a beer!
