                               Psi4 1.4a3.dev225

  ==> Input File <==

--------------------------------------------------------------------------
#psi4
#
memory 32 gb

molecule  {
0 1
  I       -2.0593870    -0.0000050     0.0008870
  C        2.0218663    -1.3018361    -0.0905117
  C        2.1361340     1.2244190    -0.0142730
  C        2.8182870    -0.0000010    -0.0208120
  C        0.7335970    -1.2186540    -0.0045600
  C        0.7335920     1.2186470    -0.0050340
  C        0.0490750     0.0000020     0.0008410
  C        2.8915970    -2.5298050     0.0156450
  C        2.8915460     2.5298400     0.0146700
  H        3.9079530    -0.0000080    -0.0344780
  H        0.1843020    -2.1569090    -0.0057920
  H        0.1843020     2.1569060    -0.0066320
  H        3.8558710    -2.4380930    -0.4900960
  H        2.3252680    -3.3261570    -0.4730740
  H        3.0845820    -2.8430750     1.0467350
  H        2.3258810     3.3255980    -0.4757890
  H        3.0830690     2.8443520     1.0456540
  H        3.8565230     2.4375450    -0.4896130
units angstrom
no_reorient  #important for SAPT in psi4, default
symmetry c1  #important for SAPT in psi4, default
}

set PROPERTIES_ORIGIN ["COM"]
properties('MP2/aug-cc-pvtz', properties = ['dipole'])
--------------------------------------------------------------------------

    Molecular point group: c1
  Charge       = 0
  Multiplicity = 1
  Basis Set: AUG-CC-PVTZ
    Blend: AUG-CC-PVTZ
  Basis Set: (AUG-CC-PVTZ AUX)
    Blend: AUG-CC-PVTZ-JKFIT + DEF2-UNIVERSAL-JKFIT

    Orbital Energies [Eh]
    ---------------------

    Doubly Occupied:

       1A    -11.290886     2A    -11.253186     3A    -11.253132
       4A    -11.245989     5A    -11.245763     6A    -11.232350
       7A    -11.231018     8A    -11.230614     9A     -7.718142
      10A     -5.549864    11A     -5.540245    12A     -5.540223
      13A     -2.279532    14A     -2.274594    15A     -2.274549
      16A     -2.263867    17A     -2.263861    18A     -1.168916
      19A     -1.075944    20A     -1.039497    21A     -0.947675
      22A     -0.940491    23A     -0.896125    24A     -0.800366
      25A     -0.779104    26A     -0.688489    27A     -0.657957
      28A     -0.596777    29A     -0.588698    30A     -0.581737
      31A     -0.575399    32A     -0.559443    33A     -0.548749
      34A     -0.540364    35A     -0.501217    36A     -0.467583
      37A     -0.456222    38A     -0.387563    39A     -0.368150
      40A     -0.348960    41A     -0.308639

  @DF-RHF Final Energy:  -602.92869672329425

   => Energetics <=

    Nuclear Repulsion Energy =            524.3740431552107566
    One-Electron Energy =               -1971.5817181433487804
    Two-Electron Energy =                 844.2789782648437722
    Total Energy =                       -602.9286967232942516
  Basis Set: (AUG-CC-PVTZ AUX)
    Blend: AUG-CC-PVTZ-RI + DEF2-QZVPP-RI
    Molecular point group: c1

    Geometry (in Angstrom), charge = 0, multiplicity = 1:

       Center              X                  Y                   Z               Mass
    ------------   -----------------  -----------------  -----------------  -----------------
         I           -1.770343372874     0.004000310443     0.005275501869   126.904471900000
         C            2.310909927126    -1.297830789557    -0.086123198131    12.000000000000
         C            2.425177627126     1.228424310443    -0.009884498131    12.000000000000
         C            3.107330627126     0.004004310443    -0.016423498131    12.000000000000
         C            1.022640627126    -1.214648689557    -0.000171498131    12.000000000000
         C            1.022635627126     1.222652310443    -0.000645498131    12.000000000000
         C            0.338118627126     0.004007310443     0.005229501869    12.000000000000
         C            3.180640627126    -2.525799689557     0.020033501869    12.000000000000
         C            3.180589627126     2.533845310443     0.019058501869    12.000000000000
         H            4.196996627126     0.003997310443    -0.030089498131     1.007825032230
         H            0.473345627126    -2.152903689557    -0.001403498131     1.007825032230
         H            0.473345627126     2.160911310443    -0.002243498131     1.007825032230
         H            4.144914627126    -2.434087689557    -0.485707498131     1.007825032230
         H            2.614311627126    -3.322151689557    -0.468685498131     1.007825032230
         H            3.373625627126    -2.839069689557     1.051123501869     1.007825032230
         H            2.614924627126     3.329603310443    -0.471400498131     1.007825032230
         H            3.372112627126     2.848357310443     1.050042501869     1.007825032230
         H            4.145566627126     2.441550310443    -0.485224498131     1.007825032230

  Basis Set: AUG-CC-PVTZ
    Blend: AUG-CC-PVTZ
  Basis Set: (AUG-CC-PVTZ AUX)
    Blend: AUG-CC-PVTZ-JKFIT + DEF2-UNIVERSAL-JKFIT
	 Reference Energy          =    -602.9286967232942516 [Eh]
	 Singles Energy            =      -0.0000000000000000 [Eh]
	 Same-Spin Energy          =      -0.4254077681579084 [Eh]
	 Opposite-Spin Energy      =      -1.3013322513213359 [Eh]
	 Correlation Energy        =      -1.7267400194792444 [Eh]
	 Total Energy              =    -604.6554367427735315 [Eh]

	 ================> DF-SCS-MP2 Energies <==================
	-----------------------------------------------------------
	 SCS Same-Spin Scale       =       0.3333333333333333 [-]
	 SCS Opposite-Spin Scale   =       1.2000000000000000 [-]
	 SCS Same-Spin Energy      =      -0.1418025893859695 [Eh]
	 SCS Opposite-Spin Energy  =      -1.5615987015856030 [Eh]
	 SCS Correlation Energy    =      -1.7034012909715723 [Eh]
	 SCS Total Energy          =    -604.6320980142658073 [Eh]
	-----------------------------------------------------------

  Dipole Moment: [D]
     X:     2.1401      Y:     0.0248      Z:     0.1080     Total:     2.1429

*** Psi4 exiting successfully. Buy a developer a beer!
