                               Psi4 1.4a3.dev225

  ==> Input File <==

--------------------------------------------------------------------------
#psi4
#
memory 32 gb

molecule  {
0 1
  I       -2.0593870    -0.0000050     0.0008870
  C        2.0523810    -1.1738588    -0.0129780
  C        2.1361340     1.2244190    -0.0142730
  C        2.8182870    -0.0000010    -0.0208120
  C        0.7335970    -1.2186540    -0.0045600
  C        0.7335920     1.2186470    -0.0050340
  C        0.0490750     0.0000020     0.0008410
  C        2.8915970    -2.5298050     0.0156450
  C        2.8915460     2.5298400     0.0146700
  H        3.9079530    -0.0000080    -0.0344780
  H        0.1843020    -2.1569090    -0.0057920
  H        0.1843020     2.1569060    -0.0066320
  H        3.8558710    -2.4380930    -0.4900960
  H        2.3252680    -3.3261570    -0.4730740
  H        3.0845820    -2.8430750     1.0467350
  H        2.3258810     3.3255980    -0.4757890
  H        3.0830690     2.8443520     1.0456540
  H        3.8565230     2.4375450    -0.4896130
units angstrom
no_reorient  #important for SAPT in psi4, default
symmetry c1  #important for SAPT in psi4, default
}

set PROPERTIES_ORIGIN ["COM"]
properties('MP2/aug-cc-pvtz', properties = ['dipole'])
--------------------------------------------------------------------------

    Molecular point group: c1
  Charge       = 0
  Multiplicity = 1
  Basis Set: AUG-CC-PVTZ
    Blend: AUG-CC-PVTZ
  Basis Set: (AUG-CC-PVTZ AUX)
    Blend: AUG-CC-PVTZ-JKFIT + DEF2-UNIVERSAL-JKFIT

    Orbital Energies [Eh]
    ---------------------

    Doubly Occupied:

       1A    -11.291665     2A    -11.255529     3A    -11.249462
       4A    -11.243072     5A    -11.237129     6A    -11.234130
       7A    -11.232615     8A    -11.231951     9A     -7.717634
      10A     -5.549290    11A     -5.539769    12A     -5.539766
      13A     -2.278956    14A     -2.274052    15A     -2.274013
      16A     -2.263450    17A     -2.263444    18A     -1.175777
      19A     -1.068954    20A     -1.041892    21A     -0.948098
      22A     -0.937487    23A     -0.898581    24A     -0.793117
      25A     -0.789786    26A     -0.693673    27A     -0.662331
      28A     -0.588489    29A     -0.587549    30A     -0.575377
      31A     -0.571397    32A     -0.561882    33A     -0.554534
      34A     -0.537391    35A     -0.504955    36A     -0.476980
      37A     -0.450545    38A     -0.393115    39A     -0.367788
      40A     -0.342519    41A     -0.317435

  @DF-RHF Final Energy:  -602.94366945974480

   => Energetics <=

    Nuclear Repulsion Energy =            525.4661255263658859
    One-Electron Energy =               -1973.7884265299310300
    Two-Electron Energy =                 845.3786315438203474
    Total Energy =                       -602.9436694597447968
  Basis Set: (AUG-CC-PVTZ AUX)
    Blend: AUG-CC-PVTZ-RI + DEF2-QZVPP-RI
    Molecular point group: c1

    Geometry (in Angstrom), charge = 0, multiplicity = 1:

       Center              X                  Y                   Z               Mass
    ------------   -----------------  -----------------  -----------------  -----------------
         I           -1.771921890224    -0.002619921395     0.001264704100   126.904471900000
         C            2.339846109776    -1.176473721395    -0.012600295900    12.000000000000
         C            2.423599109776     1.221804078605    -0.013895295900    12.000000000000
         C            3.105752109776    -0.002615921395    -0.020434295900    12.000000000000
         C            1.021062109776    -1.221268921395    -0.004182295900    12.000000000000
         C            1.021057109776     1.216032078605    -0.004656295900    12.000000000000
         C            0.336540109776    -0.002612921395     0.001218704100    12.000000000000
         C            3.179062109776    -2.532419921395     0.016022704100    12.000000000000
         C            3.179011109776     2.527225078605     0.015047704100    12.000000000000
         H            4.195418109776    -0.002622921395    -0.034100295900     1.007825032230
         H            0.471767109776    -2.159523921395    -0.005414295900     1.007825032230
         H            0.471767109776     2.154291078605    -0.006254295900     1.007825032230
         H            4.143336109776    -2.440707921395    -0.489718295900     1.007825032230
         H            2.612733109776    -3.328771921395    -0.472696295900     1.007825032230
         H            3.372047109776    -2.845689921395     1.047112704100     1.007825032230
         H            2.613346109776     3.322983078605    -0.475411295900     1.007825032230
         H            3.370534109776     2.841737078605     1.046031704100     1.007825032230
         H            4.143988109776     2.434930078605    -0.489235295900     1.007825032230

  Basis Set: AUG-CC-PVTZ
    Blend: AUG-CC-PVTZ
  Basis Set: (AUG-CC-PVTZ AUX)
    Blend: AUG-CC-PVTZ-JKFIT + DEF2-UNIVERSAL-JKFIT
	 Reference Energy          =    -602.9436694597447968 [Eh]
	 Singles Energy            =      -0.0000000000000000 [Eh]
	 Same-Spin Energy          =      -0.4254302990539197 [Eh]
	 Opposite-Spin Energy      =      -1.2996724073481201 [Eh]
	 Correlation Energy        =      -1.7251027064020397 [Eh]
	 Total Energy              =    -604.6687721661468231 [Eh]

	 ================> DF-SCS-MP2 Energies <==================
	-----------------------------------------------------------
	 SCS Same-Spin Scale       =       0.3333333333333333 [-]
	 SCS Opposite-Spin Scale   =       1.2000000000000000 [-]
	 SCS Same-Spin Energy      =      -0.1418100996846399 [Eh]
	 SCS Opposite-Spin Energy  =      -1.5596068888177441 [Eh]
	 SCS Correlation Energy    =      -1.7014169885023840 [Eh]
	 SCS Total Energy          =    -604.6450864482471843 [Eh]
	-----------------------------------------------------------

  Dipole Moment: [D]
     X:     2.1432      Y:     0.1326      Z:     0.0714     Total:     2.1485

*** Psi4 exiting successfully. Buy a developer a beer!
