                               Psi4 1.4a3.dev225

  ==> Input File <==

--------------------------------------------------------------------------
#psi4
#
memory 32 gb

molecule  {
0 1
  I       -2.0593870    -0.0000050     0.0008870
  C        2.0969670    -1.2475557     0.0127354
  C        2.1361340     1.2244190    -0.0142730
  C        2.8182870    -0.0000010    -0.0208120
  C        0.7335970    -1.2186540    -0.0045600
  C        0.7335920     1.2186470    -0.0050340
  C        0.0490750     0.0000020     0.0008410
  C        2.8915970    -2.5298050     0.0156450
  C        2.8915460     2.5298400     0.0146700
  H        3.9079530    -0.0000080    -0.0344780
  H        0.1843020    -2.1569090    -0.0057920
  H        0.1843020     2.1569060    -0.0066320
  H        3.8558710    -2.4380930    -0.4900960
  H        2.3252680    -3.3261570    -0.4730740
  H        3.0845820    -2.8430750     1.0467350
  H        2.3258810     3.3255980    -0.4757890
  H        3.0830690     2.8443520     1.0456540
  H        3.8565230     2.4375450    -0.4896130
units angstrom
no_reorient  #important for SAPT in psi4, default
symmetry c1  #important for SAPT in psi4, default
}

set PROPERTIES_ORIGIN ["COM"]
properties('MP2/aug-cc-pvtz', properties = ['dipole'])
--------------------------------------------------------------------------

    Molecular point group: c1
  Charge       = 0
  Multiplicity = 1
  Basis Set: AUG-CC-PVTZ
    Blend: AUG-CC-PVTZ
  Basis Set: (AUG-CC-PVTZ AUX)
    Blend: AUG-CC-PVTZ-JKFIT + DEF2-UNIVERSAL-JKFIT

    Orbital Energies [Eh]
    ---------------------

    Doubly Occupied:

       1A    -11.290634     2A    -11.255217     3A    -11.254842
       4A    -11.243211     5A    -11.240160     6A    -11.238465
       7A    -11.231950     8A    -11.231678     9A     -7.717543
      10A     -5.549249    11A     -5.539660    12A     -5.539633
      13A     -2.278917    14A     -2.273975    15A     -2.273954
      16A     -2.263294    17A     -2.263288    18A     -1.167740
      19A     -1.069596    20A     -1.044296    21A     -0.946381
      22A     -0.941597    23A     -0.895790    24A     -0.792490
      25A     -0.787991    26A     -0.688411    27A     -0.659736
      28A     -0.594144    29A     -0.588333    30A     -0.578502
      31A     -0.575879    32A     -0.560015    33A     -0.549571
      34A     -0.538732    35A     -0.499352    36A     -0.487063
      37A     -0.453515    38A     -0.390266    39A     -0.367581
      40A     -0.336462    41A     -0.315240

  @DF-RHF Final Energy:  -602.95070079814718

   => Energetics <=

    Nuclear Repulsion Energy =            524.3434149357079832
    One-Electron Energy =               -1971.5595220613938636
    Two-Electron Energy =                 844.2654063275388125
    Total Energy =                       -602.9507007981471816
  Basis Set: (AUG-CC-PVTZ AUX)
    Blend: AUG-CC-PVTZ-RI + DEF2-QZVPP-RI
    Molecular point group: c1

    Geometry (in Angstrom), charge = 0, multiplicity = 1:

       Center              X                  Y                   Z               Mass
    ------------   -----------------  -----------------  -----------------  -----------------
         I           -1.774228312197     0.001192399725    -0.000065443273   126.904471900000
         C            2.382125687803    -1.246358300275     0.011782956727    12.000000000000
         C            2.421292687803     1.225616399725    -0.015225443273    12.000000000000
         C            3.103445687803     0.001196399725    -0.021764443273    12.000000000000
         C            1.018755687803    -1.217456600275    -0.005512443273    12.000000000000
         C            1.018750687803     1.219844399725    -0.005986443273    12.000000000000
         C            0.334233687803     0.001199399725    -0.000111443273    12.000000000000
         C            3.176755687803    -2.528607600275     0.014692556727    12.000000000000
         C            3.176704687803     2.531037399725     0.013717556727    12.000000000000
         H            4.193111687803     0.001189399725    -0.035430443273     1.007825032230
         H            0.469460687803    -2.155711600275    -0.006744443273     1.007825032230
         H            0.469460687803     2.158103399725    -0.007584443273     1.007825032230
         H            4.141029687803    -2.436895600275    -0.491048443273     1.007825032230
         H            2.610426687803    -3.324959600275    -0.474026443273     1.007825032230
         H            3.369740687803    -2.841877600275     1.045782556727     1.007825032230
         H            2.611039687803     3.326795399725    -0.476741443273     1.007825032230
         H            3.368227687803     2.845549399725     1.044701556727     1.007825032230
         H            4.141681687803     2.438742399725    -0.490565443273     1.007825032230

  Basis Set: AUG-CC-PVTZ
    Blend: AUG-CC-PVTZ
  Basis Set: (AUG-CC-PVTZ AUX)
    Blend: AUG-CC-PVTZ-JKFIT + DEF2-UNIVERSAL-JKFIT
	 Reference Energy          =    -602.9507007981471816 [Eh]
	 Singles Energy            =      -0.0000000000000000 [Eh]
	 Same-Spin Energy          =      -0.4257865395470080 [Eh]
	 Opposite-Spin Energy      =      -1.3002119635653351 [Eh]
	 Correlation Energy        =      -1.7259985031123430 [Eh]
	 Total Energy              =    -604.6766993012595321 [Eh]

	 ================> DF-SCS-MP2 Energies <==================
	-----------------------------------------------------------
	 SCS Same-Spin Scale       =       0.3333333333333333 [-]
	 SCS Opposite-Spin Scale   =       1.2000000000000000 [-]
	 SCS Same-Spin Energy      =      -0.1419288465156693 [Eh]
	 SCS Opposite-Spin Energy  =      -1.5602543562784021 [Eh]
	 SCS Correlation Energy    =      -1.7021832027940715 [Eh]
	 SCS Total Energy          =    -604.6528840009412988 [Eh]
	-----------------------------------------------------------

  Dipole Moment: [D]
     X:     2.1926      Y:    -0.0037      Z:     0.0699     Total:     2.1938

*** Psi4 exiting successfully. Buy a developer a beer!
