                               Psi4 1.4a3.dev225

  ==> Input File <==

--------------------------------------------------------------------------
#psi4
#
memory 32 gb

molecule  {
0 1
  I       -2.0593870    -0.0000050     0.0008870
  C        2.1361270    -1.2244290    -0.0138000
  C        2.1361340     1.2244190    -0.0142730
  C        2.8182870    -0.0000010    -0.0208120
  C        0.7335970    -1.2186540    -0.0045600
  C        0.7335920     1.2186470    -0.0050340
  C        0.0690750     0.0000021     0.0008406
  C        2.8915970    -2.5298050     0.0156450
  C        2.8915460     2.5298400     0.0146700
  H        3.9079530    -0.0000080    -0.0344780
  H        0.1843020    -2.1569090    -0.0057920
  H        0.1843020     2.1569060    -0.0066320
  H        3.8558710    -2.4380930    -0.4900960
  H        2.3252680    -3.3261570    -0.4730740
  H        3.0845820    -2.8430750     1.0467350
  H        2.3258810     3.3255980    -0.4757890
  H        3.0830690     2.8443520     1.0456540
  H        3.8565230     2.4375450    -0.4896130
units angstrom
no_reorient  #important for SAPT in psi4, default
symmetry c1  #important for SAPT in psi4, default
}

set PROPERTIES_ORIGIN ["COM"]
properties('MP2/aug-cc-pvtz', properties = ['dipole'])
--------------------------------------------------------------------------

    Molecular point group: c1
  Charge       = 0
  Multiplicity = 1
  Basis Set: AUG-CC-PVTZ
    Blend: AUG-CC-PVTZ
  Basis Set: (AUG-CC-PVTZ AUX)
    Blend: AUG-CC-PVTZ-JKFIT + DEF2-UNIVERSAL-JKFIT

    Orbital Energies [Eh]
    ---------------------

    Doubly Occupied:

       1A    -11.290305     2A    -11.256323     3A    -11.256299
       4A    -11.242156     5A    -11.242127     6A    -11.236996
       7A    -11.232363     8A    -11.232362     9A     -7.715583
      10A     -5.547212    11A     -5.537727    12A     -5.537680
      13A     -2.276748    14A     -2.271948    15A     -2.271936
      16A     -2.261372    17A     -2.261365    18A     -1.170029
      19A     -1.068011    20A     -1.047769    21A     -0.949661
      22A     -0.940962    23A     -0.892664    24A     -0.794950
      25A     -0.787595    26A     -0.689944    27A     -0.661725
      28A     -0.595056    29A     -0.590170    30A     -0.579126
      31A     -0.575109    32A     -0.560672    33A     -0.548836
      34A     -0.538090    35A     -0.500537    36A     -0.496506
      37A     -0.445722    38A     -0.390717    39A     -0.366157
      40A     -0.332177    41A     -0.320343

  @DF-RHF Final Energy:  -602.95361402009428

   => Energetics <=

    Nuclear Repulsion Energy =            524.3207510478662243
    One-Electron Energy =               -1971.5226671838688617
    Two-Electron Energy =                 844.2483021159083592
    Total Energy =                       -602.9536140200942782
  Basis Set: (AUG-CC-PVTZ AUX)
    Blend: AUG-CC-PVTZ-RI + DEF2-QZVPP-RI
    Molecular point group: c1

    Geometry (in Angstrom), charge = 0, multiplicity = 1:

       Center              X                  Y                   Z               Mass
    ------------   -----------------  -----------------  -----------------  -----------------
         I           -1.777288643330    -0.000003943514     0.001307246634   126.904471900000
         C            2.418225356670    -1.224427943514    -0.013379753366    12.000000000000
         C            2.418232356670     1.224420056486    -0.013852753366    12.000000000000
         C            3.100385356670     0.000000056486    -0.020391753366    12.000000000000
         C            1.015695356670    -1.218652943514    -0.004139753366    12.000000000000
         C            1.015690356670     1.218648056486    -0.004613753366    12.000000000000
         C            0.351173356670     0.000003156486     0.001260846634    12.000000000000
         C            3.173695356670    -2.529803943514     0.016065246634    12.000000000000
         C            3.173644356670     2.529841056486     0.015090246634    12.000000000000
         H            4.190051356670    -0.000006943514    -0.034057753366     1.007825032230
         H            0.466400356670    -2.156907943514    -0.005371753366     1.007825032230
         H            0.466400356670     2.156907056486    -0.006211753366     1.007825032230
         H            4.137969356670    -2.438091943514    -0.489675753366     1.007825032230
         H            2.607366356670    -3.326155943514    -0.472653753366     1.007825032230
         H            3.366680356670    -2.843073943514     1.047155246634     1.007825032230
         H            2.607979356670     3.325599056486    -0.475368753366     1.007825032230
         H            3.365167356670     2.844353056486     1.046074246634     1.007825032230
         H            4.138621356670     2.437546056486    -0.489192753366     1.007825032230

  Basis Set: AUG-CC-PVTZ
    Blend: AUG-CC-PVTZ
  Basis Set: (AUG-CC-PVTZ AUX)
    Blend: AUG-CC-PVTZ-JKFIT + DEF2-UNIVERSAL-JKFIT
	 Reference Energy          =    -602.9536140200942782 [Eh]
	 Singles Energy            =      -0.0000000000000000 [Eh]
	 Same-Spin Energy          =      -0.4257172602616044 [Eh]
	 Opposite-Spin Energy      =      -1.2997017165983393 [Eh]
	 Correlation Energy        =      -1.7254189768599437 [Eh]
	 Total Energy              =    -604.6790329969542199 [Eh]

	 ================> DF-SCS-MP2 Energies <==================
	-----------------------------------------------------------
	 SCS Same-Spin Scale       =       0.3333333333333333 [-]
	 SCS Opposite-Spin Scale   =       1.2000000000000000 [-]
	 SCS Same-Spin Energy      =      -0.1419057534205348 [Eh]
	 SCS Opposite-Spin Energy  =      -1.5596420599180072 [Eh]
	 SCS Correlation Energy    =      -1.7015478133385420 [Eh]
	 SCS Total Energy          =    -604.6551618334327713 [Eh]
	-----------------------------------------------------------

  Dipole Moment: [D]
     X:     2.2943      Y:     0.0001      Z:     0.0794     Total:     2.2957

*** Psi4 exiting successfully. Buy a developer a beer!
