                               Psi4 1.4a3.dev225

  ==> Input File <==

--------------------------------------------------------------------------
#psi4
#
memory 32 gb

molecule  {
0 1
  I       -2.0593870    -0.0000050     0.0008870
  C        2.1361270    -1.2244290    -0.0138000
  C        2.1361340     1.2244190    -0.0142730
  C        2.8182870    -0.0000010    -0.0208120
  C        0.7335970    -1.2186540    -0.0045600
  C        0.7335920     1.2186470    -0.0050340
  C        0.0490750     0.0000020     0.0008410
  C        2.8665568    -2.4865380     0.0146690
  C        2.8915460     2.5298400     0.0146700
  H        3.9079530    -0.0000080    -0.0344780
  H        0.1843020    -2.1569090    -0.0057920
  H        0.1843020     2.1569060    -0.0066320
  H        3.8558710    -2.4380930    -0.4900960
  H        2.3252680    -3.3261570    -0.4730740
  H        3.0845820    -2.8430750     1.0467350
  H        2.3258810     3.3255980    -0.4757890
  H        3.0830690     2.8443520     1.0456540
  H        3.8565230     2.4375450    -0.4896130
units angstrom
no_reorient  #important for SAPT in psi4, default
symmetry c1  #important for SAPT in psi4, default
}

set PROPERTIES_ORIGIN ["COM"]
properties('MP2/aug-cc-pvtz', properties = ['dipole'])
--------------------------------------------------------------------------

    Molecular point group: c1
  Charge       = 0
  Multiplicity = 1
  Basis Set: AUG-CC-PVTZ
    Blend: AUG-CC-PVTZ
  Basis Set: (AUG-CC-PVTZ AUX)
    Blend: AUG-CC-PVTZ-JKFIT + DEF2-UNIVERSAL-JKFIT

    Orbital Energies [Eh]
    ---------------------

    Doubly Occupied:

       1A    -11.290557     2A    -11.255801     3A    -11.253354
       4A    -11.242775     5A    -11.242693     6A    -11.236897
       7A    -11.233797     8A    -11.232108     9A     -7.717378
      10A     -5.549078    11A     -5.539502    12A     -5.539467
      13A     -2.278746    14A     -2.273800    15A     -2.273793
      16A     -2.263138    17A     -2.263132    18A     -1.169342
      19A     -1.071579    20A     -1.048419    21A     -0.949014
      22A     -0.938299    23A     -0.895604    24A     -0.793863
      25A     -0.787430    26A     -0.688694    27A     -0.661114
      28A     -0.603984    29A     -0.588573    30A     -0.577388
      31A     -0.572358    32A     -0.557646    33A     -0.548226
      34A     -0.531436    35A     -0.498458    36A     -0.496621
      37A     -0.451031    38A     -0.391800    39A     -0.367437
      40A     -0.330453    41A     -0.318694

  @DF-RHF Final Energy:  -602.95020981994526

   => Energetics <=

    Nuclear Repulsion Energy =            525.1749488939162802
    One-Electron Energy =               -1973.2033569695104234
    Two-Electron Energy =                 845.0781982556488856
    Total Energy =                       -602.9502098199452575
  Basis Set: (AUG-CC-PVTZ AUX)
    Blend: AUG-CC-PVTZ-RI + DEF2-QZVPP-RI
    Molecular point group: c1

    Geometry (in Angstrom), charge = 0, multiplicity = 1:

       Center              X                  Y                   Z               Mass
    ------------   -----------------  -----------------  -----------------  -----------------
         I           -1.774958725711    -0.002242128793     0.001357714164   126.904471900000
         C            2.420555274289    -1.226666128793    -0.013329285836    12.000000000000
         C            2.420562274289     1.222181871207    -0.013802285836    12.000000000000
         C            3.102715274289    -0.002238128793    -0.020341285836    12.000000000000
         C            1.018025274289    -1.220891128793    -0.004089285836    12.000000000000
         C            1.018020274289     1.216409871207    -0.004563285836    12.000000000000
         C            0.333503274289    -0.002235128793     0.001311714164    12.000000000000
         C            3.150985074289    -2.488775128793     0.015139714164    12.000000000000
         C            3.175974274289     2.527602871207     0.015140714164    12.000000000000
         H            4.192381274289    -0.002245128793    -0.034007285836     1.007825032230
         H            0.468730274289    -2.159146128793    -0.005321285836     1.007825032230
         H            0.468730274289     2.154668871207    -0.006161285836     1.007825032230
         H            4.140299274289    -2.440330128793    -0.489625285836     1.007825032230
         H            2.609696274289    -3.328394128793    -0.472603285836     1.007825032230
         H            3.369010274289    -2.845312128793     1.047205714164     1.007825032230
         H            2.610309274289     3.323360871207    -0.475318285836     1.007825032230
         H            3.367497274289     2.842114871207     1.046124714164     1.007825032230
         H            4.140951274289     2.435307871207    -0.489142285836     1.007825032230

  Basis Set: AUG-CC-PVTZ
    Blend: AUG-CC-PVTZ
  Basis Set: (AUG-CC-PVTZ AUX)
    Blend: AUG-CC-PVTZ-JKFIT + DEF2-UNIVERSAL-JKFIT
	 Reference Energy          =    -602.9502098199452575 [Eh]
	 Singles Energy            =      -0.0000000000000000 [Eh]
	 Same-Spin Energy          =      -0.4263968124874278 [Eh]
	 Opposite-Spin Energy      =      -1.3006457206531670 [Eh]
	 Correlation Energy        =      -1.7270425331405947 [Eh]
	 Total Energy              =    -604.6772523530858052 [Eh]

	 ================> DF-SCS-MP2 Energies <==================
	-----------------------------------------------------------
	 SCS Same-Spin Scale       =       0.3333333333333333 [-]
	 SCS Opposite-Spin Scale   =       1.2000000000000000 [-]
	 SCS Same-Spin Energy      =      -0.1421322708291426 [Eh]
	 SCS Opposite-Spin Energy  =      -1.5607748647838002 [Eh]
	 SCS Correlation Energy    =      -1.7029071356129428 [Eh]
	 SCS Total Energy          =    -604.6531169555581755 [Eh]
	-----------------------------------------------------------

  Dipole Moment: [D]
     X:     2.2000      Y:    -0.0024      Z:     0.0813     Total:     2.2015

*** Psi4 exiting successfully. Buy a developer a beer!
