                               Psi4 1.4a3.dev225

  ==> Input File <==

--------------------------------------------------------------------------
#psi4
#
memory 32 gb

molecule  {
0 1
  I       -2.0593870    -0.0000050     0.0008870
  C        2.1164289    -1.2357953    -0.0005348
  C        2.1361340     1.2244190    -0.0142730
  C        2.8182870    -0.0000010    -0.0208120
  C        0.7335970    -1.2186540    -0.0045600
  C        0.7335920     1.2186470    -0.0050340
  C        0.0490750     0.0000020     0.0008410
  C        2.8915970    -2.5298050     0.0156450
  C        2.8915460     2.5298400     0.0146700
  H        3.9079530    -0.0000080    -0.0344780
  H        0.1843020    -2.1569090    -0.0057920
  H        0.1843020     2.1569060    -0.0066320
  H        3.8558710    -2.4380930    -0.4900960
  H        2.3252680    -3.3261570    -0.4730740
  H        3.0845820    -2.8430750     1.0467350
  H        2.3258810     3.3255980    -0.4757890
  H        3.0830690     2.8443520     1.0456540
  H        3.8565230     2.4375450    -0.4896130
units angstrom
no_reorient  #important for SAPT in psi4, default
symmetry c1  #important for SAPT in psi4, default
}

set PROPERTIES_ORIGIN ["COM"]
properties('MP2/aug-cc-pvtz', properties = ['dipole'])
--------------------------------------------------------------------------

    Molecular point group: c1
  Charge       = 0
  Multiplicity = 1
  Basis Set: AUG-CC-PVTZ
    Blend: AUG-CC-PVTZ
  Basis Set: (AUG-CC-PVTZ AUX)
    Blend: AUG-CC-PVTZ-JKFIT + DEF2-UNIVERSAL-JKFIT

    Orbital Energies [Eh]
    ---------------------

    Doubly Occupied:

       1A    -11.290530     2A    -11.255483     3A    -11.255257
       4A    -11.242884     5A    -11.240566     6A    -11.238528
       7A    -11.231947     8A    -11.231840     9A     -7.717401
      10A     -5.549103    11A     -5.539522    12A     -5.539491
      13A     -2.278771    14A     -2.273827    15A     -2.273813
      16A     -2.263158    17A     -2.263151    18A     -1.167615
      19A     -1.068214    20A     -1.045592    21A     -0.947847
      22A     -0.940243    23A     -0.895567    24A     -0.792184
      25A     -0.788526    26A     -0.688439    27A     -0.659914
      28A     -0.594249    29A     -0.588989    30A     -0.578022
      31A     -0.574699    32A     -0.560095    33A     -0.549435
      34A     -0.538053    35A     -0.499019    36A     -0.491187
      37A     -0.452140    38A     -0.391176    39A     -0.367452
      40A     -0.333730    41A     -0.317011

  @DF-RHF Final Energy:  -602.95273379439402

   => Energetics <=

    Nuclear Repulsion Energy =            524.3047618527028817
    One-Electron Energy =               -1971.4856624055410066
    Two-Electron Energy =                 844.2281667584439901
    Total Energy =                       -602.9527337943940211
  Basis Set: (AUG-CC-PVTZ AUX)
    Blend: AUG-CC-PVTZ-RI + DEF2-QZVPP-RI
    Molecular point group: c1

    Geometry (in Angstrom), charge = 0, multiplicity = 1:

       Center              X                  Y                   Z               Mass
    ------------   -----------------  -----------------  -----------------  -----------------
         I           -1.775235071130     0.000584037348     0.000621020659   126.904471900000
         C            2.400580828870    -1.235206262652    -0.000800779341    12.000000000000
         C            2.420285928870     1.225008037348    -0.014538979341    12.000000000000
         C            3.102438928870     0.000588037348    -0.021077979341    12.000000000000
         C            1.017748928870    -1.218064962652    -0.004825979341    12.000000000000
         C            1.017743928870     1.219236037348    -0.005299979341    12.000000000000
         C            0.333226928870     0.000591037348     0.000575020659    12.000000000000
         C            3.175748928870    -2.529215962652     0.015379020659    12.000000000000
         C            3.175697928870     2.530429037348     0.014404020659    12.000000000000
         H            4.192104928870     0.000581037348    -0.034743979341     1.007825032230
         H            0.468453928870    -2.156319962652    -0.006057979341     1.007825032230
         H            0.468453928870     2.157495037348    -0.006897979341     1.007825032230
         H            4.140022928870    -2.437503962652    -0.490361979341     1.007825032230
         H            2.609419928870    -3.325567962652    -0.473339979341     1.007825032230
         H            3.368733928870    -2.842485962652     1.046469020659     1.007825032230
         H            2.610032928870     3.326187037348    -0.476054979341     1.007825032230
         H            3.367220928870     2.844941037348     1.045388020659     1.007825032230
         H            4.140674928870     2.438134037348    -0.489878979341     1.007825032230

  Basis Set: AUG-CC-PVTZ
    Blend: AUG-CC-PVTZ
  Basis Set: (AUG-CC-PVTZ AUX)
    Blend: AUG-CC-PVTZ-JKFIT + DEF2-UNIVERSAL-JKFIT
	 Reference Energy          =    -602.9527337943940211 [Eh]
	 Singles Energy            =      -0.0000000000000000 [Eh]
	 Same-Spin Energy          =      -0.4258434347904494 [Eh]
	 Opposite-Spin Energy      =      -1.3001152245568057 [Eh]
	 Correlation Energy        =      -1.7259586593472551 [Eh]
	 Total Energy              =    -604.6786924537412915 [Eh]

	 ================> DF-SCS-MP2 Energies <==================
	-----------------------------------------------------------
	 SCS Same-Spin Scale       =       0.3333333333333333 [-]
	 SCS Opposite-Spin Scale   =       1.2000000000000000 [-]
	 SCS Same-Spin Energy      =      -0.1419478115968165 [Eh]
	 SCS Opposite-Spin Energy  =      -1.5601382694681669 [Eh]
	 SCS Correlation Energy    =      -1.7020860810649834 [Eh]
	 SCS Total Energy          =    -604.6548198754589976 [Eh]
	-----------------------------------------------------------

  Dipole Moment: [D]
     X:     2.1970      Y:    -0.0016      Z:     0.0744     Total:     2.1983

*** Psi4 exiting successfully. Buy a developer a beer!
