                               Psi4 1.4a3.dev225

  ==> Input File <==

--------------------------------------------------------------------------
#psi4
#
memory 32 gb

molecule  {
0 1
  I       -2.0593870    -0.0000050     0.0008870
  C        2.1361270    -1.2244290    -0.0138000
  C        2.1361340     1.2244190    -0.0142730
  C        2.8182870    -0.0000010    -0.0208120
  C        0.7335970    -1.2186540    -0.0045600
  C        0.7335920     1.2186470    -0.0050340
  C        0.0490750     0.0000020     0.0008410
  C        2.8915970    -2.5298050     0.0156450
  C        2.8915460     2.5298400     0.0146700
  H        3.9079530    -0.0000080    -0.0344780
  H        0.1843020    -2.1569090    -0.0057920
  H        0.1843020     2.1569060    -0.0066320
  H        3.8558710    -2.4380930    -0.4900960
  H        2.3252680    -3.3261570    -0.4730740
  H        3.0845820    -2.8430750     1.0467350
  H        2.3258810     3.3255980    -0.4757890
  H        3.0830690     2.8443520     1.0456540
  H        3.6799010     2.4544380    -0.3973129
units angstrom
no_reorient  #important for SAPT in psi4, default
symmetry c1  #important for SAPT in psi4, default
}

set PROPERTIES_ORIGIN ["COM"]
properties('MP2/aug-cc-pvtz', properties = ['dipole'])
--------------------------------------------------------------------------

    Molecular point group: c1
  Charge       = 0
  Multiplicity = 1
  Basis Set: AUG-CC-PVTZ
    Blend: AUG-CC-PVTZ
  Basis Set: (AUG-CC-PVTZ AUX)
    Blend: AUG-CC-PVTZ-JKFIT + DEF2-UNIVERSAL-JKFIT

    Orbital Energies [Eh]
    ---------------------

    Doubly Occupied:

       1A    -11.289909     2A    -11.255500     3A    -11.254437
       4A    -11.242177     5A    -11.241572     6A    -11.236742
       7A    -11.231867     8A    -11.207484     9A     -7.716853
      10A     -5.548545    11A     -5.538983    12A     -5.538949
      13A     -2.278211    14A     -2.273271    15A     -2.273263
      16A     -2.262626    17A     -2.262619    18A     -1.167625
      19A     -1.071355    20A     -1.048890    21A     -0.964020
      22A     -0.942222    23A     -0.895025    24A     -0.798320
      25A     -0.788581    26A     -0.688578    27A     -0.664707
      28A     -0.605775    29A     -0.591283    30A     -0.583325
      31A     -0.575243    32A     -0.567181    33A     -0.550044
      34A     -0.542470    35A     -0.498772    36A     -0.494095
      37A     -0.450445    38A     -0.392037    39A     -0.366938
      40A     -0.330780    41A     -0.318504

  @DF-RHF Final Energy:  -602.91907933082189

   => Energetics <=

    Nuclear Repulsion Energy =            525.2717895633378475
    One-Electron Energy =               -1973.2833016884997051
    Two-Electron Energy =                 845.0924327943400840
    Total Energy =                       -602.9190793308218872
  Basis Set: (AUG-CC-PVTZ AUX)
    Blend: AUG-CC-PVTZ-RI + DEF2-QZVPP-RI
    Molecular point group: c1

    Geometry (in Angstrom), charge = 0, multiplicity = 1:

       Center              X                  Y                   Z               Mass
    ------------   -----------------  -----------------  -----------------  -----------------
         I           -1.775486706664    -0.000077330715     0.000906224143   126.904471900000
         C            2.420027293336    -1.224501330715    -0.013780775857    12.000000000000
         C            2.420034293336     1.224346669285    -0.014253775857    12.000000000000
         C            3.102187293336    -0.000073330715    -0.020792775857    12.000000000000
         C            1.017497293336    -1.218726330715    -0.004540775857    12.000000000000
         C            1.017492293336     1.218574669285    -0.005014775857    12.000000000000
         C            0.332975293336    -0.000070330715     0.000860224143    12.000000000000
         C            3.175497293336    -2.529877330715     0.015664224143    12.000000000000
         C            3.175446293336     2.529767669285     0.014689224143    12.000000000000
         H            4.191853293336    -0.000080330715    -0.034458775857     1.007825032230
         H            0.468202293336    -2.156981330715    -0.005772775857     1.007825032230
         H            0.468202293336     2.156833669285    -0.006612775857     1.007825032230
         H            4.139771293336    -2.438165330715    -0.490076775857     1.007825032230
         H            2.609168293336    -3.326229330715    -0.473054775857     1.007825032230
         H            3.368482293336    -2.843147330715     1.046754224143     1.007825032230
         H            2.609781293336     3.325525669285    -0.475769775857     1.007825032230
         H            3.366969293336     2.844279669285     1.045673224143     1.007825032230
         H            3.963801293336     2.454365669285    -0.397293675857     1.007825032230

  Basis Set: AUG-CC-PVTZ
    Blend: AUG-CC-PVTZ
  Basis Set: (AUG-CC-PVTZ AUX)
    Blend: AUG-CC-PVTZ-JKFIT + DEF2-UNIVERSAL-JKFIT
	 Reference Energy          =    -602.9190793308218872 [Eh]
	 Singles Energy            =      -0.0000000000000000 [Eh]
	 Same-Spin Energy          =      -0.4259371104576115 [Eh]
	 Opposite-Spin Energy      =      -1.2994233650532974 [Eh]
	 Correlation Energy        =      -1.7253604755109089 [Eh]
	 Total Energy              =    -604.6444398063327981 [Eh]

	 ================> DF-SCS-MP2 Energies <==================
	-----------------------------------------------------------
	 SCS Same-Spin Scale       =       0.3333333333333333 [-]
	 SCS Opposite-Spin Scale   =       1.2000000000000000 [-]
	 SCS Same-Spin Energy      =      -0.1419790368192038 [Eh]
	 SCS Opposite-Spin Energy  =      -1.5593080380639568 [Eh]
	 SCS Correlation Energy    =      -1.7012870748831606 [Eh]
	 SCS Total Energy          =    -604.6203664057049991 [Eh]
	-----------------------------------------------------------

  Dipole Moment: [D]
     X:     2.2771      Y:     0.0328      Z:     0.0575     Total:     2.2781

*** Psi4 exiting successfully. Buy a developer a beer!
