                               Psi4 1.4a3.dev225

  ==> Input File <==

--------------------------------------------------------------------------
#psi4
#
memory 32 gb

molecule  {
0 1
  I       -2.0593870    -0.0000050     0.0008870
  C        2.1361270    -1.2244290    -0.0138000
  C        2.1361340     1.2244190    -0.0142730
  C        2.8182870    -0.0000010    -0.0208120
  C        0.7335970    -1.2186540    -0.0045600
  C        0.7335920     1.2186470    -0.0050340
  C        0.0490750     0.0000020     0.0008410
  C        2.8915970    -2.5298050     0.0156450
  C        2.8915460     2.5298400     0.0146700
  H        3.9079530    -0.0000080    -0.0344780
  H        0.1843020    -2.1569090    -0.0057920
  H        0.1843020     2.1569060    -0.0066320
  H        3.8468177    -2.4328896    -0.5060544
  H        2.3252680    -3.3261570    -0.4730740
  H        3.0845820    -2.8430750     1.0467350
  H        2.3258810     3.3255980    -0.4757890
  H        3.0830690     2.8443520     1.0456540
  H        3.8565230     2.4375450    -0.4896130
units angstrom
no_reorient  #important for SAPT in psi4, default
symmetry c1  #important for SAPT in psi4, default
}

set PROPERTIES_ORIGIN ["COM"]
properties('MP2/aug-cc-pvtz', properties = ['dipole'])
--------------------------------------------------------------------------

    Molecular point group: c1
  Charge       = 0
  Multiplicity = 1
  Basis Set: AUG-CC-PVTZ
    Blend: AUG-CC-PVTZ
  Basis Set: (AUG-CC-PVTZ AUX)
    Blend: AUG-CC-PVTZ-JKFIT + DEF2-UNIVERSAL-JKFIT

    Orbital Energies [Eh]
    ---------------------

    Doubly Occupied:

       1A    -11.290370     2A    -11.255654     3A    -11.255517
       4A    -11.242605     5A    -11.242540     6A    -11.236815
       7A    -11.231998     8A    -11.231995     9A     -7.717227
      10A     -5.548925    11A     -5.539354    12A     -5.539318
      13A     -2.278592    14A     -2.273648    15A     -2.273641
      16A     -2.262992    17A     -2.262985    18A     -1.167566
      19A     -1.066996    20A     -1.046885    21A     -0.949345
      22A     -0.938896    23A     -0.895257    24A     -0.793847
      25A     -0.786859    26A     -0.688443    27A     -0.659873
      28A     -0.594759    29A     -0.590130    30A     -0.578438
      31A     -0.573364    32A     -0.559803    33A     -0.548969
      34A     -0.536617    35A     -0.498858    36A     -0.494931
      37A     -0.450445    38A     -0.392186    39A     -0.367290
      40A     -0.331264    41A     -0.318689

  @DF-RHF Final Energy:  -602.95335020990603

   => Energetics <=

    Nuclear Repulsion Energy =            524.2777595541118671
    One-Electron Energy =               -1971.4344445192698458
    Two-Electron Energy =                 844.2033347552520581
    Total Energy =                       -602.9533502099060343
  Basis Set: (AUG-CC-PVTZ AUX)
    Blend: AUG-CC-PVTZ-RI + DEF2-QZVPP-RI
    Molecular point group: c1

    Geometry (in Angstrom), charge = 0, multiplicity = 1:

       Center              X                  Y                   Z               Mass
    ------------   -----------------  -----------------  -----------------  -----------------
         I           -1.776214716171    -0.000026544739     0.001376557905   126.904471900000
         C            2.419299283829    -1.224450544739    -0.013310442095    12.000000000000
         C            2.419306283829     1.224397455261    -0.013783442095    12.000000000000
         C            3.101459283829    -0.000022544739    -0.020322442095    12.000000000000
         C            1.016769283829    -1.218675544739    -0.004070442095    12.000000000000
         C            1.016764283829     1.218625455261    -0.004544442095    12.000000000000
         C            0.332247283829    -0.000019544739     0.001330557905    12.000000000000
         C            3.174769283829    -2.529826544739     0.016134557905    12.000000000000
         C            3.174718283829     2.529818455261     0.015159557905    12.000000000000
         H            4.191125283829    -0.000029544739    -0.033988442095     1.007825032230
         H            0.467474283829    -2.156930544739    -0.005302442095     1.007825032230
         H            0.467474283829     2.156884455261    -0.006142442095     1.007825032230
         H            4.129989983829    -2.432911144739    -0.505564842095     1.007825032230
         H            2.608440283829    -3.326178544739    -0.472584442095     1.007825032230
         H            3.367754283829    -2.843096544739     1.047224557905     1.007825032230
         H            2.609053283829     3.325576455261    -0.475299442095     1.007825032230
         H            3.366241283829     2.844330455261     1.046143557905     1.007825032230
         H            4.139695283829     2.437523455261    -0.489123442095     1.007825032230

  Basis Set: AUG-CC-PVTZ
    Blend: AUG-CC-PVTZ
  Basis Set: (AUG-CC-PVTZ AUX)
    Blend: AUG-CC-PVTZ-JKFIT + DEF2-UNIVERSAL-JKFIT
	 Reference Energy          =    -602.9533502099060343 [Eh]
	 Singles Energy            =      -0.0000000000000000 [Eh]
	 Same-Spin Energy          =      -0.4258769633474613 [Eh]
	 Opposite-Spin Energy      =      -1.3001025159669464 [Eh]
	 Correlation Energy        =      -1.7259794793144076 [Eh]
	 Total Energy              =    -604.6793296892204808 [Eh]

	 ================> DF-SCS-MP2 Energies <==================
	-----------------------------------------------------------
	 SCS Same-Spin Scale       =       0.3333333333333333 [-]
	 SCS Opposite-Spin Scale   =       1.2000000000000000 [-]
	 SCS Same-Spin Energy      =      -0.1419589877824871 [Eh]
	 SCS Opposite-Spin Energy  =      -1.5601230191603357 [Eh]
	 SCS Correlation Energy    =      -1.7020820069428229 [Eh]
	 SCS Total Energy          =    -604.6554322168489080 [Eh]
	-----------------------------------------------------------

  Dipole Moment: [D]
     X:     2.1977      Y:     0.0001      Z:     0.0744     Total:     2.1990

*** Psi4 exiting successfully. Buy a developer a beer!
