                               Psi4 1.4a3.dev225

  ==> Input File <==

--------------------------------------------------------------------------
#psi4
#
memory 32 gb

molecule  {
0 1
  I       -2.0593870    -0.0000050     0.0008870
  C        2.1361270    -1.2244290    -0.0138000
  C        2.1361340     1.2244190    -0.0142730
  C        2.8182870    -0.0000010    -0.0208120
  C        0.7335970    -1.2186540    -0.0045600
  C        0.7335920     1.2186470    -0.0050340
  C        0.0490750     0.0000020     0.0008410
  C        2.8915970    -2.5298050     0.0156450
  C        2.8915460     2.5298400     0.0146700
  H        3.9079530    -0.0000080    -0.0344780
  H        0.1843020    -2.1569090    -0.0057920
  H        0.1843020     2.1569060    -0.0066320
  H        3.8558710    -2.4380930    -0.4900960
  H        2.3252680    -3.3261570    -0.4730740
  H        3.0845820    -2.8430750     1.0467350
  H        2.3517674     3.2891819    -0.4533443
  H        3.0830690     2.8443520     1.0456540
  H        3.8565230     2.4375450    -0.4896130
units angstrom
no_reorient  #important for SAPT in psi4, default
symmetry c1  #important for SAPT in psi4, default
}

set PROPERTIES_ORIGIN ["COM"]
properties('MP2/aug-cc-pvtz', properties = ['dipole'])
--------------------------------------------------------------------------

    Molecular point group: c1
  Charge       = 0
  Multiplicity = 1
  Basis Set: AUG-CC-PVTZ
    Blend: AUG-CC-PVTZ
  Basis Set: (AUG-CC-PVTZ AUX)
    Blend: AUG-CC-PVTZ-JKFIT + DEF2-UNIVERSAL-JKFIT

    Orbital Energies [Eh]
    ---------------------

    Doubly Occupied:

       1A    -11.290344     2A    -11.255483     3A    -11.255271
       4A    -11.242548     5A    -11.242470     6A    -11.236497
       7A    -11.231872     8A    -11.225913     9A     -7.717196
      10A     -5.548893    11A     -5.539323    12A     -5.539287
      13A     -2.278560    14A     -2.273616    15A     -2.273610
      16A     -2.262961    17A     -2.262954    18A     -1.167503
      19A     -1.067674    20A     -1.047045    21A     -0.951938
      22A     -0.939924    23A     -0.895187    24A     -0.795147
      25A     -0.786896    26A     -0.688444    27A     -0.660573
      28A     -0.596782    29A     -0.589677    30A     -0.578237
      31A     -0.574349    32A     -0.562717    33A     -0.549387
      34A     -0.539019    35A     -0.498852    36A     -0.495166
      37A     -0.450452    38A     -0.392076    39A     -0.367262
      40A     -0.331203    41A     -0.318567

  @DF-RHF Final Energy:  -602.95238321730278

   => Energetics <=

    Nuclear Repulsion Energy =            524.4820293216531581
    One-Electron Energy =               -1971.8270748499810452
    Two-Electron Energy =                 844.3926623110249921
    Total Energy =                       -602.9523832173027813
  Basis Set: (AUG-CC-PVTZ AUX)
    Blend: AUG-CC-PVTZ-RI + DEF2-QZVPP-RI
    Molecular point group: c1

    Geometry (in Angstrom), charge = 0, multiplicity = 1:

       Center              X                  Y                   Z               Mass
    ------------   -----------------  -----------------  -----------------  -----------------
         I           -1.776366513217     0.000154272989     0.001209713967   126.904471900000
         C            2.419147486783    -1.224269727011    -0.013477286033    12.000000000000
         C            2.419154486783     1.224578272989    -0.013950286033    12.000000000000
         C            3.101307486783     0.000158272989    -0.020489286033    12.000000000000
         C            1.016617486783    -1.218494727011    -0.004237286033    12.000000000000
         C            1.016612486783     1.218806272989    -0.004711286033    12.000000000000
         C            0.332095486783     0.000161272989     0.001163713967    12.000000000000
         C            3.174617486783    -2.529645727011     0.015967713967    12.000000000000
         C            3.174566486783     2.529999272989     0.014992713967    12.000000000000
         H            4.190973486783     0.000151272989    -0.034155286033     1.007825032230
         H            0.467322486783    -2.156749727011    -0.005469286033     1.007825032230
         H            0.467322486783     2.157065272989    -0.006309286033     1.007825032230
         H            4.138891486783    -2.437933727011    -0.489773286033     1.007825032230
         H            2.608288486783    -3.325997727011    -0.472751286033     1.007825032230
         H            3.367602486783    -2.842915727011     1.047057713967     1.007825032230
         H            2.634787886783     3.289341172989    -0.453021586033     1.007825032230
         H            3.366089486783     2.844511272989     1.045976713967     1.007825032230
         H            4.139543486783     2.437704272989    -0.489290286033     1.007825032230

  Basis Set: AUG-CC-PVTZ
    Blend: AUG-CC-PVTZ
  Basis Set: (AUG-CC-PVTZ AUX)
    Blend: AUG-CC-PVTZ-JKFIT + DEF2-UNIVERSAL-JKFIT
	 Reference Energy          =    -602.9523832173027813 [Eh]
	 Singles Energy            =      -0.0000000000000000 [Eh]
	 Same-Spin Energy          =      -0.4258658246215541 [Eh]
	 Opposite-Spin Energy      =      -1.2997909640048648 [Eh]
	 Correlation Energy        =      -1.7256567886264189 [Eh]
	 Total Energy              =    -604.6780400059292333 [Eh]

	 ================> DF-SCS-MP2 Energies <==================
	-----------------------------------------------------------
	 SCS Same-Spin Scale       =       0.3333333333333333 [-]
	 SCS Opposite-Spin Scale   =       1.2000000000000000 [-]
	 SCS Same-Spin Energy      =      -0.1419552748738514 [Eh]
	 SCS Opposite-Spin Energy  =      -1.5597491568058377 [Eh]
	 SCS Correlation Energy    =      -1.7017044316796890 [Eh]
	 SCS Total Energy          =    -604.6540876489824541 [Eh]
	-----------------------------------------------------------

  Dipole Moment: [D]
     X:     2.1999      Y:     0.0243      Z:     0.0719     Total:     2.2012

*** Psi4 exiting successfully. Buy a developer a beer!
