                               Psi4 1.4a3.dev225

  ==> Input File <==

--------------------------------------------------------------------------
#psi4
#
memory 32 gb

molecule  {
0 1
  I       -2.0593870    -0.0000050     0.0008870
  C        2.1361270    -1.2244290    -0.0138000
  C        2.1361340     1.2244190    -0.0142730
  C        2.8182870    -0.0000010    -0.0208120
  C        0.7335970    -1.2186540    -0.0045600
  C        0.7335920     1.2186470    -0.0050340
  C        0.1357514    -0.0447796     0.0007529
  C        2.8915970    -2.5298050     0.0156450
  C        2.8915460     2.5298400     0.0146700
  H        3.9079530    -0.0000080    -0.0344780
  H        0.1843020    -2.1569090    -0.0057920
  H        0.1843020     2.1569060    -0.0066320
  H        3.8558710    -2.4380930    -0.4900960
  H        2.3252680    -3.3261570    -0.4730740
  H        3.0845820    -2.8430750     1.0467350
  H        2.3258810     3.3255980    -0.4757890
  H        3.0830690     2.8443520     1.0456540
  H        3.8565230     2.4375450    -0.4896130
units angstrom
no_reorient  #important for SAPT in psi4, default
symmetry c1  #important for SAPT in psi4, default
}

set PROPERTIES_ORIGIN ["COM"]
properties('MP2/aug-cc-pvtz', properties = ['dipole'])
--------------------------------------------------------------------------

    Molecular point group: c1
  Charge       = 0
  Multiplicity = 1
  Basis Set: AUG-CC-PVTZ
    Blend: AUG-CC-PVTZ
  Basis Set: (AUG-CC-PVTZ AUX)
    Blend: AUG-CC-PVTZ-JKFIT + DEF2-UNIVERSAL-JKFIT

    Orbital Energies [Eh]
    ---------------------

    Doubly Occupied:

       1A    -11.290646     2A    -11.259613     3A    -11.258393
       4A    -11.244928     5A    -11.237954     6A    -11.237177
       7A    -11.234213     8A    -11.233531     9A     -7.709230
      10A     -5.540594    11A     -5.531462    12A     -5.531385
      13A     -2.269752    14A     -2.265419    15A     -2.265358
      16A     -2.255182    17A     -2.255175    18A     -1.179680
      19A     -1.072928    20A     -1.051218    21A     -0.951383
      22A     -0.947723    23A     -0.883748    24A     -0.800456
      25A     -0.787621    26A     -0.695348    27A     -0.667984
      28A     -0.596258    29A     -0.592716    30A     -0.587516
      31A     -0.578323    32A     -0.562748    33A     -0.548269
      34A     -0.540665    35A     -0.507899    36A     -0.501550
      37A     -0.427882    38A     -0.386365    39A     -0.361488
      40A     -0.337630    41A     -0.323602

  @DF-RHF Final Energy:  -602.94657583434844

   => Energetics <=

    Nuclear Repulsion Energy =            524.5796120087611598
    One-Electron Energy =               -1972.0303500670629546
    Two-Electron Energy =                 844.5041622239533581
    Total Energy =                       -602.9465758343484367
  Basis Set: (AUG-CC-PVTZ AUX)
    Blend: AUG-CC-PVTZ-RI + DEF2-QZVPP-RI
    Molecular point group: c1

    Geometry (in Angstrom), charge = 0, multiplicity = 1:

       Center              X                  Y                   Z               Mass
    ------------   -----------------  -----------------  -----------------  -----------------
         I           -1.780737795845     0.002312601968     0.001311783332   126.904471900000
         C            2.414776204155    -1.222111398032    -0.013375216668    12.000000000000
         C            2.414783204155     1.226736601968    -0.013848216668    12.000000000000
         C            3.096936204155     0.002316601968    -0.020387216668    12.000000000000
         C            1.012246204155    -1.216336398032    -0.004135216668    12.000000000000
         C            1.012241204155     1.220964601968    -0.004609216668    12.000000000000
         C            0.414400604155    -0.042461998032     0.001177683332    12.000000000000
         C            3.170246204155    -2.527487398032     0.016069783332    12.000000000000
         C            3.170195204155     2.532157601968     0.015094783332    12.000000000000
         H            4.186602204155     0.002309601968    -0.034053216668     1.007825032230
         H            0.462951204155    -2.154591398032    -0.005367216668     1.007825032230
         H            0.462951204155     2.159223601968    -0.006207216668     1.007825032230
         H            4.134520204155    -2.435775398032    -0.489671216668     1.007825032230
         H            2.603917204155    -3.323839398032    -0.472649216668     1.007825032230
         H            3.363231204155    -2.840757398032     1.047159783332     1.007825032230
         H            2.604530204155     3.327915601968    -0.475364216668     1.007825032230
         H            3.361718204155     2.846669601968     1.046078783332     1.007825032230
         H            4.135172204155     2.439862601968    -0.489188216668     1.007825032230

  Basis Set: AUG-CC-PVTZ
    Blend: AUG-CC-PVTZ
  Basis Set: (AUG-CC-PVTZ AUX)
    Blend: AUG-CC-PVTZ-JKFIT + DEF2-UNIVERSAL-JKFIT
	 Reference Energy          =    -602.9465758343484367 [Eh]
	 Singles Energy            =      -0.0000000000000000 [Eh]
	 Same-Spin Energy          =      -0.4253380457776901 [Eh]
	 Opposite-Spin Energy      =      -1.2988298940591552 [Eh]
	 Correlation Energy        =      -1.7241679398368452 [Eh]
	 Total Energy              =    -604.6707437741853255 [Eh]

	 ================> DF-SCS-MP2 Energies <==================
	-----------------------------------------------------------
	 SCS Same-Spin Scale       =       0.3333333333333333 [-]
	 SCS Opposite-Spin Scale   =       1.2000000000000000 [-]
	 SCS Same-Spin Energy      =      -0.1417793485925634 [Eh]
	 SCS Opposite-Spin Energy  =      -1.5585958728709861 [Eh]
	 SCS Correlation Energy    =      -1.7003752214635495 [Eh]
	 SCS Total Energy          =    -604.6469510558119964 [Eh]
	-----------------------------------------------------------

  Dipole Moment: [D]
     X:     2.6408      Y:    -0.0043      Z:     0.0807     Total:     2.6420

*** Psi4 exiting successfully. Buy a developer a beer!
