                               Psi4 1.4a3.dev225

  ==> Input File <==

--------------------------------------------------------------------------
#psi4
#
memory 32 gb

molecule  {
0 1
  I       -2.0593870    -0.0000050     0.0008870
  C        2.1361270    -1.2244290    -0.0138000
  C        2.1361340     1.2244190    -0.0142730
  C        2.8182870    -0.0000010    -0.0208120
  C        0.7335970    -1.2186540    -0.0045600
  C        0.7335920     1.2186470    -0.0050340
  C        0.0490750     0.0000020     0.0008410
  C        2.8915970    -2.5298050     0.0156450
  C        2.8915460     2.5298400     0.0146700
  H        3.9079530    -0.0000080    -0.0344780
  H        0.1843020    -2.1569090    -0.0057920
  H        0.1843020     2.1569060    -0.0066320
  H        3.8558710    -2.4380930    -0.4900960
  H        2.3252680    -3.3261570    -0.4730740
  H        3.0669541    -2.8144599     0.9525520
  H        2.3258810     3.3255980    -0.4757890
  H        3.0830690     2.8443520     1.0456540
  H        3.8565230     2.4375450    -0.4896130
units angstrom
no_reorient  #important for SAPT in psi4, default
symmetry c1  #important for SAPT in psi4, default
}

set PROPERTIES_ORIGIN ["COM"]
properties('MP2/aug-cc-pvtz', properties = ['dipole'])
--------------------------------------------------------------------------

    Molecular point group: c1
  Charge       = 0
  Multiplicity = 1
  Basis Set: AUG-CC-PVTZ
    Blend: AUG-CC-PVTZ
  Basis Set: (AUG-CC-PVTZ AUX)
    Blend: AUG-CC-PVTZ-JKFIT + DEF2-UNIVERSAL-JKFIT

    Orbital Energies [Eh]
    ---------------------

    Doubly Occupied:

       1A    -11.290221     2A    -11.255462     3A    -11.255068
       4A    -11.242360     5A    -11.242293     6A    -11.236518
       7A    -11.231862     8A    -11.219765     9A     -7.717106
      10A     -5.548802    11A     -5.539234    12A     -5.539198
      13A     -2.278469    14A     -2.273526    15A     -2.273519
      16A     -2.262873    17A     -2.262866    18A     -1.167516
      19A     -1.068559    20A     -1.047516    21A     -0.955131
      22A     -0.940931    23A     -0.895105    24A     -0.795955
      25A     -0.787268    26A     -0.688590    27A     -0.659601
      28A     -0.604196    29A     -0.594267    30A     -0.582192
      31A     -0.573132    32A     -0.559582    33A     -0.548843
      34A     -0.536739    35A     -0.500464    36A     -0.494649
      37A     -0.450349    38A     -0.392315    39A     -0.367172
      40A     -0.331545    41A     -0.318609

  @DF-RHF Final Energy:  -602.94730516651146

   => Energetics <=

    Nuclear Repulsion Energy =            524.7323489577678401
    One-Electron Energy =               -1972.3005776482380043
    Two-Electron Energy =                 844.6209235239588224
    Total Energy =                       -602.9473051665114554
  Basis Set: (AUG-CC-PVTZ AUX)
    Blend: AUG-CC-PVTZ-RI + DEF2-QZVPP-RI
    Molecular point group: c1

    Geometry (in Angstrom), charge = 0, multiplicity = 1:

       Center              X                  Y                   Z               Mass
    ------------   -----------------  -----------------  -----------------  -----------------
         I           -1.776177463448    -0.000128257888     0.001716408083   126.904471900000
         C            2.419336536552    -1.224552257888    -0.012970591917    12.000000000000
         C            2.419343536552     1.224295742112    -0.013443591917    12.000000000000
         C            3.101496536552    -0.000124257888    -0.019982591917    12.000000000000
         C            1.016806536552    -1.218777257888    -0.003730591917    12.000000000000
         C            1.016801536552     1.218523742112    -0.004204591917    12.000000000000
         C            0.332284536552    -0.000121257888     0.001670408083    12.000000000000
         C            3.174806536552    -2.529928257888     0.016474408083    12.000000000000
         C            3.174755536552     2.529716742112     0.015499408083    12.000000000000
         H            4.191162536552    -0.000131257888    -0.033648591917     1.007825032230
         H            0.467511536552    -2.157032257888    -0.004962591917     1.007825032230
         H            0.467511536552     2.156782742112    -0.005802591917     1.007825032230
         H            4.139080536552    -2.438216257888    -0.489266591917     1.007825032230
         H            2.608477536552    -3.326280257888    -0.472244591917     1.007825032230
         H            3.350163636552    -2.814583157888     0.953381408083     1.007825032230
         H            2.609090536552     3.325474742112    -0.474959591917     1.007825032230
         H            3.366278536552     2.844228742112     1.046483408083     1.007825032230
         H            4.139732536552     2.437421742112    -0.488783591917     1.007825032230

  Basis Set: AUG-CC-PVTZ
    Blend: AUG-CC-PVTZ
  Basis Set: (AUG-CC-PVTZ AUX)
    Blend: AUG-CC-PVTZ-JKFIT + DEF2-UNIVERSAL-JKFIT
	 Reference Energy          =    -602.9473051665114554 [Eh]
	 Singles Energy            =      -0.0000000000000000 [Eh]
	 Same-Spin Energy          =      -0.4259027547743236 [Eh]
	 Opposite-Spin Energy      =      -1.2996267872770582 [Eh]
	 Correlation Energy        =      -1.7255295420513819 [Eh]
	 Total Energy              =    -604.6728347085628457 [Eh]

	 ================> DF-SCS-MP2 Energies <==================
	-----------------------------------------------------------
	 SCS Same-Spin Scale       =       0.3333333333333333 [-]
	 SCS Opposite-Spin Scale   =       1.2000000000000000 [-]
	 SCS Same-Spin Energy      =      -0.1419675849247745 [Eh]
	 SCS Opposite-Spin Energy  =      -1.5595521447324698 [Eh]
	 SCS Correlation Energy    =      -1.7015197296572444 [Eh]
	 SCS Total Energy          =    -604.6488248961686622 [Eh]
	-----------------------------------------------------------

  Dipole Moment: [D]
     X:     2.2195      Y:    -0.0270      Z:     0.1036     Total:     2.2221

*** Psi4 exiting successfully. Buy a developer a beer!
