                               Psi4 1.4a3.dev225

  ==> Input File <==

--------------------------------------------------------------------------
#psi4
#
memory 32 gb

molecule  {
0 1
  I       -2.0593870    -0.0000050     0.0008870
  C        2.1761178    -1.2017674     0.0118839
  C        2.1361340     1.2244190    -0.0142730
  C        2.8182870    -0.0000010    -0.0208120
  C        0.7335970    -1.2186540    -0.0045600
  C        0.7335920     1.2186470    -0.0050340
  C        0.0490750     0.0000020     0.0008410
  C        2.8915970    -2.5298050     0.0156450
  C        2.8915460     2.5298400     0.0146700
  H        3.9079530    -0.0000080    -0.0344780
  H        0.1843020    -2.1569090    -0.0057920
  H        0.1843020     2.1569060    -0.0066320
  H        3.8558710    -2.4380930    -0.4900960
  H        2.3252680    -3.3261570    -0.4730740
  H        3.0845820    -2.8430750     1.0467350
  H        2.3258810     3.3255980    -0.4757890
  H        3.0830690     2.8443520     1.0456540
  H        3.8565230     2.4375450    -0.4896130
units angstrom
no_reorient  #important for SAPT in psi4, default
symmetry c1  #important for SAPT in psi4, default
}

set PROPERTIES_ORIGIN ["COM"]
properties('MP2/aug-cc-pvtz', properties = ['dipole'])
--------------------------------------------------------------------------

    Molecular point group: c1
  Charge       = 0
  Multiplicity = 1
  Basis Set: AUG-CC-PVTZ
    Blend: AUG-CC-PVTZ
  Basis Set: (AUG-CC-PVTZ AUX)
    Blend: AUG-CC-PVTZ-JKFIT + DEF2-UNIVERSAL-JKFIT

    Orbital Energies [Eh]
    ---------------------

    Doubly Occupied:

       1A    -11.290050     2A    -11.256341     3A    -11.255835
       4A    -11.246354     5A    -11.241961     6A    -11.233069
       7A    -11.232331     8A    -11.232260     9A     -7.716871
      10A     -5.548559    11A     -5.539008    12A     -5.538961
      13A     -2.278226    14A     -2.273289    15A     -2.273278
      16A     -2.262648    17A     -2.262642    18A     -1.167834
      19A     -1.065178    20A     -1.049170    21A     -0.952565
      22A     -0.936499    23A     -0.894481    24A     -0.798357
      25A     -0.782646    26A     -0.688521    27A     -0.659528
      28A     -0.598038    29A     -0.589859    30A     -0.577321
      31A     -0.571663    32A     -0.560088    33A     -0.548043
      34A     -0.535374    35A     -0.501307    36A     -0.497801
      37A     -0.446789    38A     -0.394384    39A     -0.366936
      40A     -0.327846    41A     -0.320721

  @DF-RHF Final Energy:  -602.95066188991245

   => Energetics <=

    Nuclear Repulsion Energy =            524.1886624555819481
    One-Electron Energy =               -1971.2533820535966242
    Two-Electron Energy =                 844.1140577081021092
    Total Energy =                       -602.9506618899124533
  Basis Set: (AUG-CC-PVTZ AUX)
    Blend: AUG-CC-PVTZ-RI + DEF2-QZVPP-RI
    Molecular point group: c1

    Geometry (in Angstrom), charge = 0, multiplicity = 1:

       Center              X                  Y                   Z               Mass
    ------------   -----------------  -----------------  -----------------  -----------------
         I           -1.778322762120    -0.001176216908    -0.000021395403   126.904471900000
         C            2.457182037880    -1.202938616908     0.010975504597    12.000000000000
         C            2.417198237880     1.223247783092    -0.015181395403    12.000000000000
         C            3.099351237880    -0.001172216908    -0.021720395403    12.000000000000
         C            1.014661237880    -1.219825216908    -0.005468395403    12.000000000000
         C            1.014656237880     1.217475783092    -0.005942395403    12.000000000000
         C            0.330139237880    -0.001169216908    -0.000067395403    12.000000000000
         C            3.172661237880    -2.530976216908     0.014736604597    12.000000000000
         C            3.172610237880     2.528668783092     0.013761604597    12.000000000000
         H            4.189017237880    -0.001179216908    -0.035386395403     1.007825032230
         H            0.465366237880    -2.158080216908    -0.006700395403     1.007825032230
         H            0.465366237880     2.155734783092    -0.007540395403     1.007825032230
         H            4.136935237880    -2.439264216908    -0.491004395403     1.007825032230
         H            2.606332237880    -3.327328216908    -0.473982395403     1.007825032230
         H            3.365646237880    -2.844246216908     1.045826604597     1.007825032230
         H            2.606945237880     3.324426783092    -0.476697395403     1.007825032230
         H            3.364133237880     2.843180783092     1.044745604597     1.007825032230
         H            4.137587237880     2.436373783092    -0.490521395403     1.007825032230

  Basis Set: AUG-CC-PVTZ
    Blend: AUG-CC-PVTZ
  Basis Set: (AUG-CC-PVTZ AUX)
    Blend: AUG-CC-PVTZ-JKFIT + DEF2-UNIVERSAL-JKFIT
	 Reference Energy          =    -602.9506618899124533 [Eh]
	 Singles Energy            =      -0.0000000000000000 [Eh]
	 Same-Spin Energy          =      -0.4258309591006106 [Eh]
	 Opposite-Spin Energy      =      -1.3002033071718762 [Eh]
	 Correlation Energy        =      -1.7260342662724868 [Eh]
	 Total Energy              =    -604.6766961561849030 [Eh]

	 ================> DF-SCS-MP2 Energies <==================
	-----------------------------------------------------------
	 SCS Same-Spin Scale       =       0.3333333333333333 [-]
	 SCS Opposite-Spin Scale   =       1.2000000000000000 [-]
	 SCS Same-Spin Energy      =      -0.1419436530335369 [Eh]
	 SCS Opposite-Spin Energy  =      -1.5602439686062513 [Eh]
	 SCS Correlation Energy    =      -1.7021876216397882 [Eh]
	 SCS Total Energy          =    -604.6528495115522901 [Eh]
	-----------------------------------------------------------

  Dipole Moment: [D]
     X:     2.2174      Y:    -0.0125      Z:     0.0695     Total:     2.2185

*** Psi4 exiting successfully. Buy a developer a beer!
