                               Psi4 1.4a3.dev225

  ==> Input File <==

--------------------------------------------------------------------------
#psi4
#
memory 32 gb

molecule  {
0 1
  I       -2.0593870    -0.0000050     0.0008870
  C        2.1361270    -1.2244290    -0.0138000
  C        2.1361340     1.2244190    -0.0142730
  C        2.8182870    -0.0000010    -0.0208120
  C        0.7335970    -1.2186540    -0.0045600
  C        0.7335920     1.2186470    -0.0050340
  C        0.0490750     0.0000020     0.0008410
  C        2.8915970    -2.5298050     0.0156450
  C        2.8915460     2.5298400     0.0146700
  H        3.9079530    -0.0000080    -0.0344780
  H        0.1843020    -2.1569090    -0.0057920
  H        0.1843020     2.1569060    -0.0066320
  H        3.8558710    -2.4380930    -0.4900960
  H        2.3252680    -3.3261570    -0.4730740
  H        3.0933959    -2.8573825     1.0938265
  H        2.3258810     3.3255980    -0.4757890
  H        3.0830690     2.8443520     1.0456540
  H        3.8565230     2.4375450    -0.4896130
units angstrom
no_reorient  #important for SAPT in psi4, default
symmetry c1  #important for SAPT in psi4, default
}

set PROPERTIES_ORIGIN ["COM"]
properties('MP2/aug-cc-pvtz', properties = ['dipole'])
--------------------------------------------------------------------------

    Molecular point group: c1
  Charge       = 0
  Multiplicity = 1
  Basis Set: AUG-CC-PVTZ
    Blend: AUG-CC-PVTZ
  Basis Set: (AUG-CC-PVTZ AUX)
    Blend: AUG-CC-PVTZ-JKFIT + DEF2-UNIVERSAL-JKFIT

    Orbital Energies [Eh]
    ---------------------

    Doubly Occupied:

       1A    -11.290533     2A    -11.256007     3A    -11.255792
       4A    -11.242851     5A    -11.242810     6A    -11.237890
       7A    -11.237063     8A    -11.232097     9A     -7.717351
      10A     -5.549051    11A     -5.539476    12A     -5.539440
      13A     -2.278719    14A     -2.273772    15A     -2.273766
      16A     -2.263112    17A     -2.263105    18A     -1.167697
      19A     -1.066544    20A     -1.046706    21A     -0.947886
      22A     -0.937469    23A     -0.895402    24A     -0.793305
      25A     -0.786781    26A     -0.688525    27A     -0.660195
      28A     -0.595166    29A     -0.586859    30A     -0.574294
      31A     -0.570650    32A     -0.560520    33A     -0.549306
      34A     -0.537553    35A     -0.497690    36A     -0.494911
      37A     -0.450713    38A     -0.392115    39A     -0.367411
      40A     -0.331109    41A     -0.318774

  @DF-RHF Final Energy:  -602.95135580584906

   => Energetics <=

    Nuclear Repulsion Energy =            524.0469122863930806
    One-Electron Energy =               -1970.9757063845279390
    Two-Electron Energy =                 843.9774382922857967
    Total Energy =                       -602.9513558058490617
  Basis Set: (AUG-CC-PVTZ AUX)
    Blend: AUG-CC-PVTZ-RI + DEF2-QZVPP-RI
    Molecular point group: c1

    Geometry (in Angstrom), charge = 0, multiplicity = 1:

       Center              X                  Y                   Z               Mass
    ------------   -----------------  -----------------  -----------------  -----------------
         I           -1.776292340998     0.000058221215     0.001102634872   126.904471900000
         C            2.419221659002    -1.224365778785    -0.013584365128    12.000000000000
         C            2.419228659002     1.224482221215    -0.014057365128    12.000000000000
         C            3.101381659002     0.000062221215    -0.020596365128    12.000000000000
         C            1.016691659002    -1.218590778785    -0.004344365128    12.000000000000
         C            1.016686659002     1.218710221215    -0.004818365128    12.000000000000
         C            0.332169659002     0.000065221215     0.001056634872    12.000000000000
         C            3.174691659002    -2.529741778785     0.015860634872    12.000000000000
         C            3.174640659002     2.529903221215     0.014885634872    12.000000000000
         H            4.191047659002     0.000055221215    -0.034262365128     1.007825032230
         H            0.467396659002    -2.156845778785    -0.005576365128     1.007825032230
         H            0.467396659002     2.156969221215    -0.006416365128     1.007825032230
         H            4.138965659002    -2.438029778785    -0.489880365128     1.007825032230
         H            2.608362659002    -3.326093778785    -0.472858365128     1.007825032230
         H            3.376490559002    -2.857319278785     1.094042134872     1.007825032230
         H            2.608975659002     3.325661221215    -0.475573365128     1.007825032230
         H            3.366163659002     2.844415221215     1.045869634872     1.007825032230
         H            4.139617659002     2.437608221215    -0.489397365128     1.007825032230

  Basis Set: AUG-CC-PVTZ
    Blend: AUG-CC-PVTZ
  Basis Set: (AUG-CC-PVTZ AUX)
    Blend: AUG-CC-PVTZ-JKFIT + DEF2-UNIVERSAL-JKFIT
	 Reference Energy          =    -602.9513558058490617 [Eh]
	 Singles Energy            =      -0.0000000000000000 [Eh]
	 Same-Spin Energy          =      -0.4258682874979207 [Eh]
	 Opposite-Spin Energy      =      -1.3004062367016225 [Eh]
	 Correlation Energy        =      -1.7262745241995432 [Eh]
	 Total Energy              =    -604.6776303300486006 [Eh]

	 ================> DF-SCS-MP2 Energies <==================
	-----------------------------------------------------------
	 SCS Same-Spin Scale       =       0.3333333333333333 [-]
	 SCS Opposite-Spin Scale   =       1.2000000000000000 [-]
	 SCS Same-Spin Energy      =      -0.1419560958326402 [Eh]
	 SCS Opposite-Spin Energy  =      -1.5604874840419469 [Eh]
	 SCS Correlation Energy    =      -1.7024435798745872 [Eh]
	 SCS Total Energy          =    -604.6537993857236870 [Eh]
	-----------------------------------------------------------

  Dipole Moment: [D]
     X:     2.1882      Y:     0.0193      Z:     0.0617     Total:     2.1891

*** Psi4 exiting successfully. Buy a developer a beer!
