                               Psi4 1.4a3.dev225

  ==> Input File <==

--------------------------------------------------------------------------
#psi4
#
memory 32 gb

molecule  {
0 1
  I       -2.0593870    -0.0000050     0.0008870
  C        2.1361270    -1.2244290    -0.0138000
  C        2.1361340     1.2244190    -0.0142730
  C        2.8182870    -0.0000010    -0.0208120
  C        0.7335970    -1.2186540    -0.0045600
  C        0.7335920     1.2186470    -0.0050340
  C        0.0490750     0.0000020     0.0008410
  C        2.8915970    -2.5298050     0.0156450
  C        2.8915460     2.5298400     0.0146700
  H        3.9079530    -0.0000080    -0.0344780
  H        0.1843020    -2.1569090    -0.0057920
  H        0.1843020     2.1569060    -0.0066320
  H        3.8558710    -2.4380930    -0.4900960
  H        2.3252680    -3.3261570    -0.4730740
  H        3.0845820    -2.8430750     1.0467350
  H        2.3258810     3.3255980    -0.4757890
  H        3.0830690     2.8443520     1.0456540
  H        3.8741852     2.4358557    -0.4988430
units angstrom
no_reorient  #important for SAPT in psi4, default
symmetry c1  #important for SAPT in psi4, default
}

set PROPERTIES_ORIGIN ["COM"]
properties('MP2/aug-cc-pvtz', properties = ['dipole'])
--------------------------------------------------------------------------

    Molecular point group: c1
  Charge       = 0
  Multiplicity = 1
  Basis Set: AUG-CC-PVTZ
    Blend: AUG-CC-PVTZ
  Basis Set: (AUG-CC-PVTZ AUX)
    Blend: AUG-CC-PVTZ-JKFIT + DEF2-UNIVERSAL-JKFIT

    Orbital Energies [Eh]
    ---------------------

    Doubly Occupied:

       1A    -11.290473     2A    -11.255824     3A    -11.255684
       4A    -11.242757     5A    -11.242676     6A    -11.236859
       7A    -11.234398     8A    -11.232020     9A     -7.717305
      10A     -5.549004    11A     -5.539430    12A     -5.539394
      13A     -2.278672    14A     -2.273726    15A     -2.273720
      16A     -2.263067    17A     -2.263060    18A     -1.167621
      19A     -1.066806    20A     -1.046759    21A     -0.948758
      22A     -0.938302    23A     -0.895317    24A     -0.793763
      25A     -0.786722    26A     -0.688510    27A     -0.659679
      28A     -0.594774    29A     -0.589418    30A     -0.577800
      31A     -0.573062    32A     -0.558875    33A     -0.548933
      34A     -0.535831    35A     -0.498673    36A     -0.495046
      37A     -0.450579    38A     -0.392200    39A     -0.367364
      40A     -0.331308    41A     -0.318733

  @DF-RHF Final Energy:  -602.95287402452527

   => Energetics <=

    Nuclear Repulsion Energy =            524.1744074093807058
    One-Electron Energy =               -1971.2287568685792394
    Two-Electron Energy =                 844.1014754346731479
    Total Energy =                       -602.9528740245252720
  Basis Set: (AUG-CC-PVTZ AUX)
    Blend: AUG-CC-PVTZ-RI + DEF2-QZVPP-RI
    Molecular point group: c1

    Geometry (in Angstrom), charge = 0, multiplicity = 1:

       Center              X                  Y                   Z               Mass
    ------------   -----------------  -----------------  -----------------  -----------------
         I           -1.776330782822     0.000003400896     0.001347326079   126.904471900000
         C            2.419183217178    -1.224420599104    -0.013339673921    12.000000000000
         C            2.419190217178     1.224427400896    -0.013812673921    12.000000000000
         C            3.101343217178     0.000007400896    -0.020351673921    12.000000000000
         C            1.016653217178    -1.218645599104    -0.004099673921    12.000000000000
         C            1.016648217178     1.218655400896    -0.004573673921    12.000000000000
         C            0.332131217178     0.000010400896     0.001301326079    12.000000000000
         C            3.174653217178    -2.529796599104     0.016105326079    12.000000000000
         C            3.174602217178     2.529848400896     0.015130326079    12.000000000000
         H            4.191009217178     0.000000400896    -0.034017673921     1.007825032230
         H            0.467358217178    -2.156900599104    -0.005331673921     1.007825032230
         H            0.467358217178     2.156914400896    -0.006171673921     1.007825032230
         H            4.138927217178    -2.438084599104    -0.489635673921     1.007825032230
         H            2.608324217178    -3.326148599104    -0.472613673921     1.007825032230
         H            3.367638217178    -2.843066599104     1.047195326079     1.007825032230
         H            2.608937217178     3.325606400896    -0.475328673921     1.007825032230
         H            3.366125217178     2.844360400896     1.046114326079     1.007825032230
         H            4.157241417178     2.435864100896    -0.498382673921     1.007825032230

  Basis Set: AUG-CC-PVTZ
    Blend: AUG-CC-PVTZ
  Basis Set: (AUG-CC-PVTZ AUX)
    Blend: AUG-CC-PVTZ-JKFIT + DEF2-UNIVERSAL-JKFIT
	 Reference Energy          =    -602.9528740245252720 [Eh]
	 Singles Energy            =      -0.0000000000000000 [Eh]
	 Same-Spin Energy          =      -0.4258763208769907 [Eh]
	 Opposite-Spin Energy      =      -1.3002216343716573 [Eh]
	 Correlation Energy        =      -1.7260979552486480 [Eh]
	 Total Energy              =    -604.6789719797739053 [Eh]

	 ================> DF-SCS-MP2 Energies <==================
	-----------------------------------------------------------
	 SCS Same-Spin Scale       =       0.3333333333333333 [-]
	 SCS Opposite-Spin Scale   =       1.2000000000000000 [-]
	 SCS Same-Spin Energy      =      -0.1419587736256636 [Eh]
	 SCS Opposite-Spin Energy  =      -1.5602659612459886 [Eh]
	 SCS Correlation Energy    =      -1.7022247348716522 [Eh]
	 SCS Total Energy          =    -604.6550987593968784 [Eh]
	-----------------------------------------------------------

  Dipole Moment: [D]
     X:     2.1902      Y:    -0.0043      Z:     0.0825     Total:     2.1917

*** Psi4 exiting successfully. Buy a developer a beer!
