                               Psi4 1.4a3.dev225

  ==> Input File <==

--------------------------------------------------------------------------
#psi4
#
memory 32 gb

molecule  {
0 1
  I       -2.0593870    -0.0000050     0.0008870
  C        2.1361270    -1.2244290    -0.0138000
  C        2.1361340     1.2244190    -0.0142730
  C        2.8182870    -0.0000010    -0.0208120
  C        0.7335970    -1.2186540    -0.0045600
  C        0.7335920     1.2186470    -0.0050340
  C        0.1470208    -0.1743712     0.0000682
  C        2.8915970    -2.5298050     0.0156450
  C        2.8915460     2.5298400     0.0146700
  H        3.9079530    -0.0000080    -0.0344780
  H        0.1843020    -2.1569090    -0.0057920
  H        0.1843020     2.1569060    -0.0066320
  H        3.8558710    -2.4380930    -0.4900960
  H        2.3252680    -3.3261570    -0.4730740
  H        3.0845820    -2.8430750     1.0467350
  H        2.3258810     3.3255980    -0.4757890
  H        3.0830690     2.8443520     1.0456540
  H        3.8565230     2.4375450    -0.4896130
units angstrom
no_reorient  #important for SAPT in psi4, default
symmetry c1  #important for SAPT in psi4, default
}

set PROPERTIES_ORIGIN ["COM"]
properties('MP2/aug-cc-pvtz', properties = ['dipole'])
--------------------------------------------------------------------------

    Molecular point group: c1
  Charge       = 0
  Multiplicity = 1
  Basis Set: AUG-CC-PVTZ
    Blend: AUG-CC-PVTZ
  Basis Set: (AUG-CC-PVTZ AUX)
    Blend: AUG-CC-PVTZ-JKFIT + DEF2-UNIVERSAL-JKFIT

    Orbital Energies [Eh]
    ---------------------

    Doubly Occupied:

       1A    -11.285372     2A    -11.262114     3A    -11.257286
       4A    -11.253078     5A    -11.238802     6A    -11.235583
       7A    -11.232966     8A    -11.222581     9A     -7.707491
      10A     -5.538792    11A     -5.529728    12A     -5.529668
      13A     -2.267864    14A     -2.263631    15A     -2.263575
      16A     -2.253482    17A     -2.253474    18A     -1.188459
      19A     -1.082897    20A     -1.051648    21A     -0.952991
      22A     -0.942163    23A     -0.881392    24A     -0.812331
      25A     -0.776503    26A     -0.698079    27A     -0.664050
      28A     -0.596156    29A     -0.593797    30A     -0.591060
      31A     -0.578722    32A     -0.563075    33A     -0.547747
      34A     -0.540282    35A     -0.515534    36A     -0.503190
      37A     -0.416661    38A     -0.389611    39A     -0.359302
      40A     -0.349425    41A     -0.315216

  @DF-RHF Final Energy:  -602.90117725448511

   => Energetics <=

    Nuclear Repulsion Energy =            524.8406622294888848
    One-Electron Energy =               -1972.4721250892087028
    Two-Electron Energy =                 844.7302856052345987
    Total Energy =                       -602.9011772544851055
  Basis Set: (AUG-CC-PVTZ AUX)
    Blend: AUG-CC-PVTZ-RI + DEF2-QZVPP-RI
    Molecular point group: c1

    Geometry (in Angstrom), charge = 0, multiplicity = 1:

       Center              X                  Y                   Z               Mass
    ------------   -----------------  -----------------  -----------------  -----------------
         I           -1.781320758922     0.009016341117     0.001347202682   126.904471900000
         C            2.414193241078    -1.215407658883    -0.013339797318    12.000000000000
         C            2.414200241078     1.233440341117    -0.013812797318    12.000000000000
         C            3.096353241078     0.009020341117    -0.020351797318    12.000000000000
         C            1.011663241078    -1.209632658883    -0.004099797318    12.000000000000
         C            1.011658241078     1.227668341117    -0.004573797318    12.000000000000
         C            0.425087041078    -0.165349858883     0.000528402682    12.000000000000
         C            3.169663241078    -2.520783658883     0.016105202682    12.000000000000
         C            3.169612241078     2.538861341117     0.015130202682    12.000000000000
         H            4.186019241078     0.009013341117    -0.034017797318     1.007825032230
         H            0.462368241078    -2.147887658883    -0.005331797318     1.007825032230
         H            0.462368241078     2.165927341117    -0.006171797318     1.007825032230
         H            4.133937241078    -2.429071658883    -0.489635797318     1.007825032230
         H            2.603334241078    -3.317135658883    -0.472613797318     1.007825032230
         H            3.362648241078    -2.834053658883     1.047195202682     1.007825032230
         H            2.603947241078     3.334619341117    -0.475328797318     1.007825032230
         H            3.361135241078     2.853373341117     1.046114202682     1.007825032230
         H            4.134589241078     2.446566341117    -0.489152797318     1.007825032230

  Basis Set: AUG-CC-PVTZ
    Blend: AUG-CC-PVTZ
  Basis Set: (AUG-CC-PVTZ AUX)
    Blend: AUG-CC-PVTZ-JKFIT + DEF2-UNIVERSAL-JKFIT
	 Reference Energy          =    -602.9011772544851055 [Eh]
	 Singles Energy            =      -0.0000000000000000 [Eh]
	 Same-Spin Energy          =      -0.4241298185550558 [Eh]
	 Opposite-Spin Energy      =      -1.2994128558733666 [Eh]
	 Correlation Energy        =      -1.7235426744284223 [Eh]
	 Total Energy              =    -604.6247199289135779 [Eh]

	 ================> DF-SCS-MP2 Energies <==================
	-----------------------------------------------------------
	 SCS Same-Spin Scale       =       0.3333333333333333 [-]
	 SCS Opposite-Spin Scale   =       1.2000000000000000 [-]
	 SCS Same-Spin Energy      =      -0.1413766061850186 [Eh]
	 SCS Opposite-Spin Energy  =      -1.5592954270480399 [Eh]
	 SCS Correlation Energy    =      -1.7006720332330585 [Eh]
	 SCS Total Energy          =    -604.6018492877182098 [Eh]
	-----------------------------------------------------------

  Dipole Moment: [D]
     X:     2.7257      Y:    -0.0402      Z:     0.0811     Total:     2.7272

*** Psi4 exiting successfully. Buy a developer a beer!
