                               Psi4 1.4a3.dev225

  ==> Input File <==

--------------------------------------------------------------------------
#psi4
#
memory 32 gb

molecule  {
0 1
  I       -2.0593870    -0.0000050     0.0008870
  C        2.1361270    -1.2244290    -0.0138000
  C        2.1361340     1.2244190    -0.0142730
  C        2.8182870    -0.0000010    -0.0208120
  C        0.7335970    -1.2186540    -0.0045600
  C        0.7335920     1.2186470    -0.0050340
  C       -0.0009250     0.0000018     0.0008421
  C        2.8915970    -2.5298050     0.0156450
  C        2.8915460     2.5298400     0.0146700
  H        3.9079530    -0.0000080    -0.0344780
  H        0.1843020    -2.1569090    -0.0057920
  H        0.1843020     2.1569060    -0.0066320
  H        3.8558710    -2.4380930    -0.4900960
  H        2.3252680    -3.3261570    -0.4730740
  H        3.0845820    -2.8430750     1.0467350
  H        2.3258810     3.3255980    -0.4757890
  H        3.0830690     2.8443520     1.0456540
  H        3.8565230     2.4375450    -0.4896130
units angstrom
no_reorient  #important for SAPT in psi4, default
symmetry c1  #important for SAPT in psi4, default
}

set PROPERTIES_ORIGIN ["COM"]
properties('MP2/aug-cc-pvtz', properties = ['dipole'])
--------------------------------------------------------------------------

    Molecular point group: c1
  Charge       = 0
  Multiplicity = 1
  Basis Set: AUG-CC-PVTZ
    Blend: AUG-CC-PVTZ
  Basis Set: (AUG-CC-PVTZ AUX)
    Blend: AUG-CC-PVTZ-JKFIT + DEF2-UNIVERSAL-JKFIT

    Orbital Energies [Eh]
    ---------------------

    Doubly Occupied:

       1A    -11.291215     2A    -11.254290     3A    -11.254264
       4A    -11.244158     5A    -11.244136     6A    -11.236581
       7A    -11.231232     8A    -11.231231     9A     -7.721015
      10A     -5.552874    11A     -5.543111    12A     -5.543110
      13A     -2.282914    14A     -2.277608    15A     -2.277549
      16A     -2.266759    17A     -2.266753    18A     -1.162033
      19A     -1.064749    20A     -1.045049    21A     -0.948877
      22A     -0.934263    23A     -0.901660    24A     -0.791517
      25A     -0.785200    26A     -0.685020    27A     -0.655906
      28A     -0.594724    29A     -0.588179    30A     -0.576309
      31A     -0.568041    32A     -0.559016    33A     -0.549977
      34A     -0.534934    35A     -0.494657    36A     -0.490722
      37A     -0.461879    38A     -0.395920    39A     -0.369729
      40A     -0.329172    41A     -0.314253

  @DF-RHF Final Energy:  -602.94963871323705

   => Energetics <=

    Nuclear Repulsion Energy =            524.1467422304024240
    One-Electron Energy =               -1971.1515892567447281
    Two-Electron Energy =                 844.0552083131052541
    Total Energy =                       -602.9496387132370501
  Basis Set: (AUG-CC-PVTZ AUX)
    Blend: AUG-CC-PVTZ-RI + DEF2-QZVPP-RI
    Molecular point group: c1

    Geometry (in Angstrom), charge = 0, multiplicity = 1:

       Center              X                  Y                   Z               Mass
    ------------   -----------------  -----------------  -----------------  -----------------
         I           -1.773667561867    -0.000003927995     0.001307169040   126.904471900000
         C            2.421846438133    -1.224427927995    -0.013379830960    12.000000000000
         C            2.421853438133     1.224420072005    -0.013852830960    12.000000000000
         C            3.104006438133     0.000000072005    -0.020391830960    12.000000000000
         C            1.019316438133    -1.218652927995    -0.004139830960    12.000000000000
         C            1.019311438133     1.218648072005    -0.004613830960    12.000000000000
         C            0.284794438133     0.000002872005     0.001262269040    12.000000000000
         C            3.177316438133    -2.529803927995     0.016065169040    12.000000000000
         C            3.177265438133     2.529841072005     0.015090169040    12.000000000000
         H            4.193672438133    -0.000006927995    -0.034057830960     1.007825032230
         H            0.470021438133    -2.156907927995    -0.005371830960     1.007825032230
         H            0.470021438133     2.156907072005    -0.006211830960     1.007825032230
         H            4.141590438133    -2.438091927995    -0.489675830960     1.007825032230
         H            2.610987438133    -3.326155927995    -0.472653830960     1.007825032230
         H            3.370301438133    -2.843073927995     1.047155169040     1.007825032230
         H            2.611600438133     3.325599072005    -0.475368830960     1.007825032230
         H            3.368788438133     2.844353072005     1.046074169040     1.007825032230
         H            4.142242438133     2.437546072005    -0.489192830960     1.007825032230

  Basis Set: AUG-CC-PVTZ
    Blend: AUG-CC-PVTZ
  Basis Set: (AUG-CC-PVTZ AUX)
    Blend: AUG-CC-PVTZ-JKFIT + DEF2-UNIVERSAL-JKFIT
	 Reference Energy          =    -602.9496387132370501 [Eh]
	 Singles Energy            =      -0.0000000000000000 [Eh]
	 Same-Spin Energy          =      -0.4264168588741620 [Eh]
	 Opposite-Spin Energy      =      -1.3012858353718271 [Eh]
	 Correlation Energy        =      -1.7277026942459890 [Eh]
	 Total Energy              =    -604.6773414074830271 [Eh]

	 ================> DF-SCS-MP2 Energies <==================
	-----------------------------------------------------------
	 SCS Same-Spin Scale       =       0.3333333333333333 [-]
	 SCS Opposite-Spin Scale   =       1.2000000000000000 [-]
	 SCS Same-Spin Energy      =      -0.1421389529580540 [Eh]
	 SCS Opposite-Spin Energy  =      -1.5615430024461925 [Eh]
	 SCS Correlation Energy    =      -1.7036819554042464 [Eh]
	 SCS Total Energy          =    -604.6533206686412996 [Eh]
	-----------------------------------------------------------

  Dipole Moment: [D]
     X:     1.9864      Y:     0.0001      Z:     0.0781     Total:     1.9879

*** Psi4 exiting successfully. Buy a developer a beer!
