                               Psi4 1.4a3.dev225

  ==> Input File <==

--------------------------------------------------------------------------
#psi4
#
memory 32 gb

molecule  {
0 1
  I       -2.0593870    -0.0000050     0.0008870
  C        2.1361270    -1.2244290    -0.0138000
  C        2.1361340     1.2244190    -0.0142730
  C        2.8182870    -0.0000010    -0.0208120
  C        0.7335970    -1.2186540    -0.0045600
  C        0.7335920     1.2186470    -0.0050340
  C        0.0704477    -0.0117590     0.0008217
  C        2.8915970    -2.5298050     0.0156450
  C        2.8915460     2.5298400     0.0146700
  H        3.9079530    -0.0000080    -0.0344780
  H        0.1843020    -2.1569090    -0.0057920
  H        0.1843020     2.1569060    -0.0066320
  H        3.8558710    -2.4380930    -0.4900960
  H        2.3252680    -3.3261570    -0.4730740
  H        3.0845820    -2.8430750     1.0467350
  H        2.3258810     3.3255980    -0.4757890
  H        3.0830690     2.8443520     1.0456540
  H        3.8565230     2.4375450    -0.4896130
units angstrom
no_reorient  #important for SAPT in psi4, default
symmetry c1  #important for SAPT in psi4, default
}

set PROPERTIES_ORIGIN ["COM"]
properties('MP2/aug-cc-pvtz', properties = ['dipole'])
--------------------------------------------------------------------------

    Molecular point group: c1
  Charge       = 0
  Multiplicity = 1
  Basis Set: AUG-CC-PVTZ
    Blend: AUG-CC-PVTZ
  Basis Set: (AUG-CC-PVTZ AUX)
    Blend: AUG-CC-PVTZ-JKFIT + DEF2-UNIVERSAL-JKFIT

    Orbital Energies [Eh]
    ---------------------

    Doubly Occupied:

       1A    -11.290277     2A    -11.256494     3A    -11.256223
       4A    -11.243019     5A    -11.241172     6A    -11.237011
       7A    -11.232462     8A    -11.232316     9A     -7.715465
      10A     -5.547088    11A     -5.537610    12A     -5.537562
      13A     -2.276616    14A     -2.271826    15A     -2.271813
      16A     -2.261255    17A     -2.261249    18A     -1.170226
      19A     -1.068128    20A     -1.047837    21A     -0.949688
      22A     -0.941079    23A     -0.892479    24A     -0.795219
      25A     -0.787440    26A     -0.690053    27A     -0.661827
      28A     -0.595069    29A     -0.590216    30A     -0.579244
      31A     -0.575225    32A     -0.560709    33A     -0.548806
      34A     -0.538148    35A     -0.500691    36A     -0.496625
      37A     -0.445330    38A     -0.390628    39A     -0.366068
      40A     -0.332370    41A     -0.320349

  @DF-RHF Final Energy:  -602.95344148958065

   => Energetics <=

    Nuclear Repulsion Energy =            524.3257936890914834
    One-Electron Energy =               -1971.5326453519533061
    Two-Electron Energy =                 844.2534101732812815
    Total Energy =                       -602.9534414895806549
  Basis Set: (AUG-CC-PVTZ AUX)
    Blend: AUG-CC-PVTZ-RI + DEF2-QZVPP-RI
    Molecular point group: c1

    Geometry (in Angstrom), charge = 0, multiplicity = 1:

       Center              X                  Y                   Z               Mass
    ------------   -----------------  -----------------  -----------------  -----------------
         I           -1.777359652737     0.000604455074     0.001308224326   126.904471900000
         C            2.418154347263    -1.223819544926    -0.013378775674    12.000000000000
         C            2.418161347263     1.225028455074    -0.013851775674    12.000000000000
         C            3.100314347263     0.000608455074    -0.020390775674    12.000000000000
         C            1.015624347263    -1.218044544926    -0.004138775674    12.000000000000
         C            1.015619347263     1.219256455074    -0.004612775674    12.000000000000
         C            0.352475047263    -0.011149544926     0.001242924326    12.000000000000
         C            3.173624347263    -2.529195544926     0.016066224326    12.000000000000
         C            3.173573347263     2.530449455074     0.015091224326    12.000000000000
         H            4.189980347263     0.000601455074    -0.034056775674     1.007825032230
         H            0.466329347263    -2.156299544926    -0.005370775674     1.007825032230
         H            0.466329347263     2.157515455074    -0.006210775674     1.007825032230
         H            4.137898347263    -2.437483544926    -0.489674775674     1.007825032230
         H            2.607295347263    -3.325547544926    -0.472652775674     1.007825032230
         H            3.366609347263    -2.842465544926     1.047156224326     1.007825032230
         H            2.607908347263     3.326207455074    -0.475367775674     1.007825032230
         H            3.365096347263     2.844961455074     1.046075224326     1.007825032230
         H            4.138550347263     2.438154455074    -0.489191775674     1.007825032230

  Basis Set: AUG-CC-PVTZ
    Blend: AUG-CC-PVTZ
  Basis Set: (AUG-CC-PVTZ AUX)
    Blend: AUG-CC-PVTZ-JKFIT + DEF2-UNIVERSAL-JKFIT
	 Reference Energy          =    -602.9534414895806549 [Eh]
	 Singles Energy            =      -0.0000000000000000 [Eh]
	 Same-Spin Energy          =      -0.4257007542385781 [Eh]
	 Opposite-Spin Energy      =      -1.2996812387134919 [Eh]
	 Correlation Energy        =      -1.7253819929520700 [Eh]
	 Total Energy              =    -604.6788234825327208 [Eh]

	 ================> DF-SCS-MP2 Energies <==================
	-----------------------------------------------------------
	 SCS Same-Spin Scale       =       0.3333333333333333 [-]
	 SCS Opposite-Spin Scale   =       1.2000000000000000 [-]
	 SCS Same-Spin Energy      =      -0.1419002514128594 [Eh]
	 SCS Opposite-Spin Energy  =      -1.5596174864561902 [Eh]
	 SCS Correlation Energy    =      -1.7015177378690496 [Eh]
	 SCS Total Energy          =    -604.6549592274496945 [Eh]
	-----------------------------------------------------------

  Dipole Moment: [D]
     X:     2.3008      Y:     0.0011      Z:     0.0794     Total:     2.3022

*** Psi4 exiting successfully. Buy a developer a beer!
