                               Psi4 1.4a3.dev225

  ==> Input File <==

--------------------------------------------------------------------------
#psi4
#
memory 32 gb

molecule  {
0 1
  I       -2.0593870    -0.0000050     0.0008870
  C        2.1361270    -1.2244290    -0.0138000
  C        2.1361340     1.2244190    -0.0142730
  C        2.8182870    -0.0000010    -0.0208120
  C        0.7335970    -1.2186540    -0.0045600
  C        0.7335920     1.2186470    -0.0050340
  C       -0.0342665     0.0507207     0.0009004
  C        2.8915970    -2.5298050     0.0156450
  C        2.8915460     2.5298400     0.0146700
  H        3.9079530    -0.0000080    -0.0344780
  H        0.1843020    -2.1569090    -0.0057920
  H        0.1843020     2.1569060    -0.0066320
  H        3.8558710    -2.4380930    -0.4900960
  H        2.3252680    -3.3261570    -0.4730740
  H        3.0845820    -2.8430750     1.0467350
  H        2.3258810     3.3255980    -0.4757890
  H        3.0830690     2.8443520     1.0456540
  H        3.8565230     2.4375450    -0.4896130
units angstrom
no_reorient  #important for SAPT in psi4, default
symmetry c1  #important for SAPT in psi4, default
}

set PROPERTIES_ORIGIN ["COM"]
properties('MP2/aug-cc-pvtz', properties = ['dipole'])
--------------------------------------------------------------------------

    Molecular point group: c1
  Charge       = 0
  Multiplicity = 1
  Basis Set: AUG-CC-PVTZ
    Blend: AUG-CC-PVTZ
  Basis Set: (AUG-CC-PVTZ AUX)
    Blend: AUG-CC-PVTZ-JKFIT + DEF2-UNIVERSAL-JKFIT

    Orbital Energies [Eh]
    ---------------------

    Doubly Occupied:

       1A    -11.291745     2A    -11.254007     3A    -11.253068
       4A    -11.248349     5A    -11.241898     6A    -11.236555
       7A    -11.231045     8A    -11.230581     9A     -7.723277
      10A     -5.555241    11A     -5.545386    12A     -5.545358
      13A     -2.285563    14A     -2.279992    15A     -2.279892
      16A     -2.269033    17A     -2.269027    18A     -1.159052
      19A     -1.064061    20A     -1.044368    21A     -0.948739
      22A     -0.931418    23A     -0.905571    24A     -0.793046
      25A     -0.780933    26A     -0.682942    27A     -0.653177
      28A     -0.594868    29A     -0.587430    30A     -0.575665
      31A     -0.565423    32A     -0.558454    33A     -0.550135
      34A     -0.533322    35A     -0.492681    36A     -0.488814
      37A     -0.466737    38A     -0.398578    39A     -0.370794
      40A     -0.329324    41A     -0.310186

  @DF-RHF Final Energy:  -602.94234584436651

   => Energetics <=

    Nuclear Repulsion Energy =            524.1047236970728136
    One-Electron Energy =               -1971.0426668961449650
    Two-Electron Energy =                 843.9955973547056374
    Total Energy =                       -602.9423458443665140
  Basis Set: (AUG-CC-PVTZ AUX)
    Blend: AUG-CC-PVTZ-RI + DEF2-QZVPP-RI
    Molecular point group: c1

    Geometry (in Angstrom), charge = 0, multiplicity = 1:

       Center              X                  Y                   Z               Mass
    ------------   -----------------  -----------------  -----------------  -----------------
         I           -1.771942814902    -0.002627603261     0.001304153196   126.904471900000
         C            2.423571185098    -1.227051603261    -0.013382846804    12.000000000000
         C            2.423578185098     1.221796396739    -0.013855846804    12.000000000000
         C            3.105731185098    -0.002623603261    -0.020394846804    12.000000000000
         C            1.021041185098    -1.221276603261    -0.004142846804    12.000000000000
         C            1.021036185098     1.216024396739    -0.004616846804    12.000000000000
         C            0.253177685098     0.048098096739     0.001317553196    12.000000000000
         C            3.179041185098    -2.532427603261     0.016062153196    12.000000000000
         C            3.178990185098     2.527217396739     0.015087153196    12.000000000000
         H            4.195397185098    -0.002630603261    -0.034060846804     1.007825032230
         H            0.471746185098    -2.159531603261    -0.005374846804     1.007825032230
         H            0.471746185098     2.154283396739    -0.006214846804     1.007825032230
         H            4.143315185098    -2.440715603261    -0.489678846804     1.007825032230
         H            2.612712185098    -3.328779603261    -0.472656846804     1.007825032230
         H            3.372026185098    -2.845697603261     1.047152153196     1.007825032230
         H            2.613325185098     3.322975396739    -0.475371846804     1.007825032230
         H            3.370513185098     2.841729396739     1.046071153196     1.007825032230
         H            4.143967185098     2.434922396739    -0.489195846804     1.007825032230

  Basis Set: AUG-CC-PVTZ
    Blend: AUG-CC-PVTZ
  Basis Set: (AUG-CC-PVTZ AUX)
    Blend: AUG-CC-PVTZ-JKFIT + DEF2-UNIVERSAL-JKFIT
	 Reference Energy          =    -602.9423458443665140 [Eh]
	 Singles Energy            =      -0.0000000000000000 [Eh]
	 Same-Spin Energy          =      -0.4267865348753556 [Eh]
	 Opposite-Spin Energy      =      -1.3023549303492490 [Eh]
	 Correlation Energy        =      -1.7291414652246047 [Eh]
	 Total Energy              =    -604.6714873095911571 [Eh]

	 ================> DF-SCS-MP2 Energies <==================
	-----------------------------------------------------------
	 SCS Same-Spin Scale       =       0.3333333333333333 [-]
	 SCS Opposite-Spin Scale   =       1.2000000000000000 [-]
	 SCS Same-Spin Energy      =      -0.1422621782917852 [Eh]
	 SCS Opposite-Spin Energy  =      -1.5628259164190987 [Eh]
	 SCS Correlation Energy    =      -1.7050880947108840 [Eh]
	 SCS Total Energy          =    -604.6474339390773594 [Eh]
	-----------------------------------------------------------

  Dipole Moment: [D]
     X:     1.8535      Y:    -0.0151      Z:     0.0775     Total:     1.8552

*** Psi4 exiting successfully. Buy a developer a beer!
