                               Psi4 1.4a3.dev225

  ==> Input File <==

--------------------------------------------------------------------------
#psi4
#
memory 32 gb

molecule  {
0 1
  I       -2.0593870    -0.0000050     0.0008870
  C        2.1361270    -1.2244290    -0.0138000
  C        2.1361340     1.2244190    -0.0142730
  C        2.8182870    -0.0000010    -0.0208120
  C        0.7335970    -1.2186540    -0.0045600
  C        0.7335920     1.2186470    -0.0050340
  C        0.0069616     0.0246340     0.0008743
  C        2.8915970    -2.5298050     0.0156450
  C        2.8915460     2.5298400     0.0146700
  H        3.9079530    -0.0000080    -0.0344780
  H        0.1843020    -2.1569090    -0.0057920
  H        0.1843020     2.1569060    -0.0066320
  H        3.8558710    -2.4380930    -0.4900960
  H        2.3252680    -3.3261570    -0.4730740
  H        3.0845820    -2.8430750     1.0467350
  H        2.3258810     3.3255980    -0.4757890
  H        3.0830690     2.8443520     1.0456540
  H        3.8565230     2.4375450    -0.4896130
units angstrom
no_reorient  #important for SAPT in psi4, default
symmetry c1  #important for SAPT in psi4, default
}

set PROPERTIES_ORIGIN ["COM"]
properties('MP2/aug-cc-pvtz', properties = ['dipole'])
--------------------------------------------------------------------------

    Molecular point group: c1
  Charge       = 0
  Multiplicity = 1
  Basis Set: AUG-CC-PVTZ
    Blend: AUG-CC-PVTZ
  Basis Set: (AUG-CC-PVTZ AUX)
    Blend: AUG-CC-PVTZ-JKFIT + DEF2-UNIVERSAL-JKFIT

    Orbital Energies [Eh]
    ---------------------

    Doubly Occupied:

       1A    -11.290934     2A    -11.254718     3A    -11.254221
       4A    -11.245521     5A    -11.242084     6A    -11.236613
       7A    -11.231465     8A    -11.231210     9A     -7.720457
      10A     -5.552293    11A     -5.542556    12A     -5.542549
      13A     -2.282268    14A     -2.277023    15A     -2.276973
      16A     -2.266199    17A     -2.266193    18A     -1.162935
      19A     -1.065217    20A     -1.045320    21A     -0.948934
      22A     -0.934908    23A     -0.900643    24A     -0.792801
      25A     -0.784595    26A     -0.685563    27A     -0.656428
      28A     -0.594695    29A     -0.588378    30A     -0.576490
      31A     -0.568943    32A     -0.559168    33A     -0.549748
      34A     -0.535322    35A     -0.495330    36A     -0.491547
      37A     -0.459837    38A     -0.395348    39A     -0.369361
      40A     -0.329878    41A     -0.314684

  @DF-RHF Final Energy:  -602.94995874206063

   => Energetics <=

    Nuclear Repulsion Energy =            524.1637887641852558
    One-Electron Energy =               -1971.1887950217155776
    Two-Electron Energy =                 844.0750475154696915
    Total Energy =                       -602.9499587420606304
  Basis Set: (AUG-CC-PVTZ AUX)
    Blend: AUG-CC-PVTZ-RI + DEF2-QZVPP-RI
    Molecular point group: c1

    Geometry (in Angstrom), charge = 0, multiplicity = 1:

       Center              X                  Y                   Z               Mass
    ------------   -----------------  -----------------  -----------------  -----------------
         I           -1.774075533597    -0.001278145178     0.001305503342   126.904471900000
         C            2.421438466403    -1.225702145178    -0.013381496658    12.000000000000
         C            2.421445466403     1.223145854822    -0.013854496658    12.000000000000
         C            3.103598466403    -0.001274145178    -0.020393496658    12.000000000000
         C            1.018908466403    -1.219927145178    -0.004141496658    12.000000000000
         C            1.018903466403     1.217373854822    -0.004615496658    12.000000000000
         C            0.292273066403     0.023360854822     0.001292803342    12.000000000000
         C            3.176908466403    -2.531078145178     0.016063503342    12.000000000000
         C            3.176857466403     2.528566854822     0.015088503342    12.000000000000
         H            4.193264466403    -0.001281145178    -0.034059496658     1.007825032230
         H            0.469613466403    -2.158182145178    -0.005373496658     1.007825032230
         H            0.469613466403     2.155632854822    -0.006213496658     1.007825032230
         H            4.141182466403    -2.439366145178    -0.489677496658     1.007825032230
         H            2.610579466403    -3.327430145178    -0.472655496658     1.007825032230
         H            3.369893466403    -2.844348145178     1.047153503342     1.007825032230
         H            2.611192466403     3.324324854822    -0.475370496658     1.007825032230
         H            3.368380466403     2.843078854822     1.046072503342     1.007825032230
         H            4.141834466403     2.436271854822    -0.489194496658     1.007825032230

  Basis Set: AUG-CC-PVTZ
    Blend: AUG-CC-PVTZ
  Basis Set: (AUG-CC-PVTZ AUX)
    Blend: AUG-CC-PVTZ-JKFIT + DEF2-UNIVERSAL-JKFIT
	 Reference Energy          =    -602.9499587420606304 [Eh]
	 Singles Energy            =      -0.0000000000000000 [Eh]
	 Same-Spin Energy          =      -0.4262850384039347 [Eh]
	 Opposite-Spin Energy      =      -1.3010904775722576 [Eh]
	 Correlation Energy        =      -1.7273755159761923 [Eh]
	 Total Energy              =    -604.6773342580368080 [Eh]

	 ================> DF-SCS-MP2 Energies <==================
	-----------------------------------------------------------
	 SCS Same-Spin Scale       =       0.3333333333333333 [-]
	 SCS Opposite-Spin Scale   =       1.2000000000000000 [-]
	 SCS Same-Spin Energy      =      -0.1420950128013115 [Eh]
	 SCS Opposite-Spin Energy  =      -1.5613085730867091 [Eh]
	 SCS Correlation Energy    =      -1.7034035858880208 [Eh]
	 SCS Total Energy          =    -604.6533623279486847 [Eh]
	-----------------------------------------------------------

  Dipole Moment: [D]
     X:     2.0184      Y:    -0.0054      Z:     0.0782     Total:     2.0199

*** Psi4 exiting successfully. Buy a developer a beer!
