                               Psi4 1.4a3.dev225

  ==> Input File <==

--------------------------------------------------------------------------
#psi4
#
memory 32 gb

molecule  {
0 1
  I       -2.0593870    -0.0000050     0.0008870
  C        2.1361270    -1.2244290    -0.0138000
  C        2.1361340     1.2244190    -0.0142730
  C        2.8182870    -0.0000010    -0.0208120
  C        0.7335970    -1.2186540    -0.0045600
  C        0.7335920     1.2186470    -0.0050340
  C        0.0588696    -0.0174353     0.0007637
  C        2.8915970    -2.5298050     0.0156450
  C        2.8915460     2.5298400     0.0146700
  H        3.9079530    -0.0000080    -0.0344780
  H        0.1843020    -2.1569090    -0.0057920
  H        0.1843020     2.1569060    -0.0066320
  H        3.8558710    -2.4380930    -0.4900960
  H        2.3252680    -3.3261570    -0.4730740
  H        3.0845820    -2.8430750     1.0467350
  H        2.3258810     3.3255980    -0.4757890
  H        3.0830690     2.8443520     1.0456540
  H        3.8565230     2.4375450    -0.4896130
units angstrom
no_reorient  #important for SAPT in psi4, default
symmetry c1  #important for SAPT in psi4, default
}

set PROPERTIES_ORIGIN ["COM"]
properties('MP2/aug-cc-pvtz', properties = ['dipole'])
--------------------------------------------------------------------------

    Molecular point group: c1
  Charge       = 0
  Multiplicity = 1
  Basis Set: AUG-CC-PVTZ
    Blend: AUG-CC-PVTZ
  Basis Set: (AUG-CC-PVTZ AUX)
    Blend: AUG-CC-PVTZ-JKFIT + DEF2-UNIVERSAL-JKFIT

    Orbital Energies [Eh]
    ---------------------

    Doubly Occupied:

       1A    -11.290281     2A    -11.256164     3A    -11.255773
       4A    -11.243675     5A    -11.240990     6A    -11.236909
       7A    -11.232276     8A    -11.232066     9A     -7.716444
      10A     -5.548109    11A     -5.538578    12A     -5.538537
      13A     -2.277711    14A     -2.272834    15A     -2.272832
      16A     -2.262218    17A     -2.262211    18A     -1.168813
      19A     -1.067561    20A     -1.047313    21A     -0.949511
      22A     -0.939861    23A     -0.893990    24A     -0.794871
      25A     -0.786832    26A     -0.689200    27A     -0.660760
      28A     -0.594937    29A     -0.589845    30A     -0.578420
      31A     -0.574258    32A     -0.560393    33A     -0.548942
      34A     -0.537661    35A     -0.499639    36A     -0.495737
      37A     -0.448088    38A     -0.391477    39A     -0.366745
      40A     -0.331950    41A     -0.319302

  @DF-RHF Final Energy:  -602.95324342587980

   => Energetics <=

    Nuclear Repulsion Energy =            524.2912546160482634
    One-Electron Energy =               -1971.4615736407340592
    Two-Electron Energy =                 844.2170755988059909
    Total Energy =                       -602.9532434258798048
  Basis Set: (AUG-CC-PVTZ AUX)
    Blend: AUG-CC-PVTZ-RI + DEF2-QZVPP-RI
    Molecular point group: c1

    Geometry (in Angstrom), charge = 0, multiplicity = 1:

       Center              X                  Y                   Z               Mass
    ------------   -----------------  -----------------  -----------------  -----------------
         I           -1.776760720690     0.000898088570     0.001311224651   126.904471900000
         C            2.418753279310    -1.223525911430    -0.013375775349    12.000000000000
         C            2.418760279310     1.225322088570    -0.013848775349    12.000000000000
         C            3.100913279310     0.000902088570    -0.020387775349    12.000000000000
         C            1.016223279310    -1.217750911430    -0.004135775349    12.000000000000
         C            1.016218279310     1.219550088570    -0.004609775349    12.000000000000
         C            0.341495879310    -0.016532211430     0.001187924651    12.000000000000
         C            3.174223279310    -2.528901911430     0.016069224651    12.000000000000
         C            3.174172279310     2.530743088570     0.015094224651    12.000000000000
         H            4.190579279310     0.000895088570    -0.034053775349     1.007825032230
         H            0.466928279310    -2.156005911430    -0.005367775349     1.007825032230
         H            0.466928279310     2.157809088570    -0.006207775349     1.007825032230
         H            4.138497279310    -2.437189911430    -0.489671775349     1.007825032230
         H            2.607894279310    -3.325253911430    -0.472649775349     1.007825032230
         H            3.367208279310    -2.842171911430     1.047159224651     1.007825032230
         H            2.608507279310     3.326501088570    -0.475364775349     1.007825032230
         H            3.365695279310     2.845255088570     1.046078224651     1.007825032230
         H            4.139149279310     2.438448088570    -0.489188775349     1.007825032230

  Basis Set: AUG-CC-PVTZ
    Blend: AUG-CC-PVTZ
  Basis Set: (AUG-CC-PVTZ AUX)
    Blend: AUG-CC-PVTZ-JKFIT + DEF2-UNIVERSAL-JKFIT
	 Reference Energy          =    -602.9532434258798048 [Eh]
	 Singles Energy            =      -0.0000000000000000 [Eh]
	 Same-Spin Energy          =      -0.4257761982411130 [Eh]
	 Opposite-Spin Energy      =      -1.2999002034766771 [Eh]
	 Correlation Energy        =      -1.7256764017177901 [Eh]
	 Total Energy              =    -604.6789198275976105 [Eh]

	 ================> DF-SCS-MP2 Energies <==================
	-----------------------------------------------------------
	 SCS Same-Spin Scale       =       0.3333333333333333 [-]
	 SCS Opposite-Spin Scale   =       1.2000000000000000 [-]
	 SCS Same-Spin Energy      =      -0.1419253994137043 [Eh]
	 SCS Opposite-Spin Energy  =      -1.5598802441720125 [Eh]
	 SCS Correlation Energy    =      -1.7018056435857170 [Eh]
	 SCS Total Energy          =    -604.6550490694655764 [Eh]
	-----------------------------------------------------------

  Dipole Moment: [D]
     X:     2.2461      Y:     0.0021      Z:     0.0792     Total:     2.2475

*** Psi4 exiting successfully. Buy a developer a beer!
