                               Psi4 1.4a3.dev225

  ==> Input File <==

--------------------------------------------------------------------------
#psi4
#
memory 32 gb

molecule  {
0 1
  I       -2.0593870    -0.0000050     0.0008870
  C        2.1361270    -1.2244290    -0.0138000
  C        2.1361340     1.2244190    -0.0142730
  C        2.8182870    -0.0000010    -0.0208120
  C        0.8572269    -1.1404238    -0.0055935
  C        0.7335920     1.2186470    -0.0050340
  C        0.0490750     0.0000020     0.0008410
  C        2.8915970    -2.5298050     0.0156450
  C        2.8915460     2.5298400     0.0146700
  H        3.9079530    -0.0000080    -0.0344780
  H        0.1843020    -2.1569090    -0.0057920
  H        0.1843020     2.1569060    -0.0066320
  H        3.8558710    -2.4380930    -0.4900960
  H        2.3252680    -3.3261570    -0.4730740
  H        3.0845820    -2.8430750     1.0467350
  H        2.3258810     3.3255980    -0.4757890
  H        3.0830690     2.8443520     1.0456540
  H        3.8565230     2.4375450    -0.4896130
units angstrom
no_reorient  #important for SAPT in psi4, default
symmetry c1  #important for SAPT in psi4, default
}

set PROPERTIES_ORIGIN ["COM"]
properties('MP2/aug-cc-pvtz', properties = ['dipole'])
--------------------------------------------------------------------------

    Molecular point group: c1
  Charge       = 0
  Multiplicity = 1
  Basis Set: AUG-CC-PVTZ
    Blend: AUG-CC-PVTZ
  Basis Set: (AUG-CC-PVTZ AUX)
    Blend: AUG-CC-PVTZ-JKFIT + DEF2-UNIVERSAL-JKFIT

    Orbital Energies [Eh]
    ---------------------

    Doubly Occupied:

       1A    -11.287343     2A    -11.251398     3A    -11.243612
       4A    -11.239180     5A    -11.237333     6A    -11.236403
       7A    -11.231571     8A    -11.230440     9A     -7.722541
      10A     -5.554479    11A     -5.544501    12A     -5.544475
      13A     -2.284153    14A     -2.279067    15A     -2.279037
      16A     -2.267949    17A     -2.267943    18A     -1.180582
      19A     -1.074668    20A     -1.044396    21A     -0.950727
      22A     -0.936551    23A     -0.899651    24A     -0.804979
      25A     -0.784784    26A     -0.676162    27A     -0.663931
      28A     -0.594808    29A     -0.591048    30A     -0.576250
      31A     -0.565978    32A     -0.553557    33A     -0.546987
      34A     -0.531486    35A     -0.504656    36A     -0.476665
      37A     -0.457061    38A     -0.395342    39A     -0.371278
      40A     -0.343178    41A     -0.316363

  @DF-RHF Final Energy:  -602.92641248857342

   => Energetics <=

    Nuclear Repulsion Energy =            526.0828011603005052
    One-Electron Energy =               -1974.9334030741983952
    Two-Electron Energy =                 845.9241894253244709
    Total Energy =                       -602.9264124885734191
  Basis Set: (AUG-CC-PVTZ AUX)
    Blend: AUG-CC-PVTZ-RI + DEF2-QZVPP-RI
    Molecular point group: c1

    Geometry (in Angstrom), charge = 0, multiplicity = 1:

       Center              X                  Y                   Z               Mass
    ------------   -----------------  -----------------  -----------------  -----------------
         I           -1.782649390614    -0.004050765870     0.001360688624   126.904471900000
         C            2.412864609386    -1.228474765870    -0.013326311376    12.000000000000
         C            2.412871609386     1.220373234130    -0.013799311376    12.000000000000
         C            3.095024609386    -0.004046765870    -0.020338311376    12.000000000000
         C            1.133964509386    -1.144469565870    -0.005119811376    12.000000000000
         C            1.010329609386     1.214601234130    -0.004560311376    12.000000000000
         C            0.325812609386    -0.004043765870     0.001314688624    12.000000000000
         C            3.168334609386    -2.533850765870     0.016118688624    12.000000000000
         C            3.168283609386     2.525794234130     0.015143688624    12.000000000000
         H            4.184690609386    -0.004053765870    -0.034004311376     1.007825032230
         H            0.461039609386    -2.160954765870    -0.005318311376     1.007825032230
         H            0.461039609386     2.152860234130    -0.006158311376     1.007825032230
         H            4.132608609386    -2.442138765870    -0.489622311376     1.007825032230
         H            2.602005609386    -3.330202765870    -0.472600311376     1.007825032230
         H            3.361319609386    -2.847120765870     1.047208688624     1.007825032230
         H            2.602618609386     3.321552234130    -0.475315311376     1.007825032230
         H            3.359806609386     2.840306234130     1.046127688624     1.007825032230
         H            4.133260609386     2.433499234130    -0.489139311376     1.007825032230

  Basis Set: AUG-CC-PVTZ
    Blend: AUG-CC-PVTZ
  Basis Set: (AUG-CC-PVTZ AUX)
    Blend: AUG-CC-PVTZ-JKFIT + DEF2-UNIVERSAL-JKFIT
	 Reference Energy          =    -602.9264124885734191 [Eh]
	 Singles Energy            =      -0.0000000000000000 [Eh]
	 Same-Spin Energy          =      -0.4262001193547562 [Eh]
	 Opposite-Spin Energy      =      -1.3014035981946530 [Eh]
	 Correlation Energy        =      -1.7276037175494092 [Eh]
	 Total Energy              =    -604.6540162061228330 [Eh]

	 ================> DF-SCS-MP2 Energies <==================
	-----------------------------------------------------------
	 SCS Same-Spin Scale       =       0.3333333333333333 [-]
	 SCS Opposite-Spin Scale   =       1.2000000000000000 [-]
	 SCS Same-Spin Energy      =      -0.1420667064515854 [Eh]
	 SCS Opposite-Spin Energy  =      -1.5616843178335835 [Eh]
	 SCS Correlation Energy    =      -1.7037510242851690 [Eh]
	 SCS Total Energy          =    -604.6301635128586440 [Eh]
	-----------------------------------------------------------

  Dipole Moment: [D]
     X:     1.9515      Y:     0.1144      Z:     0.0766     Total:     1.9564

*** Psi4 exiting successfully. Buy a developer a beer!
