                               Psi4 1.4a3.dev225

  ==> Input File <==

--------------------------------------------------------------------------
#psi4
#
memory 32 gb

molecule  {
0 1
  I       -2.0593870    -0.0000050     0.0008870
  C        2.1361270    -1.2244290    -0.0138000
  C        2.1361340     1.2244190    -0.0142730
  C        2.8182870    -0.0000010    -0.0208120
  C        0.8169357    -1.1679341    -0.0052563
  C        0.7335920     1.2186470    -0.0050340
  C        0.0490750     0.0000020     0.0008410
  C        2.8915970    -2.5298050     0.0156450
  C        2.8915460     2.5298400     0.0146700
  H        3.9079530    -0.0000080    -0.0344780
  H        0.1843020    -2.1569090    -0.0057920
  H        0.1843020     2.1569060    -0.0066320
  H        3.8558710    -2.4380930    -0.4900960
  H        2.3252680    -3.3261570    -0.4730740
  H        3.0845820    -2.8430750     1.0467350
  H        2.3258810     3.3255980    -0.4757890
  H        3.0830690     2.8443520     1.0456540
  H        3.8565230     2.4375450    -0.4896130
units angstrom
no_reorient  #important for SAPT in psi4, default
symmetry c1  #important for SAPT in psi4, default
}

set PROPERTIES_ORIGIN ["COM"]
properties('MP2/aug-cc-pvtz', properties = ['dipole'])
--------------------------------------------------------------------------

    Molecular point group: c1
  Charge       = 0
  Multiplicity = 1
  Basis Set: AUG-CC-PVTZ
    Blend: AUG-CC-PVTZ
  Basis Set: (AUG-CC-PVTZ AUX)
    Blend: AUG-CC-PVTZ-JKFIT + DEF2-UNIVERSAL-JKFIT

    Orbital Energies [Eh]
    ---------------------

    Doubly Occupied:

       1A    -11.288015     2A    -11.252656     3A    -11.243807
       4A    -11.243138     5A    -11.239330     6A    -11.236668
       7A    -11.231570     8A    -11.230852     9A     -7.720821
      10A     -5.552675    11A     -5.542839    12A     -5.542811
      13A     -2.282346    14A     -2.277310    15A     -2.277287
      16A     -2.266353    17A     -2.266346    18A     -1.175512
      19A     -1.071784    20A     -1.045086    21A     -0.949710
      22A     -0.937265    23A     -0.898321    24A     -0.799451
      25A     -0.786841    26A     -0.679506    27A     -0.662796
      28A     -0.593919    29A     -0.590099    30A     -0.576472
      31A     -0.567217    32A     -0.555454    33A     -0.547989
      34A     -0.534240    35A     -0.502304    36A     -0.482306
      37A     -0.458248    38A     -0.393988    39A     -0.370051
      40A     -0.339062    41A     -0.317038

  @DF-RHF Final Energy:  -602.94177061569894

   => Energetics <=

    Nuclear Repulsion Energy =            525.4394479446995092
    One-Electron Energy =               -1973.7034693631346727
    Two-Electron Energy =                 845.3222508027363347
    Total Energy =                       -602.9417706156989425
  Basis Set: (AUG-CC-PVTZ AUX)
    Blend: AUG-CC-PVTZ-RI + DEF2-QZVPP-RI
    Molecular point group: c1

    Geometry (in Angstrom), charge = 0, multiplicity = 1:

       Center              X                  Y                   Z               Mass
    ------------   -----------------  -----------------  -----------------  -----------------
         I           -1.780565137507    -0.002627665337     0.001343245357   126.904471900000
         C            2.414948862493    -1.227051665337    -0.013343754643    12.000000000000
         C            2.414955862493     1.221796334663    -0.013816754643    12.000000000000
         C            3.097108862493    -0.002623665337    -0.020355754643    12.000000000000
         C            1.095757562493    -1.170556765337    -0.004800054643    12.000000000000
         C            1.012413862493     1.216024334663    -0.004577754643    12.000000000000
         C            0.327896862493    -0.002620665337     0.001297245357    12.000000000000
         C            3.170418862493    -2.532427665337     0.016101245357    12.000000000000
         C            3.170367862493     2.527217334663     0.015126245357    12.000000000000
         H            4.186774862493    -0.002630665337    -0.034021754643     1.007825032230
         H            0.463123862493    -2.159531665337    -0.005335754643     1.007825032230
         H            0.463123862493     2.154283334663    -0.006175754643     1.007825032230
         H            4.134692862493    -2.440715665337    -0.489639754643     1.007825032230
         H            2.604089862493    -3.328779665337    -0.472617754643     1.007825032230
         H            3.363403862493    -2.845697665337     1.047191245357     1.007825032230
         H            2.604702862493     3.322975334663    -0.475332754643     1.007825032230
         H            3.361890862493     2.841729334663     1.046110245357     1.007825032230
         H            4.135344862493     2.434922334663    -0.489156754643     1.007825032230

  Basis Set: AUG-CC-PVTZ
    Blend: AUG-CC-PVTZ
  Basis Set: (AUG-CC-PVTZ AUX)
    Blend: AUG-CC-PVTZ-JKFIT + DEF2-UNIVERSAL-JKFIT
	 Reference Energy          =    -602.9417706156989425 [Eh]
	 Singles Energy            =      -0.0000000000000000 [Eh]
	 Same-Spin Energy          =      -0.4260273500436543 [Eh]
	 Opposite-Spin Energy      =      -1.3006841673001091 [Eh]
	 Correlation Energy        =      -1.7267115173437633 [Eh]
	 Total Energy              =    -604.6684821330427440 [Eh]

	 ================> DF-SCS-MP2 Energies <==================
	-----------------------------------------------------------
	 SCS Same-Spin Scale       =       0.3333333333333333 [-]
	 SCS Opposite-Spin Scale   =       1.2000000000000000 [-]
	 SCS Same-Spin Energy      =      -0.1420091166812181 [Eh]
	 SCS Opposite-Spin Energy  =      -1.5608210007601309 [Eh]
	 SCS Correlation Energy    =      -1.7028301174413489 [Eh]
	 SCS Total Energy          =    -604.6446007331402370 [Eh]
	-----------------------------------------------------------

  Dipole Moment: [D]
     X:     2.0246      Y:     0.0650      Z:     0.0773     Total:     2.0271

*** Psi4 exiting successfully. Buy a developer a beer!
