                               Psi4 1.4a3.dev225

  ==> Input File <==

--------------------------------------------------------------------------
#psi4
#
memory 32 gb

molecule  {
0 1
  I       -2.0593870    -0.0000050     0.0008870
  C        2.0589542    -1.2744938    -0.0650290
  C        2.1361340     1.2244190    -0.0142730
  C        2.8182870    -0.0000010    -0.0208120
  C        0.7335970    -1.2186540    -0.0045600
  C        0.7335920     1.2186470    -0.0050340
  C        0.0490750     0.0000020     0.0008410
  C        2.8915970    -2.5298050     0.0156450
  C        2.8915460     2.5298400     0.0146700
  H        3.9079530    -0.0000080    -0.0344780
  H        0.1843020    -2.1569090    -0.0057920
  H        0.1843020     2.1569060    -0.0066320
  H        3.8558710    -2.4380930    -0.4900960
  H        2.3252680    -3.3261570    -0.4730740
  H        3.0845820    -2.8430750     1.0467350
  H        2.3258810     3.3255980    -0.4757890
  H        3.0830690     2.8443520     1.0456540
  H        3.8565230     2.4375450    -0.4896130
units angstrom
no_reorient  #important for SAPT in psi4, default
symmetry c1  #important for SAPT in psi4, default
}

set PROPERTIES_ORIGIN ["COM"]
properties('MP2/aug-cc-pvtz', properties = ['dipole'])
--------------------------------------------------------------------------

    Molecular point group: c1
  Charge       = 0
  Multiplicity = 1
  Basis Set: AUG-CC-PVTZ
    Blend: AUG-CC-PVTZ
  Basis Set: (AUG-CC-PVTZ AUX)
    Blend: AUG-CC-PVTZ-JKFIT + DEF2-UNIVERSAL-JKFIT

    Orbital Energies [Eh]
    ---------------------

    Doubly Occupied:

       1A    -11.290826     2A    -11.254222     3A    -11.254045
       4A    -11.244554     5A    -11.243396     6A    -11.234569
       7A    -11.231986     8A    -11.231378     9A     -7.717889
      10A     -5.549604    11A     -5.539998    12A     -5.539975
      13A     -2.279272    14A     -2.274332    15A     -2.274298
      16A     -2.263626    17A     -2.263620    18A     -1.168130
      19A     -1.072636    20A     -1.041785    21A     -0.944835
      22A     -0.943015    23A     -0.896095    24A     -0.796347
      25A     -0.783725    26A     -0.688467    27A     -0.659129
      28A     -0.593328    29A     -0.589172    30A     -0.581173
      31A     -0.575183    32A     -0.559828    33A     -0.549212
      34A     -0.539735    35A     -0.500307    36A     -0.477579
      37A     -0.455597    38A     -0.388802    39A     -0.367913
      40A     -0.342642    41A     -0.311866

  @DF-RHF Final Energy:  -602.94230628712660

   => Energetics <=

    Nuclear Repulsion Energy =            524.3559624670300536
    One-Electron Energy =               -1971.5683596477169885
    Two-Electron Energy =                 844.2700908935602229
    Total Energy =                       -602.9423062871265984
  Basis Set: (AUG-CC-PVTZ AUX)
    Blend: AUG-CC-PVTZ-RI + DEF2-QZVPP-RI
    Molecular point group: c1

    Geometry (in Angstrom), charge = 0, multiplicity = 1:

       Center              X                  Y                   Z               Mass
    ------------   -----------------  -----------------  -----------------  -----------------
         I           -1.772261920119     0.002585900505     0.003957288546   126.904471900000
         C            2.346079279881    -1.271902899495    -0.061958711454    12.000000000000
         C            2.423259079881     1.227009900505    -0.011202711454    12.000000000000
         C            3.105412079881     0.002589900505    -0.017741711454    12.000000000000
         C            1.020722079881    -1.216063099495    -0.001489711454    12.000000000000
         C            1.020717079881     1.221237900505    -0.001963711454    12.000000000000
         C            0.336200079881     0.002592900505     0.003911288546    12.000000000000
         C            3.178722079881    -2.527214099495     0.018715288546    12.000000000000
         C            3.178671079881     2.532430900505     0.017740288546    12.000000000000
         H            4.195078079881     0.002582900505    -0.031407711454     1.007825032230
         H            0.471427079881    -2.154318099495    -0.002721711454     1.007825032230
         H            0.471427079881     2.159496900505    -0.003561711454     1.007825032230
         H            4.142996079881    -2.435502099495    -0.487025711454     1.007825032230
         H            2.612393079881    -3.323566099495    -0.470003711454     1.007825032230
         H            3.371707079881    -2.840484099495     1.049805288546     1.007825032230
         H            2.613006079881     3.328188900505    -0.472718711454     1.007825032230
         H            3.370194079881     2.846942900505     1.048724288546     1.007825032230
         H            4.143648079881     2.440135900505    -0.486542711454     1.007825032230

  Basis Set: AUG-CC-PVTZ
    Blend: AUG-CC-PVTZ
  Basis Set: (AUG-CC-PVTZ AUX)
    Blend: AUG-CC-PVTZ-JKFIT + DEF2-UNIVERSAL-JKFIT
	 Reference Energy          =    -602.9423062871265984 [Eh]
	 Singles Energy            =      -0.0000000000000000 [Eh]
	 Same-Spin Energy          =      -0.4256236529566253 [Eh]
	 Opposite-Spin Energy      =      -1.3006560970278149 [Eh]
	 Correlation Energy        =      -1.7262797499844402 [Eh]
	 Total Energy              =    -604.6685860371110266 [Eh]

	 ================> DF-SCS-MP2 Energies <==================
	-----------------------------------------------------------
	 SCS Same-Spin Scale       =       0.3333333333333333 [-]
	 SCS Opposite-Spin Scale   =       1.2000000000000000 [-]
	 SCS Same-Spin Energy      =      -0.1418745509855417 [Eh]
	 SCS Opposite-Spin Energy  =      -1.5607873164333779 [Eh]
	 SCS Correlation Energy    =      -1.7026618674189196 [Eh]
	 SCS Total Energy          =    -604.6449681545454951 [Eh]
	-----------------------------------------------------------

  Dipole Moment: [D]
     X:     2.1635      Y:     0.0195      Z:     0.0986     Total:     2.1658

*** Psi4 exiting successfully. Buy a developer a beer!
