                               Psi4 1.4a3.dev225

  ==> Input File <==

--------------------------------------------------------------------------
#psi4
#
memory 32 gb

molecule  {
0 1
  I       -2.0593870    -0.0000050     0.0008870
  C        2.1762074    -1.2028927    -0.0402995
  C        2.1361340     1.2244190    -0.0142730
  C        2.8182870    -0.0000010    -0.0208120
  C        0.7335970    -1.2186540    -0.0045600
  C        0.7335920     1.2186470    -0.0050340
  C        0.0490750     0.0000020     0.0008410
  C        2.8915970    -2.5298050     0.0156450
  C        2.8915460     2.5298400     0.0146700
  H        3.9079530    -0.0000080    -0.0344780
  H        0.1843020    -2.1569090    -0.0057920
  H        0.1843020     2.1569060    -0.0066320
  H        3.8558710    -2.4380930    -0.4900960
  H        2.3252680    -3.3261570    -0.4730740
  H        3.0845820    -2.8430750     1.0467350
  H        2.3258810     3.3255980    -0.4757890
  H        3.0830690     2.8443520     1.0456540
  H        3.8565230     2.4375450    -0.4896130
units angstrom
no_reorient  #important for SAPT in psi4, default
symmetry c1  #important for SAPT in psi4, default
}

set PROPERTIES_ORIGIN ["COM"]
properties('MP2/aug-cc-pvtz', properties = ['dipole'])
--------------------------------------------------------------------------

    Molecular point group: c1
  Charge       = 0
  Multiplicity = 1
  Basis Set: AUG-CC-PVTZ
    Blend: AUG-CC-PVTZ
  Basis Set: (AUG-CC-PVTZ AUX)
    Blend: AUG-CC-PVTZ-JKFIT + DEF2-UNIVERSAL-JKFIT

    Orbital Energies [Eh]
    ---------------------

    Doubly Occupied:

       1A    -11.290081     2A    -11.256391     3A    -11.255721
       4A    -11.246455     5A    -11.242236     6A    -11.233292
       7A    -11.232296     8A    -11.232258     9A     -7.716913
      10A     -5.548603    11A     -5.539050    12A     -5.539003
      13A     -2.278270    14A     -2.273332    15A     -2.273321
      16A     -2.262690    17A     -2.262683    18A     -1.167773
      19A     -1.065142    20A     -1.049193    21A     -0.952466
      22A     -0.936506    23A     -0.894500    24A     -0.798389
      25A     -0.782705    26A     -0.688567    27A     -0.659603
      28A     -0.597397    29A     -0.590226    30A     -0.577866
      31A     -0.570906    32A     -0.560130    33A     -0.547968
      34A     -0.535176    35A     -0.501300    36A     -0.498001
      37A     -0.446736    38A     -0.394452    39A     -0.366985
      40A     -0.328012    41A     -0.320758

  @DF-RHF Final Energy:  -602.95056784304904

   => Energetics <=

    Nuclear Repulsion Energy =            524.1625776481780576
    One-Electron Energy =               -1971.1995865122307805
    Two-Electron Energy =                 844.0864410210036795
    Total Energy =                       -602.9505678430490434
  Basis Set: (AUG-CC-PVTZ AUX)
    Blend: AUG-CC-PVTZ-RI + DEF2-QZVPP-RI
    Molecular point group: c1

    Geometry (in Angstrom), charge = 0, multiplicity = 1:

       Center              X                  Y                   Z               Mass
    ------------   -----------------  -----------------  -----------------  -----------------
         I           -1.778327397104    -0.001118005437     0.002678038060   126.904471900000
         C            2.457267002896    -1.204005705437    -0.038508461940    12.000000000000
         C            2.417193602896     1.223305994563    -0.012481961940    12.000000000000
         C            3.099346602896    -0.001114005437    -0.019020961940    12.000000000000
         C            1.014656602896    -1.219767005437    -0.002768961940    12.000000000000
         C            1.014651602896     1.217533994563    -0.003242961940    12.000000000000
         C            0.330134602896    -0.001111005437     0.002632038060    12.000000000000
         C            3.172656602896    -2.530918005437     0.017436038060    12.000000000000
         C            3.172605602896     2.528726994563     0.016461038060    12.000000000000
         H            4.189012602896    -0.001121005437    -0.032686961940     1.007825032230
         H            0.465361602896    -2.158022005437    -0.004000961940     1.007825032230
         H            0.465361602896     2.155792994563    -0.004840961940     1.007825032230
         H            4.136930602896    -2.439206005437    -0.488304961940     1.007825032230
         H            2.606327602896    -3.327270005437    -0.471282961940     1.007825032230
         H            3.365641602896    -2.844188005437     1.048526038060     1.007825032230
         H            2.606940602896     3.324484994563    -0.473997961940     1.007825032230
         H            3.364128602896     2.843238994563     1.047445038060     1.007825032230
         H            4.137582602896     2.436431994563    -0.487821961940     1.007825032230

  Basis Set: AUG-CC-PVTZ
    Blend: AUG-CC-PVTZ
  Basis Set: (AUG-CC-PVTZ AUX)
    Blend: AUG-CC-PVTZ-JKFIT + DEF2-UNIVERSAL-JKFIT
	 Reference Energy          =    -602.9505678430490434 [Eh]
	 Singles Energy            =      -0.0000000000000000 [Eh]
	 Same-Spin Energy          =      -0.4258429921351021 [Eh]
	 Opposite-Spin Energy      =      -1.3002305163063346 [Eh]
	 Correlation Energy        =      -1.7260735084414367 [Eh]
	 Total Energy              =    -604.6766413514905025 [Eh]

	 ================> DF-SCS-MP2 Energies <==================
	-----------------------------------------------------------
	 SCS Same-Spin Scale       =       0.3333333333333333 [-]
	 SCS Opposite-Spin Scale   =       1.2000000000000000 [-]
	 SCS Same-Spin Energy      =      -0.1419476640450340 [Eh]
	 SCS Opposite-Spin Energy  =      -1.5602766195676014 [Eh]
	 SCS Correlation Energy    =      -1.7022242836126356 [Eh]
	 SCS Total Energy          =    -604.6527921266616659 [Eh]
	-----------------------------------------------------------

  Dipole Moment: [D]
     X:     2.2096      Y:     0.0028      Z:     0.0882     Total:     2.2114

*** Psi4 exiting successfully. Buy a developer a beer!
