                               Psi4 1.4a3.dev225

  ==> Input File <==

--------------------------------------------------------------------------
#psi4
#
memory 32 gb

molecule  {
0 1
  I       -2.0593870    -0.0000050     0.0008870
  C        2.1361270    -1.2244290    -0.0138000
  C        2.1361340     1.2244190    -0.0142730
  C        2.8182870    -0.0000010    -0.0208120
  C        0.7335970    -1.2186540    -0.0045600
  C        0.7335920     1.2186470    -0.0050340
  C        0.0490750     0.0000020     0.0008410
  C        2.8915970    -2.5298050     0.0156450
  C        2.8915460     2.5298400     0.0146700
  H        3.9079530    -0.0000080    -0.0344780
  H        0.1843020    -2.1569090    -0.0057920
  H        0.1843020     2.1569060    -0.0066320
  H        3.7972449    -2.4073468    -0.5833669
  H        2.3252680    -3.3261570    -0.4730740
  H        3.0845820    -2.8430750     1.0467350
  H        2.3258810     3.3255980    -0.4757890
  H        3.0830690     2.8443520     1.0456540
  H        3.8565230     2.4375450    -0.4896130
units angstrom
no_reorient  #important for SAPT in psi4, default
symmetry c1  #important for SAPT in psi4, default
}

set PROPERTIES_ORIGIN ["COM"]
properties('MP2/aug-cc-pvtz', properties = ['dipole'])
--------------------------------------------------------------------------

    Molecular point group: c1
  Charge       = 0
  Multiplicity = 1
  Basis Set: AUG-CC-PVTZ
    Blend: AUG-CC-PVTZ
  Basis Set: (AUG-CC-PVTZ AUX)
    Blend: AUG-CC-PVTZ-JKFIT + DEF2-UNIVERSAL-JKFIT

    Orbital Energies [Eh]
    ---------------------

    Doubly Occupied:

       1A    -11.290199     2A    -11.255638     3A    -11.254882
       4A    -11.242545     5A    -11.242190     6A    -11.236732
       7A    -11.232025     8A    -11.231981     9A     -7.717120
      10A     -5.548813    11A     -5.539248    12A     -5.539213
      13A     -2.278480    14A     -2.273538    15A     -2.273531
      16A     -2.262889    17A     -2.262883    18A     -1.167509
      19A     -1.067149    20A     -1.046949    21A     -0.949324
      22A     -0.938779    23A     -0.895159    24A     -0.793434
      25A     -0.786395    26A     -0.688285    27A     -0.659499
      28A     -0.595750    29A     -0.593386    30A     -0.580894
      31A     -0.573269    32A     -0.558016    33A     -0.548212
      34A     -0.532463    35A     -0.499507    36A     -0.494879
      37A     -0.449778    38A     -0.392232    39A     -0.367183
      40A     -0.331371    41A     -0.318638

  @DF-RHF Final Energy:  -602.95212355520266

   => Energetics <=

    Nuclear Repulsion Energy =            524.3635952188282090
    One-Electron Energy =               -1971.6114995991472369
    Two-Electron Energy =                 844.2957808251164806
    Total Energy =                       -602.9521235552026610
  Basis Set: (AUG-CC-PVTZ AUX)
    Blend: AUG-CC-PVTZ-RI + DEF2-QZVPP-RI
    Molecular point group: c1

    Geometry (in Angstrom), charge = 0, multiplicity = 1:

       Center              X                  Y                   Z               Mass
    ------------   -----------------  -----------------  -----------------  -----------------
         I           -1.775999344984    -0.000137516545     0.001712445425   126.904471900000
         C            2.419514655016    -1.224561516545    -0.012974554575    12.000000000000
         C            2.419521655016     1.224286483455    -0.013447554575    12.000000000000
         C            3.101674655016    -0.000133516545    -0.019986554575    12.000000000000
         C            1.016984655016    -1.218786516545    -0.003734554575    12.000000000000
         C            1.016979655016     1.218514483455    -0.004208554575    12.000000000000
         C            0.332462655016    -0.000130516545     0.001666445425    12.000000000000
         C            3.174984655016    -2.529937516545     0.016470445425    12.000000000000
         C            3.174933655016     2.529707483455     0.015495445425    12.000000000000
         H            4.191340655016    -0.000140516545    -0.033652554575     1.007825032230
         H            0.467689655016    -2.157041516545    -0.004966554575     1.007825032230
         H            0.467689655016     2.156773483455    -0.005806554575     1.007825032230
         H            4.080632555016    -2.407479316545    -0.582541454575     1.007825032230
         H            2.608655655016    -3.326289516545    -0.472248554575     1.007825032230
         H            3.367969655016    -2.843207516545     1.047560445425     1.007825032230
         H            2.609268655016     3.325465483455    -0.474963554575     1.007825032230
         H            3.366456655016     2.844219483455     1.046479445425     1.007825032230
         H            4.139910655016     2.437412483455    -0.488787554575     1.007825032230

  Basis Set: AUG-CC-PVTZ
    Blend: AUG-CC-PVTZ
  Basis Set: (AUG-CC-PVTZ AUX)
    Blend: AUG-CC-PVTZ-JKFIT + DEF2-UNIVERSAL-JKFIT
	 Reference Energy          =    -602.9521235552026610 [Eh]
	 Singles Energy            =      -0.0000000000000000 [Eh]
	 Same-Spin Energy          =      -0.4259508772564745 [Eh]
	 Opposite-Spin Energy      =      -1.3002502347484843 [Eh]
	 Correlation Energy        =      -1.7262011120049587 [Eh]
	 Total Energy              =    -604.6783246672076757 [Eh]

	 ================> DF-SCS-MP2 Energies <==================
	-----------------------------------------------------------
	 SCS Same-Spin Scale       =       0.3333333333333333 [-]
	 SCS Opposite-Spin Scale   =       1.2000000000000000 [-]
	 SCS Same-Spin Energy      =      -0.1419836257521582 [Eh]
	 SCS Opposite-Spin Energy  =      -1.5603002816981812 [Eh]
	 SCS Correlation Energy    =      -1.7022839074503393 [Eh]
	 SCS Total Energy          =    -604.6544074626530119 [Eh]
	-----------------------------------------------------------

  Dipole Moment: [D]
     X:     2.1800      Y:    -0.0011      Z:     0.0538     Total:     2.1807

*** Psi4 exiting successfully. Buy a developer a beer!
