                               Psi4 1.4a3.dev225

  ==> Input File <==

--------------------------------------------------------------------------
#psi4
#
memory 32 gb

molecule  {
0 1
  I       -2.0593870    -0.0000050     0.0008870
  C        2.1361270    -1.2244290    -0.0138000
  C        2.1361340     1.2244190    -0.0142730
  C        2.8182870    -0.0000010    -0.0208120
  C        0.7547605    -1.2065215    -0.0047367
  C        0.7335920     1.2186470    -0.0050340
  C        0.0490750     0.0000020     0.0008410
  C        2.8915970    -2.5298050     0.0156450
  C        2.8915460     2.5298400     0.0146700
  H        3.9079530    -0.0000080    -0.0344780
  H        0.1843020    -2.1569090    -0.0057920
  H        0.1843020     2.1569060    -0.0066320
  H        3.8558710    -2.4380930    -0.4900960
  H        2.3252680    -3.3261570    -0.4730740
  H        3.0845820    -2.8430750     1.0467350
  H        2.3258810     3.3255980    -0.4757890
  H        3.0830690     2.8443520     1.0456540
  H        3.8565230     2.4375450    -0.4896130
units angstrom
no_reorient  #important for SAPT in psi4, default
symmetry c1  #important for SAPT in psi4, default
}

set PROPERTIES_ORIGIN ["COM"]
properties('MP2/aug-cc-pvtz', properties = ['dipole'])
--------------------------------------------------------------------------

    Molecular point group: c1
  Charge       = 0
  Multiplicity = 1
  Basis Set: AUG-CC-PVTZ
    Blend: AUG-CC-PVTZ
  Basis Set: (AUG-CC-PVTZ AUX)
    Blend: AUG-CC-PVTZ-JKFIT + DEF2-UNIVERSAL-JKFIT

    Orbital Energies [Eh]
    ---------------------

    Doubly Occupied:

       1A    -11.289681     2A    -11.254855     3A    -11.252688
       4A    -11.242693     5A    -11.241758     6A    -11.236730
       7A    -11.231844     8A    -11.231676     9A     -7.718154
      10A     -5.549889    11A     -5.540253    12A     -5.540220
      13A     -2.279557    14A     -2.274590    15A     -2.274579
      16A     -2.263861    17A     -2.263854    18A     -1.169304
      19A     -1.068049    20A     -1.046388    21A     -0.949250
      22A     -0.938477    23A     -0.896072    24A     -0.793590
      25A     -0.788391    26A     -0.685963    27A     -0.660702
      28A     -0.594038    29A     -0.589513    30A     -0.577309
      31A     -0.571536    32A     -0.559210    33A     -0.548947
      34A     -0.536868    35A     -0.499478    36A     -0.492259
      37A     -0.452966    38A     -0.392520    39A     -0.368030
      40A     -0.333119    41A     -0.318257

  @DF-RHF Final Energy:  -602.95285632268622

   => Energetics <=

    Nuclear Repulsion Energy =            524.5416495469667097
    One-Electron Energy =               -1971.9547687041085737
    Two-Electron Energy =                 844.4602628344556479
    Total Energy =                       -602.9528563226862161
  Basis Set: (AUG-CC-PVTZ AUX)
    Blend: AUG-CC-PVTZ-RI + DEF2-QZVPP-RI
    Molecular point group: c1

    Geometry (in Angstrom), charge = 0, multiplicity = 1:

       Center              X                  Y                   Z               Mass
    ------------   -----------------  -----------------  -----------------  -----------------
         I           -1.777348830877    -0.000631549353     0.001316366587   126.904471900000
         C            2.418165169123    -1.225055549353    -0.013370633413    12.000000000000
         C            2.418172169123     1.223792450647    -0.013843633413    12.000000000000
         C            3.100325169123    -0.000627549353    -0.020382633413    12.000000000000
         C            1.036798669123    -1.207148049353    -0.004307333413    12.000000000000
         C            1.015630169123     1.218020450647    -0.004604633413    12.000000000000
         C            0.331113169123    -0.000624549353     0.001270366587    12.000000000000
         C            3.173635169123    -2.530431549353     0.016074366587    12.000000000000
         C            3.173584169123     2.529213450647     0.015099366587    12.000000000000
         H            4.189991169123    -0.000634549353    -0.034048633413     1.007825032230
         H            0.466340169123    -2.157535549353    -0.005362633413     1.007825032230
         H            0.466340169123     2.156279450647    -0.006202633413     1.007825032230
         H            4.137909169123    -2.438719549353    -0.489666633413     1.007825032230
         H            2.607306169123    -3.326783549353    -0.472644633413     1.007825032230
         H            3.366620169123    -2.843701549353     1.047164366587     1.007825032230
         H            2.607919169123     3.324971450647    -0.475359633413     1.007825032230
         H            3.365107169123     2.843725450647     1.046083366587     1.007825032230
         H            4.138561169123     2.436918450647    -0.489183633413     1.007825032230

  Basis Set: AUG-CC-PVTZ
    Blend: AUG-CC-PVTZ
  Basis Set: (AUG-CC-PVTZ AUX)
    Blend: AUG-CC-PVTZ-JKFIT + DEF2-UNIVERSAL-JKFIT
	 Reference Energy          =    -602.9528563226862161 [Eh]
	 Singles Energy            =      -0.0000000000000000 [Eh]
	 Same-Spin Energy          =      -0.4258875443693600 [Eh]
	 Opposite-Spin Energy      =      -1.3001190164505165 [Eh]
	 Correlation Energy        =      -1.7260065608198767 [Eh]
	 Total Energy              =    -604.6788628835060990 [Eh]

	 ================> DF-SCS-MP2 Energies <==================
	-----------------------------------------------------------
	 SCS Same-Spin Scale       =       0.3333333333333333 [-]
	 SCS Opposite-Spin Scale   =       1.2000000000000000 [-]
	 SCS Same-Spin Energy      =      -0.1419625147897867 [Eh]
	 SCS Opposite-Spin Energy  =      -1.5601428197406197 [Eh]
	 SCS Correlation Energy    =      -1.7021053345304065 [Eh]
	 SCS Total Energy          =    -604.6549616572166315 [Eh]
	-----------------------------------------------------------

  Dipole Moment: [D]
     X:     2.1540      Y:     0.0125      Z:     0.0785     Total:     2.1555

*** Psi4 exiting successfully. Buy a developer a beer!
