                               Psi4 1.4a3.dev225

  ==> Input File <==

--------------------------------------------------------------------------
#psi4
#
memory 32 gb

molecule  {
0 1
  I       -2.0593870    -0.0000050     0.0008870
  C        2.1361270    -1.2244290    -0.0138000
  C        2.1361340     1.2244190    -0.0142730
  C        2.8182870    -0.0000010    -0.0208120
  C        0.7335970    -1.2186540    -0.0045600
  C        0.7335920     1.2186470    -0.0050340
  C        0.0490750     0.0000020     0.0008410
  C        2.8915970    -2.5298050     0.0156450
  C        2.8915460     2.5298400     0.0146700
  H        3.9079530    -0.0000080    -0.0344780
  H        0.1843020    -2.1569090    -0.0057920
  H        0.1843020     2.1569060    -0.0066320
  H        3.8558710    -2.4380930    -0.4900960
  H        2.3252680    -3.3261570    -0.4730740
  H        3.0845820    -2.8430750     1.0467350
  H        2.2741083     3.3984301    -0.5206785
  H        3.0830690     2.8443520     1.0456540
  H        3.8565230     2.4375450    -0.4896130
units angstrom
no_reorient  #important for SAPT in psi4, default
symmetry c1  #important for SAPT in psi4, default
}

set PROPERTIES_ORIGIN ["COM"]
properties('MP2/aug-cc-pvtz', properties = ['dipole'])
--------------------------------------------------------------------------

    Molecular point group: c1
  Charge       = 0
  Multiplicity = 1
  Basis Set: AUG-CC-PVTZ
    Blend: AUG-CC-PVTZ
  Basis Set: (AUG-CC-PVTZ AUX)
    Blend: AUG-CC-PVTZ-JKFIT + DEF2-UNIVERSAL-JKFIT

    Orbital Energies [Eh]
    ---------------------

    Doubly Occupied:

       1A    -11.290576     2A    -11.256571     3A    -11.256076
       4A    -11.243677     5A    -11.242979     6A    -11.242824
       7A    -11.237634     8A    -11.232307     9A     -7.717390
      10A     -5.549092    11A     -5.539513    12A     -5.539478
      13A     -2.278760    14A     -2.273813    15A     -2.273806
      16A     -2.263149    17A     -2.263142    18A     -1.167876
      19A     -1.066194    20A     -1.046796    21A     -0.946735
      22A     -0.936248    23A     -0.895507    24A     -0.792163
      25A     -0.787097    26A     -0.688682    27A     -0.659180
      28A     -0.593759    29A     -0.589319    30A     -0.578118
      31A     -0.572406    32A     -0.555553    33A     -0.548101
      34A     -0.530106    35A     -0.498589    36A     -0.493348
      37A     -0.450841    38A     -0.392418    39A     -0.367441
      40A     -0.331368    41A     -0.319024

  @DF-RHF Final Energy:  -602.94685221539783

   => Energetics <=

    Nuclear Repulsion Energy =            523.8585123029743045
    One-Electron Energy =               -1970.5954178402780599
    Two-Electron Energy =                 843.7900533219059298
    Total Energy =                       -602.9468522153978256
  Basis Set: (AUG-CC-PVTZ AUX)
    Blend: AUG-CC-PVTZ-RI + DEF2-QZVPP-RI
    Molecular point group: c1

    Geometry (in Angstrom), charge = 0, multiplicity = 1:

       Center              X                  Y                   Z               Mass
    ------------   -----------------  -----------------  -----------------  -----------------
         I           -1.776029119879    -0.000320360568     0.001502250328   126.904471900000
         C            2.419484880121    -1.224744360568    -0.013184749672    12.000000000000
         C            2.419491880121     1.224103639432    -0.013657749672    12.000000000000
         C            3.101644880121    -0.000316360568    -0.020196749672    12.000000000000
         C            1.016954880121    -1.218969360568    -0.003944749672    12.000000000000
         C            1.016949880121     1.218331639432    -0.004418749672    12.000000000000
         C            0.332432880121    -0.000313360568     0.001456250328    12.000000000000
         C            3.174954880121    -2.530120360568     0.016260250328    12.000000000000
         C            3.174903880121     2.529524639432     0.015285250328    12.000000000000
         H            4.191310880121    -0.000323360568    -0.033862749672     1.007825032230
         H            0.467659880121    -2.157224360568    -0.005176749672     1.007825032230
         H            0.467659880121     2.156590639432    -0.006016749672     1.007825032230
         H            4.139228880121    -2.438408360568    -0.489480749672     1.007825032230
         H            2.608625880121    -3.326472360568    -0.472458749672     1.007825032230
         H            3.367939880121    -2.843390360568     1.047350250328     1.007825032230
         H            2.557466180121     3.398114739432    -0.520063249672     1.007825032230
         H            3.366426880121     2.844036639432     1.046269250328     1.007825032230
         H            4.139880880121     2.437229639432    -0.488997749672     1.007825032230

  Basis Set: AUG-CC-PVTZ
    Blend: AUG-CC-PVTZ
  Basis Set: (AUG-CC-PVTZ AUX)
    Blend: AUG-CC-PVTZ-JKFIT + DEF2-UNIVERSAL-JKFIT
	 Reference Energy          =    -602.9468522153978256 [Eh]
	 Singles Energy            =      -0.0000000000000000 [Eh]
	 Same-Spin Energy          =      -0.4259012215458240 [Eh]
	 Opposite-Spin Energy      =      -1.3008504012569935 [Eh]
	 Correlation Energy        =      -1.7267516228028175 [Eh]
	 Total Energy              =    -604.6736038382006200 [Eh]

	 ================> DF-SCS-MP2 Energies <==================
	-----------------------------------------------------------
	 SCS Same-Spin Scale       =       0.3333333333333333 [-]
	 SCS Opposite-Spin Scale   =       1.2000000000000000 [-]
	 SCS Same-Spin Energy      =      -0.1419670738486080 [Eh]
	 SCS Opposite-Spin Energy  =      -1.5610204815083921 [Eh]
	 SCS Correlation Energy    =      -1.7029875553570002 [Eh]
	 SCS Total Energy          =    -604.6498397707548520 [Eh]
	-----------------------------------------------------------

  Dipole Moment: [D]
     X:     2.2046      Y:    -0.0595      Z:     0.0974     Total:     2.2075

*** Psi4 exiting successfully. Buy a developer a beer!
