                               Psi4 1.4a3.dev225

  ==> Input File <==

--------------------------------------------------------------------------
#psi4
#
memory 32 gb

molecule  {
0 1
  I       -2.0581023    -0.0735884     0.0012408
  C        2.1361270    -1.2244290    -0.0138000
  C        2.1361340     1.2244190    -0.0142730
  C        2.8182870    -0.0000010    -0.0208120
  C        0.7335970    -1.2186540    -0.0045600
  C        0.7335920     1.2186470    -0.0050340
  C        0.0490750     0.0000020     0.0008410
  C        2.8915970    -2.5298050     0.0156450
  C        2.8915460     2.5298400     0.0146700
  H        3.9079530    -0.0000080    -0.0344780
  H        0.1843020    -2.1569090    -0.0057920
  H        0.1843020     2.1569060    -0.0066320
  H        3.8558710    -2.4380930    -0.4900960
  H        2.3252680    -3.3261570    -0.4730740
  H        3.0845820    -2.8430750     1.0467350
  H        2.3258810     3.3255980    -0.4757890
  H        3.0830690     2.8443520     1.0456540
  H        3.8565230     2.4375450    -0.4896130
units angstrom
no_reorient  #important for SAPT in psi4, default
symmetry c1  #important for SAPT in psi4, default
}

set PROPERTIES_ORIGIN ["COM"]
properties('MP2/aug-cc-pvtz', properties = ['dipole'])
--------------------------------------------------------------------------

    Molecular point group: c1
  Charge       = 0
  Multiplicity = 1
  Basis Set: AUG-CC-PVTZ
    Blend: AUG-CC-PVTZ
  Basis Set: (AUG-CC-PVTZ AUX)
    Blend: AUG-CC-PVTZ-JKFIT + DEF2-UNIVERSAL-JKFIT

    Orbital Energies [Eh]
    ---------------------

    Doubly Occupied:

       1A    -11.290397     2A    -11.255931     3A    -11.255371
       4A    -11.243189     5A    -11.242027     6A    -11.236826
       7A    -11.232136     8A    -11.231858     9A     -7.717245
      10A     -5.548948    11A     -5.539368    12A     -5.539334
      13A     -2.278616    14A     -2.273669    15A     -2.273663
      16A     -2.263005    17A     -2.262998    18A     -1.167586
      19A     -1.066982    20A     -1.046899    21A     -0.949379
      22A     -0.938961    23A     -0.895231    24A     -0.793967
      25A     -0.786920    26A     -0.688481    27A     -0.659955
      28A     -0.594865    29A     -0.589542    30A     -0.577877
      31A     -0.573291    32A     -0.560143    33A     -0.549109
      34A     -0.537234    35A     -0.498719    36A     -0.494929
      37A     -0.450531    38A     -0.392183    39A     -0.367237
      40A     -0.331247    41A     -0.318673

  @DF-RHF Final Energy:  -602.95315713432171

   => Energetics <=

    Nuclear Repulsion Energy =            524.2937161006378801
    One-Electron Energy =               -1971.4647049726584100
    Two-Electron Energy =                 844.2178317376989298
    Total Energy =                       -602.9531571343217138
  Basis Set: (AUG-CC-PVTZ AUX)
    Blend: AUG-CC-PVTZ-RI + DEF2-QZVPP-RI
    Molecular point group: c1

    Geometry (in Angstrom), charge = 0, multiplicity = 1:

       Center              X                  Y                   Z               Mass
    ------------   -----------------  -----------------  -----------------  -----------------
         I           -1.775672158185    -0.033332713247     0.001467475680   126.904471900000
         C            2.418557141815    -1.184173313247    -0.013573324320    12.000000000000
         C            2.418564141815     1.264674686753    -0.014046324320    12.000000000000
         C            3.100717141815     0.040254686753    -0.020585324320    12.000000000000
         C            1.016027141815    -1.178398313247    -0.004333324320    12.000000000000
         C            1.016022141815     1.258902686753    -0.004807324320    12.000000000000
         C            0.331505141815     0.040257686753     0.001067675680    12.000000000000
         C            3.174027141815    -2.489549313247     0.015871675680    12.000000000000
         C            3.173976141815     2.570095686753     0.014896675680    12.000000000000
         H            4.190383141815     0.040247686753    -0.034251324320     1.007825032230
         H            0.466732141815    -2.116653313247    -0.005565324320     1.007825032230
         H            0.466732141815     2.197161686753    -0.006405324320     1.007825032230
         H            4.138301141815    -2.397837313247    -0.489869324320     1.007825032230
         H            2.607698141815    -3.285901313247    -0.472847324320     1.007825032230
         H            3.367012141815    -2.802819313247     1.046961675680     1.007825032230
         H            2.608311141815     3.365853686753    -0.475562324320     1.007825032230
         H            3.365499141815     2.884607686753     1.045880675680     1.007825032230
         H            4.138953141815     2.477800686753    -0.489386324320     1.007825032230

  Basis Set: AUG-CC-PVTZ
    Blend: AUG-CC-PVTZ
  Basis Set: (AUG-CC-PVTZ AUX)
    Blend: AUG-CC-PVTZ-JKFIT + DEF2-UNIVERSAL-JKFIT
	 Reference Energy          =    -602.9531571343217138 [Eh]
	 Singles Energy            =      -0.0000000000000000 [Eh]
	 Same-Spin Energy          =      -0.4258875724537593 [Eh]
	 Opposite-Spin Energy      =      -1.3001155876267207 [Eh]
	 Correlation Energy        =      -1.7260031600804799 [Eh]
	 Total Energy              =    -604.6791602944022088 [Eh]

	 ================> DF-SCS-MP2 Energies <==================
	-----------------------------------------------------------
	 SCS Same-Spin Scale       =       0.3333333333333333 [-]
	 SCS Opposite-Spin Scale   =       1.2000000000000000 [-]
	 SCS Same-Spin Energy      =      -0.1419625241512531 [Eh]
	 SCS Opposite-Spin Energy  =      -1.5601387051520648 [Eh]
	 SCS Correlation Energy    =      -1.7021012293033178 [Eh]
	 SCS Total Energy          =    -604.6552583636250802 [Eh]
	-----------------------------------------------------------

  Dipole Moment: [D]
     X:     2.2022      Y:     0.0165      Z:     0.0790     Total:     2.2036

*** Psi4 exiting successfully. Buy a developer a beer!
