                               Psi4 1.4a3.dev225

  ==> Input File <==

--------------------------------------------------------------------------
#psi4
#
memory 32 gb

molecule  {
0 1
  I       -2.0593870    -0.0000050     0.0008870
  C        2.1361270    -1.2244290    -0.0138000
  C        2.1361340     1.2244190    -0.0142730
  C        2.8182870    -0.0000010    -0.0208120
  C        0.7335970    -1.2186540    -0.0045600
  C        0.7335920     1.2186470    -0.0050340
  C        0.1802088    -0.0648747     0.0006983
  C        2.8915970    -2.5298050     0.0156450
  C        2.8915460     2.5298400     0.0146700
  H        3.9079530    -0.0000080    -0.0344780
  H        0.1843020    -2.1569090    -0.0057920
  H        0.1843020     2.1569060    -0.0066320
  H        3.8558710    -2.4380930    -0.4900960
  H        2.3252680    -3.3261570    -0.4730740
  H        3.0845820    -2.8430750     1.0467350
  H        2.3258810     3.3255980    -0.4757890
  H        3.0830690     2.8443520     1.0456540
  H        3.8565230     2.4375450    -0.4896130
units angstrom
no_reorient  #important for SAPT in psi4, default
symmetry c1  #important for SAPT in psi4, default
}

set PROPERTIES_ORIGIN ["COM"]
properties('MP2/aug-cc-pvtz', properties = ['dipole'])
--------------------------------------------------------------------------

    Molecular point group: c1
  Charge       = 0
  Multiplicity = 1
  Basis Set: AUG-CC-PVTZ
    Blend: AUG-CC-PVTZ
  Basis Set: (AUG-CC-PVTZ AUX)
    Blend: AUG-CC-PVTZ-JKFIT + DEF2-UNIVERSAL-JKFIT

    Orbital Energies [Eh]
    ---------------------

    Doubly Occupied:

       1A    -11.291699     2A    -11.262313     3A    -11.260293
       4A    -11.246855     5A    -11.238993     6A    -11.235744
       7A    -11.235004     8A    -11.234607     9A     -7.704193
      10A     -5.535343    11A     -5.526513    12A     -5.526423
      13A     -2.264293    14A     -2.260252    15A     -2.260165
      16A     -2.250329    17A     -2.250322    18A     -1.187405
      19A     -1.077381    20A     -1.053725    21A     -0.954281
      22A     -0.951137    23A     -0.877689    24A     -0.804252
      25A     -0.787565    26A     -0.699392    27A     -0.672604
      28A     -0.597600    29A     -0.594904    30A     -0.594396
      31A     -0.579887    32A     -0.564415    33A     -0.548549
      34A     -0.542111    35A     -0.513817    36A     -0.504755
      37A     -0.415140    38A     -0.384154    39A     -0.357694
      40A     -0.341850    41A     -0.324820

  @DF-RHF Final Energy:  -602.93591803771278

   => Energetics <=

    Nuclear Repulsion Energy =            524.7994812949438028
    One-Electron Energy =               -1972.4450732974441962
    Two-Electron Energy =                 844.7096739647877257
    Total Energy =                       -602.9359180377127814
  Basis Set: (AUG-CC-PVTZ AUX)
    Blend: AUG-CC-PVTZ-RI + DEF2-QZVPP-RI
    Molecular point group: c1

    Geometry (in Angstrom), charge = 0, multiplicity = 1:

       Center              X                  Y                   Z               Mass
    ------------   -----------------  -----------------  -----------------  -----------------
         I           -1.783037565373     0.003352116169     0.001314607776   126.904471900000
         C            2.412476434627    -1.221071883831    -0.013372392224    12.000000000000
         C            2.412483434627     1.227776116169    -0.013845392224    12.000000000000
         C            3.094636434627     0.003356116169    -0.020384392224    12.000000000000
         C            1.009946434627    -1.215296883831    -0.004132392224    12.000000000000
         C            1.009941434627     1.222004116169    -0.004606392224    12.000000000000
         C            0.456558234627    -0.061517583831     0.001125907776    12.000000000000
         C            3.167946434627    -2.526447883831     0.016072607776    12.000000000000
         C            3.167895434627     2.533197116169     0.015097607776    12.000000000000
         H            4.184302434627     0.003349116169    -0.034050392224     1.007825032230
         H            0.460651434627    -2.153551883831    -0.005364392224     1.007825032230
         H            0.460651434627     2.160263116169    -0.006204392224     1.007825032230
         H            4.132220434627    -2.434735883831    -0.489668392224     1.007825032230
         H            2.601617434627    -3.322799883831    -0.472646392224     1.007825032230
         H            3.360931434627    -2.839717883831     1.047162607776     1.007825032230
         H            2.602230434627     3.328955116169    -0.475361392224     1.007825032230
         H            3.359418434627     2.847709116169     1.046081607776     1.007825032230
         H            4.132872434627     2.440902116169    -0.489185392224     1.007825032230

  Basis Set: AUG-CC-PVTZ
    Blend: AUG-CC-PVTZ
  Basis Set: (AUG-CC-PVTZ AUX)
    Blend: AUG-CC-PVTZ-JKFIT + DEF2-UNIVERSAL-JKFIT
	 Reference Energy          =    -602.9359180377127814 [Eh]
	 Singles Energy            =      -0.0000000000000000 [Eh]
	 Same-Spin Energy          =      -0.4252288114674638 [Eh]
	 Opposite-Spin Energy      =      -1.2985239677476645 [Eh]
	 Correlation Energy        =      -1.7237527792151284 [Eh]
	 Total Energy              =    -604.6596708169279282 [Eh]

	 ================> DF-SCS-MP2 Energies <==================
	-----------------------------------------------------------
	 SCS Same-Spin Scale       =       0.3333333333333333 [-]
	 SCS Opposite-Spin Scale   =       1.2000000000000000 [-]
	 SCS Same-Spin Energy      =      -0.1417429371558213 [Eh]
	 SCS Opposite-Spin Energy  =      -1.5582287612971975 [Eh]
	 SCS Correlation Energy    =      -1.6999716984530187 [Eh]
	 SCS Total Energy          =    -604.6358897361658364 [Eh]
	-----------------------------------------------------------

  Dipole Moment: [D]
     X:     2.9083      Y:    -0.0159      Z:     0.0815     Total:     2.9095

*** Psi4 exiting successfully. Buy a developer a beer!
