                               Psi4 1.4a3.dev225

  ==> Input File <==

--------------------------------------------------------------------------
#psi4
#
memory 32 gb

molecule  {
0 1
  I       -2.0593870    -0.0000050     0.0008870
  C        2.1361270    -1.2244290    -0.0138000
  C        2.1361340     1.2244190    -0.0142730
  C        2.8182870    -0.0000010    -0.0208120
  C        0.7335970    -1.2186540    -0.0045600
  C        0.7335920     1.2186470    -0.0050340
  C        0.0490750     0.0000020     0.0008410
  C        2.9166372    -2.5730720     0.0166210
  C        2.8915460     2.5298400     0.0146700
  H        3.9079530    -0.0000080    -0.0344780
  H        0.1843020    -2.1569090    -0.0057920
  H        0.1843020     2.1569060    -0.0066320
  H        3.8558710    -2.4380930    -0.4900960
  H        2.3252680    -3.3261570    -0.4730740
  H        3.0845820    -2.8430750     1.0467350
  H        2.3258810     3.3255980    -0.4757890
  H        3.0830690     2.8443520     1.0456540
  H        3.8565230     2.4375450    -0.4896130
units angstrom
no_reorient  #important for SAPT in psi4, default
symmetry c1  #important for SAPT in psi4, default
}

set PROPERTIES_ORIGIN ["COM"]
properties('MP2/aug-cc-pvtz', properties = ['dipole'])
--------------------------------------------------------------------------

    Molecular point group: c1
  Charge       = 0
  Multiplicity = 1
  Basis Set: AUG-CC-PVTZ
    Blend: AUG-CC-PVTZ
  Basis Set: (AUG-CC-PVTZ AUX)
    Blend: AUG-CC-PVTZ-JKFIT + DEF2-UNIVERSAL-JKFIT

    Orbital Energies [Eh]
    ---------------------

    Doubly Occupied:

       1A    -11.290251     2A    -11.257546     3A    -11.255509
       4A    -11.242560     5A    -11.242459     6A    -11.236790
       7A    -11.231888     8A    -11.230926     9A     -7.717118
      10A     -5.548815    11A     -5.539246    12A     -5.539209
      13A     -2.278482    14A     -2.273537    15A     -2.273532
      16A     -2.262884    17A     -2.262877    18A     -1.166181
      19A     -1.063492    20A     -1.045030    21A     -0.950032
      22A     -0.939511    23A     -0.894973    24A     -0.793891
      25A     -0.786420    26A     -0.688267    27A     -0.659003
      28A     -0.592944    29A     -0.587825    30A     -0.580155
      31A     -0.570136    32A     -0.565305    33A     -0.549784
      34A     -0.540501    35A     -0.500308    36A     -0.489547
      37A     -0.449562    38A     -0.392433    39A     -0.367176
      40A     -0.331808    41A     -0.318639

  @DF-RHF Final Energy:  -602.95171363874488

   => Energetics <=

    Nuclear Repulsion Energy =            523.3790027959423696
    One-Electron Energy =               -1969.6483283342590767
    Two-Electron Energy =                 843.3176118995718298
    Total Energy =                       -602.9517136387448772
  Basis Set: (AUG-CC-PVTZ AUX)
    Blend: AUG-CC-PVTZ-RI + DEF2-QZVPP-RI
    Molecular point group: c1

    Geometry (in Angstrom), charge = 0, multiplicity = 1:

       Center              X                  Y                   Z               Mass
    ------------   -----------------  -----------------  -----------------  -----------------
         I           -1.777549371541     0.002234252111     0.001256737721   126.904471900000
         C            2.417964628459    -1.222189747889    -0.013430262279    12.000000000000
         C            2.417971628459     1.226658252111    -0.013903262279    12.000000000000
         C            3.100124628459     0.002238252111    -0.020442262279    12.000000000000
         C            1.015434628459    -1.216414747889    -0.004190262279    12.000000000000
         C            1.015429628459     1.220886252111    -0.004664262279    12.000000000000
         C            0.330912628459     0.002241252111     0.001210737721    12.000000000000
         C            3.198474828459    -2.570832747889     0.016990737721    12.000000000000
         C            3.173383628459     2.532079252111     0.015039737721    12.000000000000
         H            4.189790628459     0.002231252111    -0.034108262279     1.007825032230
         H            0.466139628459    -2.154669747889    -0.005422262279     1.007825032230
         H            0.466139628459     2.159145252111    -0.006262262279     1.007825032230
         H            4.137708628459    -2.435853747889    -0.489726262279     1.007825032230
         H            2.607105628459    -3.323917747889    -0.472704262279     1.007825032230
         H            3.366419628459    -2.840835747889     1.047104737721     1.007825032230
         H            2.607718628459     3.327837252111    -0.475419262279     1.007825032230
         H            3.364906628459     2.846591252111     1.046023737721     1.007825032230
         H            4.138360628459     2.439784252111    -0.489243262279     1.007825032230

  Basis Set: AUG-CC-PVTZ
    Blend: AUG-CC-PVTZ
  Basis Set: (AUG-CC-PVTZ AUX)
    Blend: AUG-CC-PVTZ-JKFIT + DEF2-UNIVERSAL-JKFIT
	 Reference Energy          =    -602.9517136387448772 [Eh]
	 Singles Energy            =      -0.0000000000000000 [Eh]
	 Same-Spin Energy          =      -0.4255582762871724 [Eh]
	 Opposite-Spin Energy      =      -1.2998805341270414 [Eh]
	 Correlation Energy        =      -1.7254388104142138 [Eh]
	 Total Energy              =    -604.6771524491590526 [Eh]

	 ================> DF-SCS-MP2 Energies <==================
	-----------------------------------------------------------
	 SCS Same-Spin Scale       =       0.3333333333333333 [-]
	 SCS Opposite-Spin Scale   =       1.2000000000000000 [-]
	 SCS Same-Spin Energy      =      -0.1418527587623908 [Eh]
	 SCS Opposite-Spin Energy  =      -1.5598566409524497 [Eh]
	 SCS Correlation Energy    =      -1.7017093997148405 [Eh]
	 SCS Total Energy          =    -604.6534230384596640 [Eh]
	-----------------------------------------------------------

  Dipole Moment: [D]
     X:     2.2000      Y:     0.0061      Z:     0.0772     Total:     2.2014

*** Psi4 exiting successfully. Buy a developer a beer!
