                               Psi4 1.4a3.dev225

  ==> Input File <==

--------------------------------------------------------------------------
#psi4
#
memory 32 gb

molecule  {
0 1
  I       -2.0590660     0.0367923     0.0007100
  C        2.1361270    -1.2244290    -0.0138000
  C        2.1361340     1.2244190    -0.0142730
  C        2.8182870    -0.0000010    -0.0208120
  C        0.7335970    -1.2186540    -0.0045600
  C        0.7335920     1.2186470    -0.0050340
  C        0.0490750     0.0000020     0.0008410
  C        2.8915970    -2.5298050     0.0156450
  C        2.8915460     2.5298400     0.0146700
  H        3.9079530    -0.0000080    -0.0344780
  H        0.1843020    -2.1569090    -0.0057920
  H        0.1843020     2.1569060    -0.0066320
  H        3.8558710    -2.4380930    -0.4900960
  H        2.3252680    -3.3261570    -0.4730740
  H        3.0845820    -2.8430750     1.0467350
  H        2.3258810     3.3255980    -0.4757890
  H        3.0830690     2.8443520     1.0456540
  H        3.8565230     2.4375450    -0.4896130
units angstrom
no_reorient  #important for SAPT in psi4, default
symmetry c1  #important for SAPT in psi4, default
}

set PROPERTIES_ORIGIN ["COM"]
properties('MP2/aug-cc-pvtz', properties = ['dipole'])
--------------------------------------------------------------------------

    Molecular point group: c1
  Charge       = 0
  Multiplicity = 1
  Basis Set: AUG-CC-PVTZ
    Blend: AUG-CC-PVTZ
  Basis Set: (AUG-CC-PVTZ AUX)
    Blend: AUG-CC-PVTZ-JKFIT + DEF2-UNIVERSAL-JKFIT

    Orbital Energies [Eh]
    ---------------------

    Doubly Occupied:

       1A    -11.290402     2A    -11.255794     3A    -11.255514
       4A    -11.242900     5A    -11.242319     6A    -11.236828
       7A    -11.232067     8A    -11.231928     9A     -7.717247
      10A     -5.548947    11A     -5.539373    12A     -5.539337
      13A     -2.278615    14A     -2.273669    15A     -2.273663
      16A     -2.263010    17A     -2.263003    18A     -1.167580
      19A     -1.066976    20A     -1.046881    21A     -0.949368
      22A     -0.938937    23A     -0.895265    24A     -0.793948
      25A     -0.786940    26A     -0.688476    27A     -0.659952
      28A     -0.594860    29A     -0.589540    30A     -0.577876
      31A     -0.573284    32A     -0.560140    33A     -0.549115
      34A     -0.537236    35A     -0.498711    36A     -0.494927
      37A     -0.450555    38A     -0.392175    39A     -0.367292
      40A     -0.331239    41A     -0.318692

  @DF-RHF Final Energy:  -602.95333040439868

   => Energetics <=

    Nuclear Repulsion Energy =            524.2697184998555713
    One-Electron Energy =               -1971.4169330801660180
    Two-Electron Energy =                 844.1938841759117622
    Total Energy =                       -602.9533304043986845
  Basis Set: (AUG-CC-PVTZ AUX)
    Blend: AUG-CC-PVTZ-RI + DEF2-QZVPP-RI
    Molecular point group: c1

    Geometry (in Angstrom), charge = 0, multiplicity = 1:

       Center              X                  Y                   Z               Mass
    ------------   -----------------  -----------------  -----------------  -----------------
         I           -1.776108655280     0.016662985569     0.001227055780   126.904471900000
         C            2.419084344720    -1.244558314431    -0.013282944220    12.000000000000
         C            2.419091344720     1.204289685569    -0.013755944220    12.000000000000
         C            3.101244344720    -0.020130314431    -0.020294944220    12.000000000000
         C            1.016554344720    -1.238783314431    -0.004042944220    12.000000000000
         C            1.016549344720     1.198517685569    -0.004516944220    12.000000000000
         C            0.332032344720    -0.020127314431     0.001358055780    12.000000000000
         C            3.174554344720    -2.549934314431     0.016162055780    12.000000000000
         C            3.174503344720     2.509710685569     0.015187055780    12.000000000000
         H            4.190910344720    -0.020137314431    -0.033960944220     1.007825032230
         H            0.467259344720    -2.177038314431    -0.005274944220     1.007825032230
         H            0.467259344720     2.136776685569    -0.006114944220     1.007825032230
         H            4.138828344720    -2.458222314431    -0.489578944220     1.007825032230
         H            2.608225344720    -3.346286314431    -0.472556944220     1.007825032230
         H            3.367539344720    -2.863204314431     1.047252055780     1.007825032230
         H            2.608838344720     3.305468685569    -0.475271944220     1.007825032230
         H            3.366026344720     2.824222685569     1.046171055780     1.007825032230
         H            4.139480344720     2.417415685569    -0.489095944220     1.007825032230

  Basis Set: AUG-CC-PVTZ
    Blend: AUG-CC-PVTZ
  Basis Set: (AUG-CC-PVTZ AUX)
    Blend: AUG-CC-PVTZ-JKFIT + DEF2-UNIVERSAL-JKFIT
	 Reference Energy          =    -602.9533304043986845 [Eh]
	 Singles Energy            =      -0.0000000000000000 [Eh]
	 Same-Spin Energy          =      -0.4258759709308190 [Eh]
	 Opposite-Spin Energy      =      -1.3000936521001947 [Eh]
	 Correlation Energy        =      -1.7259696230310135 [Eh]
	 Total Energy              =    -604.6793000274296901 [Eh]

	 ================> DF-SCS-MP2 Energies <==================
	-----------------------------------------------------------
	 SCS Same-Spin Scale       =       0.3333333333333333 [-]
	 SCS Opposite-Spin Scale   =       1.2000000000000000 [-]
	 SCS Same-Spin Energy      =      -0.1419586569769397 [Eh]
	 SCS Opposite-Spin Energy  =      -1.5601123825202337 [Eh]
	 SCS Correlation Energy    =      -1.7020710394971732 [Eh]
	 SCS Total Energy          =    -604.6554014438958120 [Eh]
	-----------------------------------------------------------

  Dipole Moment: [D]
     X:     2.2014      Y:    -0.0081      Z:     0.0790     Total:     2.2029

*** Psi4 exiting successfully. Buy a developer a beer!
