                               Psi4 1.4a3.dev225

  ==> Input File <==

--------------------------------------------------------------------------
#psi4
#
memory 32 gb

molecule  {
0 1
  I       -2.0593870    -0.0000050     0.0008870
  C        2.0938127    -1.1998748    -0.0133845
  C        2.1361340     1.2244190    -0.0142730
  C        2.8182870    -0.0000010    -0.0208120
  C        0.7335970    -1.2186540    -0.0045600
  C        0.7335920     1.2186470    -0.0050340
  C        0.0490750     0.0000020     0.0008410
  C        2.8915970    -2.5298050     0.0156450
  C        2.8915460     2.5298400     0.0146700
  H        3.9079530    -0.0000080    -0.0344780
  H        0.1843020    -2.1569090    -0.0057920
  H        0.1843020     2.1569060    -0.0066320
  H        3.8558710    -2.4380930    -0.4900960
  H        2.3252680    -3.3261570    -0.4730740
  H        3.0845820    -2.8430750     1.0467350
  H        2.3258810     3.3255980    -0.4757890
  H        3.0830690     2.8443520     1.0456540
  H        3.8565230     2.4375450    -0.4896130
units angstrom
no_reorient  #important for SAPT in psi4, default
symmetry c1  #important for SAPT in psi4, default
}

set PROPERTIES_ORIGIN ["COM"]
properties('MP2/aug-cc-pvtz', properties = ['dipole'])
--------------------------------------------------------------------------

    Molecular point group: c1
  Charge       = 0
  Multiplicity = 1
  Basis Set: AUG-CC-PVTZ
    Blend: AUG-CC-PVTZ
  Basis Set: (AUG-CC-PVTZ AUX)
    Blend: AUG-CC-PVTZ-JKFIT + DEF2-UNIVERSAL-JKFIT

    Orbital Energies [Eh]
    ---------------------

    Doubly Occupied:

       1A    -11.291001     2A    -11.255552     3A    -11.252490
       4A    -11.242850     5A    -11.238455     6A    -11.236872
       7A    -11.232421     8A    -11.231973     9A     -7.717449
      10A     -5.549127    11A     -5.539579    12A     -5.539559
      13A     -2.278794    14A     -2.273868    15A     -2.273846
      16A     -2.263238    17A     -2.263231    18A     -1.171314
      19A     -1.067081    20A     -1.044636    21A     -0.947697
      22A     -0.939235    23A     -0.896968    24A     -0.792578
      25A     -0.789489    26A     -0.691005    27A     -0.660995
      28A     -0.589878    29A     -0.587521    30A     -0.577135
      31A     -0.573203    32A     -0.559838    33A     -0.553413
      34A     -0.537677    35A     -0.501673    36A     -0.485930
      37A     -0.451810    38A     -0.392594    39A     -0.367567
      40A     -0.336833    41A     -0.318034

  @DF-RHF Final Energy:  -602.95158995767349

   => Energetics <=

    Nuclear Repulsion Energy =            524.8427982688177735
    One-Electron Energy =               -1972.5599521214448941
    Two-Electron Energy =                 844.7655638949537433
    Total Energy =                       -602.9515899576734910
  Basis Set: (AUG-CC-PVTZ AUX)
    Blend: AUG-CC-PVTZ-RI + DEF2-QZVPP-RI
    Molecular point group: c1

    Geometry (in Angstrom), charge = 0, multiplicity = 1:

       Center              X                  Y                   Z               Mass
    ------------   -----------------  -----------------  -----------------  -----------------
         I           -1.774065141093    -0.001274120605     0.001285732237   126.904471900000
         C            2.379134558907    -1.201143920605    -0.012985767763    12.000000000000
         C            2.421455858907     1.223149879395    -0.013874267763    12.000000000000
         C            3.103608858907    -0.001270120605    -0.020413267763    12.000000000000
         C            1.018918858907    -1.219923120605    -0.004161267763    12.000000000000
         C            1.018913858907     1.217377879395    -0.004635267763    12.000000000000
         C            0.334396858907    -0.001267120605     0.001239732237    12.000000000000
         C            3.176918858907    -2.531074120605     0.016043732237    12.000000000000
         C            3.176867858907     2.528570879395     0.015068732237    12.000000000000
         H            4.193274858907    -0.001277120605    -0.034079267763     1.007825032230
         H            0.469623858907    -2.158178120605    -0.005393267763     1.007825032230
         H            0.469623858907     2.155636879395    -0.006233267763     1.007825032230
         H            4.141192858907    -2.439362120605    -0.489697267763     1.007825032230
         H            2.610589858907    -3.327426120605    -0.472675267763     1.007825032230
         H            3.369903858907    -2.844344120605     1.047133732237     1.007825032230
         H            2.611202858907     3.324328879395    -0.475390267763     1.007825032230
         H            3.368390858907     2.843082879395     1.046052732237     1.007825032230
         H            4.141844858907     2.436275879395    -0.489214267763     1.007825032230

  Basis Set: AUG-CC-PVTZ
    Blend: AUG-CC-PVTZ
  Basis Set: (AUG-CC-PVTZ AUX)
    Blend: AUG-CC-PVTZ-JKFIT + DEF2-UNIVERSAL-JKFIT
	 Reference Energy          =    -602.9515899576734910 [Eh]
	 Singles Energy            =      -0.0000000000000000 [Eh]
	 Same-Spin Energy          =      -0.4255741887728345 [Eh]
	 Opposite-Spin Energy      =      -1.2996904168924679 [Eh]
	 Correlation Energy        =      -1.7252646056653025 [Eh]
	 Total Energy              =    -604.6768545633387930 [Eh]

	 ================> DF-SCS-MP2 Energies <==================
	-----------------------------------------------------------
	 SCS Same-Spin Scale       =       0.3333333333333333 [-]
	 SCS Opposite-Spin Scale   =       1.2000000000000000 [-]
	 SCS Same-Spin Energy      =      -0.1418580629242782 [Eh]
	 SCS Opposite-Spin Energy  =      -1.5596285002709613 [Eh]
	 SCS Correlation Energy    =      -1.7014865631952394 [Eh]
	 SCS Total Energy          =    -604.6530765208686944 [Eh]
	-----------------------------------------------------------

  Dipole Moment: [D]
     X:     2.1715      Y:     0.0662      Z:     0.0750     Total:     2.1738

*** Psi4 exiting successfully. Buy a developer a beer!
