                               Psi4 1.3.2 release

  ==> Input File <==

--------------------------------------------------------------------------
#psi4
#
memory 32 gb

molecule  {
0 1
  O       -0.4112057    -0.9491072     0.0000192
  N       -0.3944950     1.1585740    -0.0000440
  C        0.9282580    -0.6566220     0.0000340
  C        0.9194130     0.7048960    -0.0000320
  C       -1.1010560     0.0631240     0.0000150
  H        1.6883170    -1.4215870     0.0000640
  H        1.7555780     1.3888440    -0.0000640
  H       -2.1757640    -0.0455290     0.0000210
units angstrom
no_reorient  #important for SAPT in psi4, default
symmetry c1  #important for SAPT in psi4, default
}

set PROPERTIES_ORIGIN ["COM"]
properties('MP2/aug-cc-pvtz', properties = ['dipole'])
--------------------------------------------------------------------------

    Molecular point group: c1
  Charge       = 0
  Multiplicity = 1
  Basis Set: AUG-CC-PVTZ
    Blend: AUG-CC-PVTZ
  Basis Set: (AUG-CC-PVTZ AUX)
    Blend: AUG-CC-PVTZ-JKFIT

    Orbital Energies [Eh]
    ---------------------

    Doubly Occupied:

       1A    -20.648652     2A    -15.553855     3A    -11.330169
       4A    -11.297016     5A    -11.269075     6A     -1.546705
       7A     -1.221558     8A     -1.059017     9A     -0.860786
      10A     -0.814120    11A     -0.771877    12A     -0.693407
      13A     -0.655288    14A     -0.596927    15A     -0.565013
      16A     -0.453987    17A     -0.444471    18A     -0.351189

  @DF-RHF Final Energy:  -244.70889509895511

   => Energetics <=

    Nuclear Repulsion Energy =            166.1548316564117442
    One-Electron Energy =                -661.4612312166655101
    Two-Electron Energy =                 250.5975044612986835
    Total Energy =                       -244.7088950989551108
  Basis Set: (AUG-CC-PVTZ AUX)
    Blend: AUG-CC-PVTZ-RI
    Molecular point group: c1

    Geometry (in Angstrom), charge = 0, multiplicity = 1:

       Center              X                  Y                   Z               Mass
    ------------   -----------------  -----------------  -----------------  -----------------
         O           -0.384200932562    -0.982438865657     0.000020415109    15.994914619570
         N           -0.367490232562     1.125242334343    -0.000042784891    14.003074004430
         C            0.955262767438    -0.689953665657     0.000035215109    12.000000000000
         C            0.946417767438     0.671564334343    -0.000030784891    12.000000000000
         C           -1.074051232562     0.029792334343     0.000016215109    12.000000000000
         H            1.715321767438    -1.454918665657     0.000065215109     1.007825032230
         H            1.782582767438     1.355512334343    -0.000062784891     1.007825032230
         H           -2.148759232562    -0.078860665657     0.000022215109     1.007825032230

  Basis Set: AUG-CC-PVTZ
    Blend: AUG-CC-PVTZ
  Basis Set: (AUG-CC-PVTZ AUX)
    Blend: AUG-CC-PVTZ-JKFIT
	 Reference Energy          =    -244.7088950989551108 [Eh]
	 Singles Energy            =      -0.0000000000000000 [Eh]
	 Same-Spin Energy          =      -0.2493895062609033 [Eh]
	 Opposite-Spin Energy      =      -0.7486052833161529 [Eh]
	 Correlation Energy        =      -0.9979947895770562 [Eh]
	 Total Energy              =    -245.7068898885321744 [Eh]

	 ================> DF-SCS-MP2 Energies <==================
	-----------------------------------------------------------
	 SCS Same-Spin Scale       =       0.3333333333333333 [-]
	 SCS Opposite-Spin Scale   =       1.2000000000000000 [-]
	 SCS Same-Spin Energy      =      -0.0831298354203011 [Eh]
	 SCS Opposite-Spin Energy  =      -0.8983263399793835 [Eh]
	 SCS Correlation Energy    =      -0.9814561753996847 [Eh]
	 SCS Total Energy          =    -245.6903512743547822 [Eh]
	-----------------------------------------------------------

  Dipole Moment: [D]
     X:     0.8251      Y:    -1.9356      Z:     0.0001     Total:     2.1041

*** Psi4 exiting successfully. Buy a developer a beer!
