                               Psi4 1.3.2 release

  ==> Input File <==

--------------------------------------------------------------------------
#psi4
#
memory 32 gb

molecule  {
0 1
  O       -0.3732950    -1.0875170     0.0000230
  N       -0.3944950     1.1585740    -0.0000440
  C        0.9205396    -0.6339724     0.0000339
  C        0.9194130     0.7048960    -0.0000320
  C       -1.1010560     0.0631240     0.0000150
  H        1.6883170    -1.4215870     0.0000640
  H        1.7555780     1.3888440    -0.0000640
  H       -2.1757640    -0.0455290     0.0000210
units angstrom
no_reorient  #important for SAPT in psi4, default
symmetry c1  #important for SAPT in psi4, default
}

set PROPERTIES_ORIGIN ["COM"]
properties('MP2/aug-cc-pvtz', properties = ['dipole'])
--------------------------------------------------------------------------

    Molecular point group: c1
  Charge       = 0
  Multiplicity = 1
  Basis Set: AUG-CC-PVTZ
    Blend: AUG-CC-PVTZ
  Basis Set: (AUG-CC-PVTZ AUX)
    Blend: AUG-CC-PVTZ-JKFIT

    Orbital Energies [Eh]
    ---------------------

    Doubly Occupied:

       1A    -20.647242     2A    -15.574782     3A    -11.342528
       4A    -11.299928     5A    -11.266000     6A     -1.489455
       7A     -1.236853     8A     -1.037648     9A     -0.844644
      10A     -0.822593    11A     -0.753310    12A     -0.661701
      13A     -0.622245    14A     -0.597638    15A     -0.587158
      16A     -0.468537    17A     -0.458940    18A     -0.351143

  @DF-RHF Final Energy:  -244.71989712799518

   => Energetics <=

    Nuclear Repulsion Energy =            163.0208423890283882
    One-Electron Energy =                -655.3567879303906238
    Two-Electron Energy =                 247.6160484133670252
    Total Energy =                       -244.7198971279951820
  Basis Set: (AUG-CC-PVTZ AUX)
    Blend: AUG-CC-PVTZ-RI
    Molecular point group: c1

    Geometry (in Angstrom), charge = 0, multiplicity = 1:

       Center              X                  Y                   Z               Mass
    ------------   -----------------  -----------------  -----------------  -----------------
         O           -0.353733679600    -1.092711653938     0.000023351889    15.994914619570
         N           -0.374933679600     1.153379346062    -0.000043648111    14.003074004430
         C            0.940100920400    -0.639167053938     0.000034251889    12.000000000000
         C            0.938974320400     0.699701346062    -0.000031648111    12.000000000000
         C           -1.081494679600     0.057929346062     0.000015351889    12.000000000000
         H            1.707878320400    -1.426781653938     0.000064351889     1.007825032230
         H            1.775139320400     1.383649346062    -0.000063648111     1.007825032230
         H           -2.156202679600    -0.050723653938     0.000021351889     1.007825032230

  Basis Set: AUG-CC-PVTZ
    Blend: AUG-CC-PVTZ
  Basis Set: (AUG-CC-PVTZ AUX)
    Blend: AUG-CC-PVTZ-JKFIT
	 Reference Energy          =    -244.7198971279951820 [Eh]
	 Singles Energy            =      -0.0000000000000000 [Eh]
	 Same-Spin Energy          =      -0.2503239440514746 [Eh]
	 Opposite-Spin Energy      =      -0.7538134257485409 [Eh]
	 Correlation Energy        =      -1.0041373698000156 [Eh]
	 Total Energy              =    -245.7240344977952020 [Eh]

	 ================> DF-SCS-MP2 Energies <==================
	-----------------------------------------------------------
	 SCS Same-Spin Scale       =       0.3333333333333333 [-]
	 SCS Opposite-Spin Scale   =       1.2000000000000000 [-]
	 SCS Same-Spin Energy      =      -0.0834413146838249 [Eh]
	 SCS Opposite-Spin Energy  =      -0.9045761108982491 [Eh]
	 SCS Correlation Energy    =      -0.9880174255820739 [Eh]
	 SCS Total Energy          =    -245.7079145535772682 [Eh]
	-----------------------------------------------------------

  Dipole Moment: [D]
     X:     0.7875      Y:    -1.3963      Z:     0.0001     Total:     1.6030

*** Psi4 exiting successfully. Buy a developer a beer!
