                               Psi4 1.4a3.dev225

  ==> Input File <==

--------------------------------------------------------------------------
#psi4
#
memory 32 gb

molecule  {
0 1
  O       -0.3732950    -1.0875170     0.0000230
  N       -0.3944950     1.1585740    -0.0000440
  C        0.9282580    -0.6566220     0.0000340
  C        0.9194130     0.7048960    -0.0000320
  C       -1.0902154     0.0799312     0.0000141
  H        1.6883170    -1.4215870     0.0000640
  H        1.7555780     1.3888440    -0.0000640
  H       -2.1757640    -0.0455290     0.0000210
units angstrom
no_reorient  #important for SAPT in psi4, default
symmetry c1  #important for SAPT in psi4, default
}

set PROPERTIES_ORIGIN ["COM"]
properties('MP2/aug-cc-pvtz', properties = ['dipole'])
--------------------------------------------------------------------------

    Molecular point group: c1
  Charge       = 0
  Multiplicity = 1
  Basis Set: AUG-CC-PVTZ
    Blend: AUG-CC-PVTZ
  Basis Set: (AUG-CC-PVTZ AUX)
    Blend: AUG-CC-PVTZ-JKFIT

    Orbital Energies [Eh]
    ---------------------

    Doubly Occupied:

       1A    -20.645364     2A    -15.574780     3A    -11.341494
       4A    -11.301702     5A    -11.269330     6A     -1.485827
       7A     -1.243565     8A     -1.034010     9A     -0.843046
      10A     -0.823268    11A     -0.752406    12A     -0.659821
      13A     -0.626962    14A     -0.598456    15A     -0.582011
      16A     -0.470938    17A     -0.462122    18A     -0.348637

  @DF-RHF Final Energy:  -244.72029789396760

   => Energetics <=

    Nuclear Repulsion Energy =            162.8690132509367743
    One-Electron Energy =                -655.0511417101687357
    Two-Electron Energy =                 247.4618305652643926
    Total Energy =                       -244.7202978939675972
  Basis Set: (AUG-CC-PVTZ AUX)
    Blend: AUG-CC-PVTZ-RI
    Molecular point group: c1

    Geometry (in Angstrom), charge = 0, multiplicity = 1:

       Center              X                  Y                   Z               Mass
    ------------   -----------------  -----------------  -----------------  -----------------
         O           -0.356960328065    -1.091695900342     0.000023490976    15.994914619570
         N           -0.378160328065     1.154395099658    -0.000043509024    14.003074004430
         C            0.944592671935    -0.660800900342     0.000034490976    12.000000000000
         C            0.935747671935     0.700717099658    -0.000031509024    12.000000000000
         C           -1.073880728065     0.075752299658     0.000014590976    12.000000000000
         H            1.704651671935    -1.425765900342     0.000064490976     1.007825032230
         H            1.771912671935     1.384665099658    -0.000063509024     1.007825032230
         H           -2.159429328065    -0.049707900342     0.000021490976     1.007825032230

  Basis Set: AUG-CC-PVTZ
    Blend: AUG-CC-PVTZ
  Basis Set: (AUG-CC-PVTZ AUX)
    Blend: AUG-CC-PVTZ-JKFIT
	 Reference Energy          =    -244.7202978939675972 [Eh]
	 Singles Energy            =      -0.0000000000000000 [Eh]
	 Same-Spin Energy          =      -0.2502626350598621 [Eh]
	 Opposite-Spin Energy      =      -0.7538088580012863 [Eh]
	 Correlation Energy        =      -1.0040714930611485 [Eh]
	 Total Energy              =    -245.7243693870287586 [Eh]

	 ================> DF-SCS-MP2 Energies <==================
	-----------------------------------------------------------
	 SCS Same-Spin Scale       =       0.3333333333333333 [-]
	 SCS Opposite-Spin Scale   =       1.2000000000000000 [-]
	 SCS Same-Spin Energy      =      -0.0834208783532874 [Eh]
	 SCS Opposite-Spin Energy  =      -0.9045706296015434 [Eh]
	 SCS Correlation Energy    =      -0.9879915079548308 [Eh]
	 SCS Total Energy          =    -245.7082894019224284 [Eh]
	-----------------------------------------------------------

  Dipole Moment: [D]
     X:     0.7823      Y:    -1.3596      Z:     0.0001     Total:     1.5686

*** Psi4 exiting successfully. Buy a developer a beer!
