                               Psi4 1.3.2 release

  ==> Input File <==

--------------------------------------------------------------------------
#psi4
#
memory 32 gb

molecule  {
0 1
  O       -0.3732950    -1.0875170     0.0000230
  N       -0.3944950     1.1585740    -0.0000440
  C        1.1181236    -0.5937647     0.0000356
  C        0.9194130     0.7048960    -0.0000320
  C       -1.1010560     0.0631240     0.0000150
  H        1.6883170    -1.4215870     0.0000640
  H        1.7555780     1.3888440    -0.0000640
  H       -2.1757640    -0.0455290     0.0000210
units angstrom
no_reorient  #important for SAPT in psi4, default
symmetry c1  #important for SAPT in psi4, default
}

set PROPERTIES_ORIGIN ["COM"]
properties('MP2/aug-cc-pvtz', properties = ['dipole'])
--------------------------------------------------------------------------

    Molecular point group: c1
  Charge       = 0
  Multiplicity = 1
  Basis Set: AUG-CC-PVTZ
    Blend: AUG-CC-PVTZ
  Basis Set: (AUG-CC-PVTZ AUX)
    Blend: AUG-CC-PVTZ-JKFIT

    Orbital Energies [Eh]
    ---------------------

    Doubly Occupied:

       1A    -20.618832     2A    -15.570681     3A    -11.349989
       4A    -11.302115     5A    -11.281304     6A     -1.429164
       7A     -1.225647     8A     -1.048361     9A     -0.839560
      10A     -0.824899    11A     -0.741808    12A     -0.644159
      13A     -0.626062    14A     -0.600214    15A     -0.542248
      16A     -0.466991    17A     -0.452665    18A     -0.368797

  @DF-RHF Final Energy:  -244.68815492543794

   => Energetics <=

    Nuclear Repulsion Energy =            160.1499378374250284
    One-Electron Energy =                -649.8091942109915635
    Two-Electron Energy =                 244.9711014481286213
    Total Energy =                       -244.6881549254379422
  Basis Set: (AUG-CC-PVTZ AUX)
    Blend: AUG-CC-PVTZ-RI
    Molecular point group: c1

    Geometry (in Angstrom), charge = 0, multiplicity = 1:

       Center              X                  Y                   Z               Mass
    ------------   -----------------  -----------------  -----------------  -----------------
         O           -0.388085428638    -1.099702122903     0.000023056329    15.994914619570
         N           -0.409285428638     1.146388877097    -0.000043943671    14.003074004430
         C            1.103333171362    -0.605949822903     0.000035656329    12.000000000000
         C            0.904622571362     0.692710877097    -0.000031943671    12.000000000000
         C           -1.115846428638     0.050938877097     0.000015056329    12.000000000000
         H            1.673526571362    -1.433772122903     0.000064056329     1.007825032230
         H            1.740787571362     1.376658877097    -0.000063943671     1.007825032230
         H           -2.190554428638    -0.057714122903     0.000021056329     1.007825032230

  Basis Set: AUG-CC-PVTZ
    Blend: AUG-CC-PVTZ
  Basis Set: (AUG-CC-PVTZ AUX)
    Blend: AUG-CC-PVTZ-JKFIT
	 Reference Energy          =    -244.6881549254379422 [Eh]
	 Singles Energy            =      -0.0000000000000000 [Eh]
	 Same-Spin Energy          =      -0.2499080397516126 [Eh]
	 Opposite-Spin Energy      =      -0.7565858808563563 [Eh]
	 Correlation Energy        =      -1.0064939206079688 [Eh]
	 Total Energy              =    -245.6946488460459079 [Eh]

	 ================> DF-SCS-MP2 Energies <==================
	-----------------------------------------------------------
	 SCS Same-Spin Scale       =       0.3333333333333333 [-]
	 SCS Opposite-Spin Scale   =       1.2000000000000000 [-]
	 SCS Same-Spin Energy      =      -0.0833026799172042 [Eh]
	 SCS Opposite-Spin Energy  =      -0.9079030570276274 [Eh]
	 SCS Correlation Energy    =      -0.9912057369448316 [Eh]
	 SCS Total Energy          =    -245.6793606623827770 [Eh]
	-----------------------------------------------------------

  Dipole Moment: [D]
     X:     1.0351      Y:    -1.2432      Z:     0.0001     Total:     1.6177

*** Psi4 exiting successfully. Buy a developer a beer!
