                               Psi4 1.3.2 release

  ==> Input File <==

--------------------------------------------------------------------------
#psi4
#
memory 32 gb

molecule  {
0 1
  O       -0.3732950    -1.0875170     0.0000230
  N       -0.3944950     1.1585740    -0.0000440
  C        0.9124271    -0.6114609     0.0000338
  C        0.9194130     0.7048960    -0.0000320
  C       -1.1010560     0.0631240     0.0000150
  H        1.6883170    -1.4215870     0.0000640
  H        1.7555780     1.3888440    -0.0000640
  H       -2.1757640    -0.0455290     0.0000210
units angstrom
no_reorient  #important for SAPT in psi4, default
symmetry c1  #important for SAPT in psi4, default
}

set PROPERTIES_ORIGIN ["COM"]
properties('MP2/aug-cc-pvtz', properties = ['dipole'])
--------------------------------------------------------------------------

    Molecular point group: c1
  Charge       = 0
  Multiplicity = 1
  Basis Set: AUG-CC-PVTZ
    Blend: AUG-CC-PVTZ
  Basis Set: (AUG-CC-PVTZ AUX)
    Blend: AUG-CC-PVTZ-JKFIT

    Orbital Energies [Eh]
    ---------------------

    Doubly Occupied:

       1A    -20.646869     2A    -15.574128     3A    -11.342380
       4A    -11.298546     5A    -11.262596     6A     -1.490543
       7A     -1.237779     8A     -1.040730     9A     -0.846187
      10A     -0.820858    11A     -0.752750    12A     -0.662826
      13A     -0.614839    14A     -0.597807    15A     -0.590533
      16A     -0.467755    17A     -0.459716    18A     -0.354926

  @DF-RHF Final Energy:  -244.71789706540216

   => Energetics <=

    Nuclear Repulsion Energy =            163.3903372559370553
    One-Electron Energy =                -656.0929320521122463
    Two-Electron Energy =                 247.9846977307730072
    Total Energy =                       -244.7178970654021555
  Basis Set: (AUG-CC-PVTZ AUX)
    Blend: AUG-CC-PVTZ-RI
    Molecular point group: c1

    Geometry (in Angstrom), charge = 0, multiplicity = 1:

       Center              X                  Y                   Z               Mass
    ------------   -----------------  -----------------  -----------------  -----------------
         O           -0.352323248775    -1.096625479949     0.000023369275    15.994914619570
         N           -0.373523248775     1.149465520051    -0.000043630725    14.003074004430
         C            0.933398851225    -0.620569379949     0.000034169275    12.000000000000
         C            0.940384751225     0.695787520051    -0.000031630725    12.000000000000
         C           -1.080084248775     0.054015520051     0.000015369275    12.000000000000
         H            1.709288751225    -1.430695479949     0.000064369275     1.007825032230
         H            1.776549751225     1.379735520051    -0.000063630725     1.007825032230
         H           -2.154792248775    -0.054637479949     0.000021369275     1.007825032230

  Basis Set: AUG-CC-PVTZ
    Blend: AUG-CC-PVTZ
  Basis Set: (AUG-CC-PVTZ AUX)
    Blend: AUG-CC-PVTZ-JKFIT
	 Reference Energy          =    -244.7178970654021555 [Eh]
	 Singles Energy            =      -0.0000000000000000 [Eh]
	 Same-Spin Energy          =      -0.2500943748046160 [Eh]
	 Opposite-Spin Energy      =      -0.7534148499095055 [Eh]
	 Correlation Energy        =      -1.0035092247141215 [Eh]
	 Total Energy              =    -245.7214062901162777 [Eh]

	 ================> DF-SCS-MP2 Energies <==================
	-----------------------------------------------------------
	 SCS Same-Spin Scale       =       0.3333333333333333 [-]
	 SCS Opposite-Spin Scale   =       1.2000000000000000 [-]
	 SCS Same-Spin Energy      =      -0.0833647916015387 [Eh]
	 SCS Opposite-Spin Energy  =      -0.9040978198914065 [Eh]
	 SCS Correlation Energy    =      -0.9874626114929451 [Eh]
	 SCS Total Energy          =    -245.7053596768951138 [Eh]
	-----------------------------------------------------------

  Dipole Moment: [D]
     X:     0.7869      Y:    -1.3695      Z:     0.0001     Total:     1.5795

*** Psi4 exiting successfully. Buy a developer a beer!
