                               Psi4 1.3.2 release

  ==> Input File <==

--------------------------------------------------------------------------
#psi4
#
memory 32 gb

molecule  {
0 1
  O       -0.3732950    -1.0875170     0.0000230
  N       -0.3944950     1.1585740    -0.0000440
  C        1.0705269    -0.6482389     0.0000338
  C        0.9194130     0.7048960    -0.0000320
  C       -1.1010560     0.0631240     0.0000150
  H        1.6883170    -1.4215870     0.0000640
  H        1.7555780     1.3888440    -0.0000640
  H       -2.1757640    -0.0455290     0.0000210
units angstrom
no_reorient  #important for SAPT in psi4, default
symmetry c1  #important for SAPT in psi4, default
}

set PROPERTIES_ORIGIN ["COM"]
properties('MP2/aug-cc-pvtz', properties = ['dipole'])
--------------------------------------------------------------------------

    Molecular point group: c1
  Charge       = 0
  Multiplicity = 1
  Basis Set: AUG-CC-PVTZ
    Blend: AUG-CC-PVTZ
  Basis Set: (AUG-CC-PVTZ AUX)
    Blend: AUG-CC-PVTZ-JKFIT

    Orbital Energies [Eh]
    ---------------------

    Doubly Occupied:

       1A    -20.629038     2A    -15.573589     3A    -11.349476
       4A    -11.302066     5A    -11.283582     6A     -1.443487
       7A     -1.228624     8A     -1.038119     9A     -0.842445
      10A     -0.825055    11A     -0.745224    12A     -0.648023
      13A     -0.634075    14A     -0.599530    15A     -0.554836
      16A     -0.469584    17A     -0.453145    18A     -0.357484

  @DF-RHF Final Energy:  -244.69707105336778

   => Energetics <=

    Nuclear Repulsion Energy =            160.3753765359009833
    One-Electron Energy =                -650.1901345430077299
    Two-Electron Energy =                 245.1176869537389962
    Total Energy =                       -244.6970710533677789
  Basis Set: (AUG-CC-PVTZ AUX)
    Blend: AUG-CC-PVTZ-RI
    Molecular point group: c1

    Geometry (in Angstrom), charge = 0, multiplicity = 1:

       Center              X                  Y                   Z               Mass
    ------------   -----------------  -----------------  -----------------  -----------------
         O           -0.379810315808    -1.090231295065     0.000023369275    15.994914619570
         N           -0.401010315808     1.155859704935    -0.000043630725    14.003074004430
         C            1.064011584192    -0.650953195065     0.000034169275    12.000000000000
         C            0.912897684192     0.702181704935    -0.000031630725    12.000000000000
         C           -1.107571315808     0.060409704935     0.000015369275    12.000000000000
         H            1.681801684192    -1.424301295065     0.000064369275     1.007825032230
         H            1.749062684192     1.386129704935    -0.000063630725     1.007825032230
         H           -2.182279315808    -0.048243295065     0.000021369275     1.007825032230

  Basis Set: AUG-CC-PVTZ
    Blend: AUG-CC-PVTZ
  Basis Set: (AUG-CC-PVTZ AUX)
    Blend: AUG-CC-PVTZ-JKFIT
	 Reference Energy          =    -244.6970710533677789 [Eh]
	 Singles Energy            =      -0.0000000000000000 [Eh]
	 Same-Spin Energy          =      -0.2503717372009917 [Eh]
	 Opposite-Spin Energy      =      -0.7568009765981719 [Eh]
	 Correlation Energy        =      -1.0071727137991635 [Eh]
	 Total Energy              =    -245.7042437671669290 [Eh]

	 ================> DF-SCS-MP2 Energies <==================
	-----------------------------------------------------------
	 SCS Same-Spin Scale       =       0.3333333333333333 [-]
	 SCS Opposite-Spin Scale   =       1.2000000000000000 [-]
	 SCS Same-Spin Energy      =      -0.0834572457336639 [Eh]
	 SCS Opposite-Spin Energy  =      -0.9081611719178062 [Eh]
	 SCS Correlation Energy    =      -0.9916184176514701 [Eh]
	 SCS Total Energy          =    -245.6886894710192450 [Eh]
	-----------------------------------------------------------

  Dipole Moment: [D]
     X:     0.9324      Y:    -1.3097      Z:     0.0001     Total:     1.6077

*** Psi4 exiting successfully. Buy a developer a beer!
