                               Psi4 1.3.2 release

  ==> Input File <==

--------------------------------------------------------------------------
#psi4
#
memory 32 gb

molecule  {
0 1
  O       -0.3732950    -1.0875170     0.0000230
  N       -0.3944950     1.1585740    -0.0000440
  C        0.9282580    -0.6566220     0.0000340
  C        0.9596375     0.8447221    -0.0000391
  C       -1.1010560     0.0631240     0.0000150
  H        1.6883170    -1.4215870     0.0000640
  H        1.7555780     1.3888440    -0.0000640
  H       -2.1757640    -0.0455290     0.0000210
units angstrom
no_reorient  #important for SAPT in psi4, default
symmetry c1  #important for SAPT in psi4, default
}

set PROPERTIES_ORIGIN ["COM"]
properties('MP2/aug-cc-pvtz', properties = ['dipole'])
--------------------------------------------------------------------------

    Molecular point group: c1
  Charge       = 0
  Multiplicity = 1
  Basis Set: AUG-CC-PVTZ
    Blend: AUG-CC-PVTZ
  Basis Set: (AUG-CC-PVTZ AUX)
    Blend: AUG-CC-PVTZ-JKFIT

    Orbital Energies [Eh]
    ---------------------

    Doubly Occupied:

       1A    -20.658066     2A    -15.578310     3A    -11.339770
       4A    -11.321755     5A    -11.281447     6A     -1.488057
       7A     -1.232178     8A     -1.019521     9A     -0.862845
      10A     -0.814097    11A     -0.754688    12A     -0.659006
      13A     -0.657799    14A     -0.618027    15A     -0.572027
      16A     -0.459069    17A     -0.452101    18A     -0.325353

  @DF-RHF Final Energy:  -244.68119847409358

   => Energetics <=

    Nuclear Repulsion Energy =            160.6028181245965527
    One-Electron Energy =                -650.3798017959026083
    Two-Electron Energy =                 245.0957851972125070
    Total Energy =                       -244.6811984740935770
  Basis Set: (AUG-CC-PVTZ AUX)
    Blend: AUG-CC-PVTZ-RI
    Molecular point group: c1

    Geometry (in Angstrom), charge = 0, multiplicity = 1:

       Center              X                  Y                   Z               Mass
    ------------   -----------------  -----------------  -----------------  -----------------
         O           -0.362068982402    -1.113083838534     0.000024568902    15.994914619570
         N           -0.383268982402     1.133007161466    -0.000042431098    14.003074004430
         C            0.939484017598    -0.682188838534     0.000035568902    12.000000000000
         C            0.970863517598     0.819155261466    -0.000037531098    12.000000000000
         C           -1.089829982402     0.037557161466     0.000016568902    12.000000000000
         H            1.699543017598    -1.447153838534     0.000065568902     1.007825032230
         H            1.766804017598     1.363277161466    -0.000062431098     1.007825032230
         H           -2.164537982402    -0.071095838534     0.000022568902     1.007825032230

  Basis Set: AUG-CC-PVTZ
    Blend: AUG-CC-PVTZ
  Basis Set: (AUG-CC-PVTZ AUX)
    Blend: AUG-CC-PVTZ-JKFIT
	 Reference Energy          =    -244.6811984740935770 [Eh]
	 Singles Energy            =      -0.0000000000000000 [Eh]
	 Same-Spin Energy          =      -0.2534683590398978 [Eh]
	 Opposite-Spin Energy      =      -0.7602905216238904 [Eh]
	 Correlation Energy        =      -1.0137588806637883 [Eh]
	 Total Energy              =    -245.6949573547573777 [Eh]

	 ================> DF-SCS-MP2 Energies <==================
	-----------------------------------------------------------
	 SCS Same-Spin Scale       =       0.3333333333333333 [-]
	 SCS Opposite-Spin Scale   =       1.2000000000000000 [-]
	 SCS Same-Spin Energy      =      -0.0844894530132993 [Eh]
	 SCS Opposite-Spin Energy  =      -0.9123486259486685 [Eh]
	 SCS Correlation Energy    =      -0.9968380789619677 [Eh]
	 SCS Total Energy          =    -245.6780365530555343 [Eh]
	-----------------------------------------------------------

  Dipole Moment: [D]
     X:     0.8260      Y:    -1.3529      Z:     0.0001     Total:     1.5851

*** Psi4 exiting successfully. Buy a developer a beer!
