                               Psi4 1.3.2 release

  ==> Input File <==

--------------------------------------------------------------------------
#psi4
#
memory 32 gb

molecule  {
0 1
  O       -0.3732950    -1.0875170     0.0000230
  N       -0.3944950     1.1585740    -0.0000440
  C        0.7858922    -0.6500880     0.0000335
  C        0.9194130     0.7048960    -0.0000320
  C       -1.1010560     0.0631240     0.0000150
  H        1.6883170    -1.4215870     0.0000640
  H        1.7555780     1.3888440    -0.0000640
  H       -2.1757640    -0.0455290     0.0000210
units angstrom
no_reorient  #important for SAPT in psi4, default
symmetry c1  #important for SAPT in psi4, default
}

set PROPERTIES_ORIGIN ["COM"]
properties('MP2/aug-cc-pvtz', properties = ['dipole'])
--------------------------------------------------------------------------

    Molecular point group: c1
  Charge       = 0
  Multiplicity = 1
  Basis Set: AUG-CC-PVTZ
    Blend: AUG-CC-PVTZ
  Basis Set: (AUG-CC-PVTZ AUX)
    Blend: AUG-CC-PVTZ-JKFIT

    Orbital Energies [Eh]
    ---------------------

    Doubly Occupied:

       1A    -20.665655     2A    -15.579273     3A    -11.335068
       4A    -11.307716     5A    -11.257716     6A     -1.552962
       7A     -1.247350     8A     -1.034348     9A     -0.870188
      10A     -0.816035    11A     -0.765802    12A     -0.697893
      13A     -0.645193    14A     -0.595582    15A     -0.560798
      16A     -0.466447    17A     -0.465658    18A     -0.337671

  @DF-RHF Final Energy:  -244.69538784055229

   => Energetics <=

    Nuclear Repulsion Energy =            165.3731681737273504
    One-Electron Energy =                -659.7343974885209263
    Two-Electron Energy =                 249.6658414742413186
    Total Energy =                       -244.6953878405522858
  Basis Set: (AUG-CC-PVTZ AUX)
    Blend: AUG-CC-PVTZ-RI
    Molecular point group: c1

    Geometry (in Angstrom), charge = 0, multiplicity = 1:

       Center              X                  Y                   Z               Mass
    ------------   -----------------  -----------------  -----------------  -----------------
         O           -0.330324022474    -1.089909812459     0.000023421433    15.994914619570
         N           -0.351524022474     1.156181187541    -0.000043578567    14.003074004430
         C            0.828863177526    -0.652480812459     0.000033921433    12.000000000000
         C            0.962383977526     0.702503187541    -0.000031578567    12.000000000000
         C           -1.058085022474     0.060731187541     0.000015421433    12.000000000000
         H            1.731287977526    -1.423979812459     0.000064421433     1.007825032230
         H            1.798548977526     1.386451187541    -0.000063578567     1.007825032230
         H           -2.132793022474    -0.047921812459     0.000021421433     1.007825032230

  Basis Set: AUG-CC-PVTZ
    Blend: AUG-CC-PVTZ
  Basis Set: (AUG-CC-PVTZ AUX)
    Blend: AUG-CC-PVTZ-JKFIT
	 Reference Energy          =    -244.6953878405522858 [Eh]
	 Singles Energy            =      -0.0000000000000000 [Eh]
	 Same-Spin Energy          =      -0.2513793891947120 [Eh]
	 Opposite-Spin Energy      =      -0.7532084222076165 [Eh]
	 Correlation Energy        =      -1.0045878114023286 [Eh]
	 Total Energy              =    -245.6999756519546168 [Eh]

	 ================> DF-SCS-MP2 Energies <==================
	-----------------------------------------------------------
	 SCS Same-Spin Scale       =       0.3333333333333333 [-]
	 SCS Opposite-Spin Scale   =       1.2000000000000000 [-]
	 SCS Same-Spin Energy      =      -0.0837931297315707 [Eh]
	 SCS Opposite-Spin Energy  =      -0.9038501066491398 [Eh]
	 SCS Correlation Energy    =      -0.9876432363807105 [Eh]
	 SCS Total Energy          =    -245.6830310769329913 [Eh]
	-----------------------------------------------------------

  Dipole Moment: [D]
     X:     0.5825      Y:    -1.5023      Z:     0.0001     Total:     1.6113

*** Psi4 exiting successfully. Buy a developer a beer!
