                               Psi4 1.3.2 release

  ==> Input File <==

--------------------------------------------------------------------------
#psi4
#
memory 32 gb

molecule  {
0 1
  O       -0.4975565    -1.1572854     0.0000297
  N       -0.3944950     1.1585740    -0.0000440
  C        0.9282580    -0.6566220     0.0000340
  C        0.9194130     0.7048960    -0.0000320
  C       -1.1010560     0.0631240     0.0000150
  H        1.6883170    -1.4215870     0.0000640
  H        1.7555780     1.3888440    -0.0000640
  H       -2.1757640    -0.0455290     0.0000210
units angstrom
no_reorient  #important for SAPT in psi4, default
symmetry c1  #important for SAPT in psi4, default
}

set PROPERTIES_ORIGIN ["COM"]
properties('MP2/aug-cc-pvtz', properties = ['dipole'])
--------------------------------------------------------------------------

    Molecular point group: c1
  Charge       = 0
  Multiplicity = 1
  Basis Set: AUG-CC-PVTZ
    Blend: AUG-CC-PVTZ
  Basis Set: (AUG-CC-PVTZ AUX)
    Blend: AUG-CC-PVTZ-JKFIT

    Orbital Energies [Eh]
    ---------------------

    Doubly Occupied:

       1A    -20.646171     2A    -15.575422     3A    -11.348935
       4A    -11.310162     5A    -11.284845     6A     -1.451130
       7A     -1.240990     8A     -1.027963     9A     -0.832472
      10A     -0.825786    11A     -0.740664    12A     -0.640287
      13A     -0.621373    14A     -0.599823    15A     -0.577932
      16A     -0.469690    17A     -0.463887    18A     -0.353726

  @DF-RHF Final Energy:  -244.70002231291190

   => Energetics <=

    Nuclear Repulsion Energy =            159.8109451757808586
    One-Electron Energy =                -648.9994197313889117
    Two-Electron Energy =                 244.4884522426961837
    Total Energy =                       -244.7000223129118979
  Basis Set: (AUG-CC-PVTZ AUX)
    Blend: AUG-CC-PVTZ-RI
    Molecular point group: c1

    Geometry (in Angstrom), charge = 0, multiplicity = 1:

       Center              X                  Y                   Z               Mass
    ------------   -----------------  -----------------  -----------------  -----------------
         O           -0.450540947527    -1.142374209664     0.000028481857    15.994914619570
         N           -0.347479447527     1.173485190336    -0.000045218143    14.003074004430
         C            0.975273552473    -0.641710809664     0.000032781857    12.000000000000
         C            0.966428552473     0.719807190336    -0.000033218143    12.000000000000
         C           -1.054040447527     0.078035190336     0.000013781857    12.000000000000
         H            1.735332552473    -1.406675809664     0.000062781857     1.007825032230
         H            1.802593552473     1.403755190336    -0.000065218143     1.007825032230
         H           -2.128748447527    -0.030617809664     0.000019781857     1.007825032230

  Basis Set: AUG-CC-PVTZ
    Blend: AUG-CC-PVTZ
  Basis Set: (AUG-CC-PVTZ AUX)
    Blend: AUG-CC-PVTZ-JKFIT
	 Reference Energy          =    -244.7000223129118979 [Eh]
	 Singles Energy            =      -0.0000000000000000 [Eh]
	 Same-Spin Energy          =      -0.2508339086963478 [Eh]
	 Opposite-Spin Energy      =      -0.7586534919523999 [Eh]
	 Correlation Energy        =      -1.0094874006487478 [Eh]
	 Total Energy              =    -245.7095097135606352 [Eh]

	 ================> DF-SCS-MP2 Energies <==================
	-----------------------------------------------------------
	 SCS Same-Spin Scale       =       0.3333333333333333 [-]
	 SCS Opposite-Spin Scale   =       1.2000000000000000 [-]
	 SCS Same-Spin Energy      =      -0.0836113028987826 [Eh]
	 SCS Opposite-Spin Energy  =      -0.9103841903428799 [Eh]
	 SCS Correlation Energy    =      -0.9939954932416625 [Eh]
	 SCS Total Energy          =    -245.6940178061535676 [Eh]
	-----------------------------------------------------------

  Dipole Moment: [D]
     X:     1.0654      Y:    -1.1267      Z:     0.0001     Total:     1.5507

*** Psi4 exiting successfully. Buy a developer a beer!
