                               Psi4 1.3.2 release

  ==> Input File <==

--------------------------------------------------------------------------
#psi4
#
memory 32 gb

molecule  {
0 1
  O       -0.3732950    -1.0875170     0.0000230
  N       -0.3944950     1.1585740    -0.0000440
  C        0.9520184    -0.6562603     0.0000340
  C        0.9194130     0.7048960    -0.0000320
  C       -1.1010560     0.0631240     0.0000150
  H        1.6883170    -1.4215870     0.0000640
  H        1.7555780     1.3888440    -0.0000640
  H       -2.1757640    -0.0455290     0.0000210
units angstrom
no_reorient  #important for SAPT in psi4, default
symmetry c1  #important for SAPT in psi4, default
}

set PROPERTIES_ORIGIN ["COM"]
properties('MP2/aug-cc-pvtz', properties = ['dipole'])
--------------------------------------------------------------------------

    Molecular point group: c1
  Charge       = 0
  Multiplicity = 1
  Basis Set: AUG-CC-PVTZ
    Blend: AUG-CC-PVTZ
  Basis Set: (AUG-CC-PVTZ AUX)
    Blend: AUG-CC-PVTZ-JKFIT

    Orbital Energies [Eh]
    ---------------------

    Doubly Occupied:

       1A    -20.644710     2A    -15.575120     3A    -11.343995
       4A    -11.300956     5A    -11.271577     6A     -1.479760
       7A     -1.234716     8A     -1.035176     9A     -0.840099
      10A     -0.826342    11A     -0.752069    12A     -0.655646
      13A     -0.632318    14A     -0.598015    15A     -0.580355
      16A     -0.469450    17A     -0.457397    18A     -0.349068

  @DF-RHF Final Energy:  -244.71879586857040

   => Energetics <=

    Nuclear Repulsion Energy =            162.2545592986652991
    One-Electron Energy =                -653.8531735605214408
    Two-Electron Energy =                 246.8798183932857455
    Total Energy =                       -244.7187958685703961
  Basis Set: (AUG-CC-PVTZ AUX)
    Blend: AUG-CC-PVTZ-RI
    Molecular point group: c1

    Geometry (in Angstrom), charge = 0, multiplicity = 1:

       Center              X                  Y                   Z               Mass
    ------------   -----------------  -----------------  -----------------  -----------------
         O           -0.359206551075    -1.088836702792     0.000023334503    15.994914619570
         N           -0.380406551075     1.157254297208    -0.000043665497    14.003074004430
         C            0.966106848925    -0.657580002792     0.000034334503    12.000000000000
         C            0.933501448925     0.703576297208    -0.000031665497    12.000000000000
         C           -1.086967551075     0.061804297208     0.000015334503    12.000000000000
         H            1.702405448925    -1.422906702792     0.000064334503     1.007825032230
         H            1.769666448925     1.387524297208    -0.000063665497     1.007825032230
         H           -2.161675551075    -0.046848702792     0.000021334503     1.007825032230

  Basis Set: AUG-CC-PVTZ
    Blend: AUG-CC-PVTZ
  Basis Set: (AUG-CC-PVTZ AUX)
    Blend: AUG-CC-PVTZ-JKFIT
	 Reference Energy          =    -244.7187958685703961 [Eh]
	 Singles Energy            =      -0.0000000000000000 [Eh]
	 Same-Spin Energy          =      -0.2505220656863085 [Eh]
	 Opposite-Spin Energy      =      -0.7546557619063339 [Eh]
	 Correlation Energy        =      -1.0051778275926424 [Eh]
	 Total Energy              =    -245.7239736961630285 [Eh]

	 ================> DF-SCS-MP2 Energies <==================
	-----------------------------------------------------------
	 SCS Same-Spin Scale       =       0.3333333333333333 [-]
	 SCS Opposite-Spin Scale   =       1.2000000000000000 [-]
	 SCS Same-Spin Energy      =      -0.0835073552287695 [Eh]
	 SCS Opposite-Spin Energy  =      -0.9055869142876006 [Eh]
	 SCS Correlation Energy    =      -0.9890942695163701 [Eh]
	 SCS Total Energy          =    -245.7078901380867535 [Eh]
	-----------------------------------------------------------

  Dipole Moment: [D]
     X:     0.8113      Y:    -1.4024      Z:     0.0001     Total:     1.6201

*** Psi4 exiting successfully. Buy a developer a beer!
