                               Psi4 1.3.2 release

  ==> Input File <==

--------------------------------------------------------------------------
#psi4
#
memory 32 gb

molecule  {
0 1
  O       -0.3732950    -1.0875170     0.0000230
  N       -0.4229414     1.0658153    -0.0000401
  C        0.9282580    -0.6566220     0.0000340
  C        0.9194130     0.7048960    -0.0000320
  C       -1.1010560     0.0631240     0.0000150
  H        1.6883170    -1.4215870     0.0000640
  H        1.7555780     1.3888440    -0.0000640
  H       -2.1757640    -0.0455290     0.0000210
units angstrom
no_reorient  #important for SAPT in psi4, default
symmetry c1  #important for SAPT in psi4, default
}

set PROPERTIES_ORIGIN ["COM"]
properties('MP2/aug-cc-pvtz', properties = ['dipole'])
--------------------------------------------------------------------------

    Molecular point group: c1
  Charge       = 0
  Multiplicity = 1
  Basis Set: AUG-CC-PVTZ
    Blend: AUG-CC-PVTZ
  Basis Set: (AUG-CC-PVTZ AUX)
    Blend: AUG-CC-PVTZ-JKFIT

    Orbital Energies [Eh]
    ---------------------

    Doubly Occupied:

       1A    -20.634305     2A    -15.558413     3A    -11.323343
       4A    -11.302792     5A    -11.268911     6A     -1.488441
       7A     -1.256743     8A     -1.041666     9A     -0.847530
      10A     -0.818586    11A     -0.753519    12A     -0.662780
      13A     -0.629105    14A     -0.616385    15A     -0.577348
      16A     -0.466932    17A     -0.454591    18A     -0.354394

  @DF-RHF Final Energy:  -244.71705578403214

   => Energetics <=

    Nuclear Repulsion Energy =            164.8455550626414379
    One-Electron Energy =                -659.0136545954408120
    Two-Electron Energy =                 249.4510437487672334
    Total Energy =                       -244.7170557840321408
  Basis Set: (AUG-CC-PVTZ AUX)
    Blend: AUG-CC-PVTZ-RI
    Molecular point group: c1

    Geometry (in Angstrom), charge = 0, multiplicity = 1:

       Center              X                  Y                   Z               Mass
    ------------   -----------------  -----------------  -----------------  -----------------
         O           -0.349304387204    -1.069954933695     0.000022543271    15.994914619570
         N           -0.398950787204     1.083377366305    -0.000040556729    14.003074004430
         C            0.952248612796    -0.639059933695     0.000033543271    12.000000000000
         C            0.943403612796     0.722458066305    -0.000032456729    12.000000000000
         C           -1.077065387204     0.080686066305     0.000014543271    12.000000000000
         H            1.712307612796    -1.404024933695     0.000063543271     1.007825032230
         H            1.779568612796     1.406406066305    -0.000064456729     1.007825032230
         H           -2.151773387204    -0.027966933695     0.000020543271     1.007825032230

  Basis Set: AUG-CC-PVTZ
    Blend: AUG-CC-PVTZ
  Basis Set: (AUG-CC-PVTZ AUX)
    Blend: AUG-CC-PVTZ-JKFIT
	 Reference Energy          =    -244.7170557840321408 [Eh]
	 Singles Energy            =      -0.0000000000000000 [Eh]
	 Same-Spin Energy          =      -0.2486282976872968 [Eh]
	 Opposite-Spin Energy      =      -0.7497503032892820 [Eh]
	 Correlation Energy        =      -0.9983786009765788 [Eh]
	 Total Energy              =    -245.7154343850087059 [Eh]

	 ================> DF-SCS-MP2 Energies <==================
	-----------------------------------------------------------
	 SCS Same-Spin Scale       =       0.3333333333333333 [-]
	 SCS Opposite-Spin Scale   =       1.2000000000000000 [-]
	 SCS Same-Spin Energy      =      -0.0828760992290989 [Eh]
	 SCS Opposite-Spin Energy  =      -0.8997003639471385 [Eh]
	 SCS Correlation Energy    =      -0.9825764631762374 [Eh]
	 SCS Total Energy          =    -245.6996322472083705 [Eh]
	-----------------------------------------------------------

  Dipole Moment: [D]
     X:     0.8221      Y:    -1.1619      Z:     0.0001     Total:     1.4233

*** Psi4 exiting successfully. Buy a developer a beer!
