                               Psi4 1.3.2 release

  ==> Input File <==

--------------------------------------------------------------------------
#psi4
#
memory 32 gb

molecule  {
0 1
  O       -0.3732950    -1.0875170     0.0000230
  N       -0.3944950     1.1585740    -0.0000440
  C        0.9282580    -0.6566220     0.0000340
  C        0.9194130     0.7048960    -0.0000320
  C       -1.1010560     0.0631240     0.0000150
  H        1.6883170    -1.4215870     0.0000640
  H        1.7555780     1.3888440    -0.0000640
  H       -2.2752568    -0.0555877     0.0000216
units angstrom
no_reorient  #important for SAPT in psi4, default
symmetry c1  #important for SAPT in psi4, default
}

set PROPERTIES_ORIGIN ["COM"]
properties('MP2/aug-cc-pvtz', properties = ['dipole'])
--------------------------------------------------------------------------

    Molecular point group: c1
  Charge       = 0
  Multiplicity = 1
  Basis Set: AUG-CC-PVTZ
    Blend: AUG-CC-PVTZ
  Basis Set: (AUG-CC-PVTZ AUX)
    Blend: AUG-CC-PVTZ-JKFIT

    Orbital Energies [Eh]
    ---------------------

    Doubly Occupied:

       1A    -20.648417     2A    -15.575835     3A    -11.352579
       4A    -11.301417     5A    -11.269834     6A     -1.488855
       7A     -1.236592     8A     -1.031616     9A     -0.841842
      10A     -0.815748    11A     -0.746852    12A     -0.661091
      13A     -0.624796    14A     -0.586817    15A     -0.582859
      16A     -0.469051    17A     -0.458798    18A     -0.347456

  @DF-RHF Final Energy:  -244.71223933823416

   => Energetics <=

    Nuclear Repulsion Energy =            162.2037620223458703
    One-Electron Energy =                -653.7510908732766666
    Two-Electron Energy =                 246.8350895126966407
    Total Energy =                       -244.7122393382341556
  Basis Set: (AUG-CC-PVTZ AUX)
    Blend: AUG-CC-PVTZ-RI
    Molecular point group: c1

    Geometry (in Angstrom), charge = 0, multiplicity = 1:

       Center              X                  Y                   Z               Mass
    ------------   -----------------  -----------------  -----------------  -----------------
         O           -0.353622836770    -1.088626944712     0.000023325742    15.994914619570
         N           -0.374822836770     1.157464055288    -0.000043674258    14.003074004430
         C            0.947930163230    -0.657731944712     0.000034325742    12.000000000000
         C            0.939085163230     0.703786055288    -0.000031674258    12.000000000000
         C           -1.081383836770     0.062014055288     0.000015325742    12.000000000000
         H            1.707989163230    -1.422696944712     0.000064325742     1.007825032230
         H            1.775250163230     1.387734055288    -0.000063674258     1.007825032230
         H           -2.255584636770    -0.056697644712     0.000021925742     1.007825032230

  Basis Set: AUG-CC-PVTZ
    Blend: AUG-CC-PVTZ
  Basis Set: (AUG-CC-PVTZ AUX)
    Blend: AUG-CC-PVTZ-JKFIT
	 Reference Energy          =    -244.7122393382341556 [Eh]
	 Singles Energy            =      -0.0000000000000000 [Eh]
	 Same-Spin Energy          =      -0.2508404607106006 [Eh]
	 Opposite-Spin Energy      =      -0.7550737711489499 [Eh]
	 Correlation Energy        =      -1.0059142318595504 [Eh]
	 Total Energy              =    -245.7181535700937047 [Eh]

	 ================> DF-SCS-MP2 Energies <==================
	-----------------------------------------------------------
	 SCS Same-Spin Scale       =       0.3333333333333333 [-]
	 SCS Opposite-Spin Scale   =       1.2000000000000000 [-]
	 SCS Same-Spin Energy      =      -0.0836134869035335 [Eh]
	 SCS Opposite-Spin Energy  =      -0.9060885253787399 [Eh]
	 SCS Correlation Energy    =      -0.9897020122822734 [Eh]
	 SCS Total Energy          =    -245.7019413505164209 [Eh]
	-----------------------------------------------------------

  Dipole Moment: [D]
     X:     0.7640      Y:    -1.4177      Z:     0.0001     Total:     1.6105

*** Psi4 exiting successfully. Buy a developer a beer!
