                               Psi4 1.3.2 release

  ==> Input File <==

--------------------------------------------------------------------------
#psi4
#
memory 32 gb

molecule  {
0 1
  O       -0.3732950    -1.0875170     0.0000230
  N       -0.3944950     1.1585740    -0.0000440
  C        0.9282580    -0.6566220     0.0000340
  C        0.9431761     0.7048430    -0.0000322
  C       -1.1010560     0.0631240     0.0000150
  H        1.6883170    -1.4215870     0.0000640
  H        1.7555780     1.3888440    -0.0000640
  H       -2.1757640    -0.0455290     0.0000210
units angstrom
no_reorient  #important for SAPT in psi4, default
symmetry c1  #important for SAPT in psi4, default
}

set PROPERTIES_ORIGIN ["COM"]
properties('MP2/aug-cc-pvtz', properties = ['dipole'])
--------------------------------------------------------------------------

    Molecular point group: c1
  Charge       = 0
  Multiplicity = 1
  Basis Set: AUG-CC-PVTZ
    Blend: AUG-CC-PVTZ
  Basis Set: (AUG-CC-PVTZ AUX)
    Blend: AUG-CC-PVTZ-JKFIT

    Orbital Energies [Eh]
    ---------------------

    Doubly Occupied:

       1A    -20.647385     2A    -15.576026     3A    -11.342374
       4A    -11.303059     5A    -11.269704     6A     -1.487456
       7A     -1.229677     8A     -1.035742     9A     -0.845714
      10A     -0.821030    11A     -0.753951    12A     -0.659888
      13A     -0.630355    14A     -0.599182    15A     -0.584538
      16A     -0.466606    17A     -0.454813    18A     -0.349415

  @DF-RHF Final Energy:  -244.71927328641652

   => Energetics <=

    Nuclear Repulsion Energy =            162.2897880745319981
    One-Electron Energy =                -653.9042906155351602
    Two-Electron Energy =                 246.8952292545866385
    Total Energy =                       -244.7192732864165237
  Basis Set: (AUG-CC-PVTZ AUX)
    Blend: AUG-CC-PVTZ-RI
    Molecular point group: c1

    Geometry (in Angstrom), charge = 0, multiplicity = 1:

       Center              X                  Y                   Z               Mass
    ------------   -----------------  -----------------  -----------------  -----------------
         O           -0.359207020494    -1.088764603480     0.000023369275    15.994914619570
         N           -0.380407020494     1.157326396520    -0.000043630725    14.003074004430
         C            0.942345979506    -0.657869603480     0.000034369275    12.000000000000
         C            0.957264079506     0.703595396520    -0.000031830725    12.000000000000
         C           -1.086968020494     0.061876396520     0.000015369275    12.000000000000
         H            1.702404979506    -1.422834603480     0.000064369275     1.007825032230
         H            1.769665979506     1.387596396520    -0.000063630725     1.007825032230
         H           -2.161676020494    -0.046776603480     0.000021369275     1.007825032230

  Basis Set: AUG-CC-PVTZ
    Blend: AUG-CC-PVTZ
  Basis Set: (AUG-CC-PVTZ AUX)
    Blend: AUG-CC-PVTZ-JKFIT
	 Reference Energy          =    -244.7192732864165237 [Eh]
	 Singles Energy            =      -0.0000000000000000 [Eh]
	 Same-Spin Energy          =      -0.2503404477120525 [Eh]
	 Opposite-Spin Energy      =      -0.7544651357805747 [Eh]
	 Correlation Energy        =      -1.0048055834926273 [Eh]
	 Total Energy              =    -245.7240788699091638 [Eh]

	 ================> DF-SCS-MP2 Energies <==================
	-----------------------------------------------------------
	 SCS Same-Spin Scale       =       0.3333333333333333 [-]
	 SCS Opposite-Spin Scale   =       1.2000000000000000 [-]
	 SCS Same-Spin Energy      =      -0.0834468159040175 [Eh]
	 SCS Opposite-Spin Energy  =      -0.9053581629366896 [Eh]
	 SCS Correlation Energy    =      -0.9888049788407071 [Eh]
	 SCS Total Energy          =    -245.7080782652572282 [Eh]
	-----------------------------------------------------------

  Dipole Moment: [D]
     X:     0.8017      Y:    -1.4166      Z:     0.0001     Total:     1.6277

*** Psi4 exiting successfully. Buy a developer a beer!
