                               Psi4 1.3.2 release

  ==> Input File <==

--------------------------------------------------------------------------
#psi4
#
memory 32 gb

molecule  {
0 1
  O       -0.3732950    -1.0875170     0.0000230
  N       -0.3944950     1.1585740    -0.0000440
  C        0.9282580    -0.6566220     0.0000340
  C        0.9669347     0.7043753    -0.0000324
  C       -1.1010560     0.0631240     0.0000150
  H        1.6883170    -1.4215870     0.0000640
  H        1.7555780     1.3888440    -0.0000640
  H       -2.1757640    -0.0455290     0.0000210
units angstrom
no_reorient  #important for SAPT in psi4, default
symmetry c1  #important for SAPT in psi4, default
}

set PROPERTIES_ORIGIN ["COM"]
properties('MP2/aug-cc-pvtz', properties = ['dipole'])
--------------------------------------------------------------------------

    Molecular point group: c1
  Charge       = 0
  Multiplicity = 1
  Basis Set: AUG-CC-PVTZ
    Blend: AUG-CC-PVTZ
  Basis Set: (AUG-CC-PVTZ AUX)
    Blend: AUG-CC-PVTZ-JKFIT

    Orbital Energies [Eh]
    ---------------------

    Doubly Occupied:

       1A    -20.647150     2A    -15.576492     3A    -11.342057
       4A    -11.304877     5A    -11.270126     6A     -1.486605
       7A     -1.223575     8A     -1.036698     9A     -0.848079
      10A     -0.818193    11A     -0.754203    12A     -0.659212
      13A     -0.630791    14A     -0.602500    15A     -0.583887
      16A     -0.463722    17A     -0.451453    18A     -0.351460

  @DF-RHF Final Energy:  -244.71726001552139

   => Energetics <=

    Nuclear Repulsion Energy =            161.9273422229891253
    One-Electron Energy =                -653.1870444475534896
    Two-Electron Energy =                 246.5424422090429744
    Total Energy =                       -244.7172600155213900
  Basis Set: (AUG-CC-PVTZ AUX)
    Blend: AUG-CC-PVTZ-RI
    Molecular point group: c1

    Geometry (in Angstrom), charge = 0, multiplicity = 1:

       Center              X                  Y                   Z               Mass
    ------------   -----------------  -----------------  -----------------  -----------------
         O           -0.363337666016    -1.088683289644     0.000023404047    15.994914619570
         N           -0.384537666016     1.157407710356    -0.000043595953    14.003074004430
         C            0.938215333984    -0.657788289644     0.000034404047    12.000000000000
         C            0.976892033984     0.703209010356    -0.000031995953    12.000000000000
         C           -1.091098666016     0.061957710356     0.000015404047    12.000000000000
         H            1.698274333984    -1.422753289644     0.000064404047     1.007825032230
         H            1.765535333984     1.387677710356    -0.000063595953     1.007825032230
         H           -2.165806666016    -0.046695289644     0.000021404047     1.007825032230

  Basis Set: AUG-CC-PVTZ
    Blend: AUG-CC-PVTZ
  Basis Set: (AUG-CC-PVTZ AUX)
    Blend: AUG-CC-PVTZ-JKFIT
	 Reference Energy          =    -244.7172600155213900 [Eh]
	 Singles Energy            =      -0.0000000000000000 [Eh]
	 Same-Spin Energy          =      -0.2501151271828879 [Eh]
	 Opposite-Spin Energy      =      -0.7546923473907783 [Eh]
	 Correlation Energy        =      -1.0048074745736661 [Eh]
	 Total Energy              =    -245.7220674900950428 [Eh]

	 ================> DF-SCS-MP2 Energies <==================
	-----------------------------------------------------------
	 SCS Same-Spin Scale       =       0.3333333333333333 [-]
	 SCS Opposite-Spin Scale   =       1.2000000000000000 [-]
	 SCS Same-Spin Energy      =      -0.0833717090609626 [Eh]
	 SCS Opposite-Spin Energy  =      -0.9056308168689339 [Eh]
	 SCS Correlation Energy    =      -0.9890025259298965 [Eh]
	 SCS Total Energy          =    -245.7062625414512809 [Eh]
	-----------------------------------------------------------

  Dipole Moment: [D]
     X:     0.8157      Y:    -1.4142      Z:     0.0001     Total:     1.6326

*** Psi4 exiting successfully. Buy a developer a beer!
