                               Psi4 1.4a3.dev225

  ==> Input File <==

--------------------------------------------------------------------------
#psi4
#
memory 32 gb

molecule  {
0 1
  O       -0.3732950    -1.0875170     0.0000230
  N       -0.3944950     1.1585740    -0.0000440
  C        0.9282580    -0.6566220     0.0000340
  C        0.9194130     0.7048960    -0.0000320
  C       -1.0739546     0.1051420     0.0000127
  H        1.6883170    -1.4215870     0.0000640
  H        1.7555780     1.3888440    -0.0000640
  H       -2.1757640    -0.0455290     0.0000210
units angstrom
no_reorient  #important for SAPT in psi4, default
symmetry c1  #important for SAPT in psi4, default
}

set PROPERTIES_ORIGIN ["COM"]
properties('MP2/aug-cc-pvtz', properties = ['dipole'])
--------------------------------------------------------------------------

    Molecular point group: c1
  Charge       = 0
  Multiplicity = 1
  Basis Set: AUG-CC-PVTZ
    Blend: AUG-CC-PVTZ
  Basis Set: (AUG-CC-PVTZ AUX)
    Blend: AUG-CC-PVTZ-JKFIT

    Orbital Energies [Eh]
    ---------------------

    Doubly Occupied:

       1A    -20.641826     2A    -15.573484     3A    -11.339555
       4A    -11.302339     5A    -11.269367     6A     -1.482049
       7A     -1.255236     8A     -1.032979     9A     -0.842924
      10A     -0.821357    11A     -0.750447    12A     -0.658751
      13A     -0.623274    14A     -0.599400    15A     -0.579740
      16A     -0.473001    17A     -0.468253    18A     -0.350329

  @DF-RHF Final Energy:  -244.71848428120740

   => Energetics <=

    Nuclear Repulsion Energy =            163.1908195642262172
    One-Electron Energy =                -655.6899850912454895
    Two-Electron Energy =                 247.7806812458118770
    Total Energy =                       -244.7184842812073953
  Basis Set: (AUG-CC-PVTZ AUX)
    Blend: AUG-CC-PVTZ-RI
    Molecular point group: c1

    Geometry (in Angstrom), charge = 0, multiplicity = 1:

       Center              X                  Y                   Z               Mass
    ------------   -----------------  -----------------  -----------------  -----------------
         O           -0.359787413865    -1.096079023847     0.000023734379    15.994914619570
         N           -0.380987413865     1.150011976153    -0.000043265621    14.003074004430
         C            0.941765586135    -0.665184023847     0.000034734379    12.000000000000
         C            0.932920586135     0.696333976153    -0.000031265621    12.000000000000
         C           -1.060447013865     0.096579976153     0.000013434379    12.000000000000
         H            1.701824586135    -1.430149023847     0.000064734379     1.007825032230
         H            1.769085586135     1.380281976153    -0.000063265621     1.007825032230
         H           -2.162256413865    -0.054091023847     0.000021734379     1.007825032230

  Basis Set: AUG-CC-PVTZ
    Blend: AUG-CC-PVTZ
  Basis Set: (AUG-CC-PVTZ AUX)
    Blend: AUG-CC-PVTZ-JKFIT
	 Reference Energy          =    -244.7184842812073953 [Eh]
	 Singles Energy            =      -0.0000000000000000 [Eh]
	 Same-Spin Energy          =      -0.2498059655343822 [Eh]
	 Opposite-Spin Energy      =      -0.7531424470511490 [Eh]
	 Correlation Energy        =      -1.0029484125855310 [Eh]
	 Total Energy              =    -245.7214326937929343 [Eh]

	 ================> DF-SCS-MP2 Energies <==================
	-----------------------------------------------------------
	 SCS Same-Spin Scale       =       0.3333333333333333 [-]
	 SCS Opposite-Spin Scale   =       1.2000000000000000 [-]
	 SCS Same-Spin Energy      =      -0.0832686551781274 [Eh]
	 SCS Opposite-Spin Energy  =      -0.9037709364613787 [Eh]
	 SCS Correlation Energy    =      -0.9870395916395062 [Eh]
	 SCS Total Energy          =    -245.7055238728468964 [Eh]
	-----------------------------------------------------------

  Dipole Moment: [D]
     X:     0.7830      Y:    -1.2644      Z:     0.0001     Total:     1.4872

*** Psi4 exiting successfully. Buy a developer a beer!
