                               Psi4 1.4a3.dev225

  ==> Input File <==

--------------------------------------------------------------------------
#psi4
#
memory 32 gb

molecule  {
0 1
  O       -0.3732950    -1.0875170     0.0000230
  N       -0.3944950     1.1585740    -0.0000440
  C        0.9282580    -0.6566220     0.0000340
  C        0.9194130     0.7048960    -0.0000320
  C       -1.0743290     0.0208668     0.0000153
  H        1.6883170    -1.4215870     0.0000640
  H        1.7555780     1.3888440    -0.0000640
  H       -2.1757640    -0.0455290     0.0000210
units angstrom
no_reorient  #important for SAPT in psi4, default
symmetry c1  #important for SAPT in psi4, default
}

set PROPERTIES_ORIGIN ["COM"]
properties('MP2/aug-cc-pvtz', properties = ['dipole'])
--------------------------------------------------------------------------

    Molecular point group: c1
  Charge       = 0
  Multiplicity = 1
  Basis Set: AUG-CC-PVTZ
    Blend: AUG-CC-PVTZ
  Basis Set: (AUG-CC-PVTZ AUX)
    Blend: AUG-CC-PVTZ-JKFIT

    Orbital Energies [Eh]
    ---------------------

    Doubly Occupied:

       1A    -20.656531     2A    -15.572960     3A    -11.344671
       4A    -11.299067     5A    -11.270816     6A     -1.511347
       7A     -1.231553     8A     -1.037366     9A     -0.850863
      10A     -0.819791    11A     -0.759705    12A     -0.673632
      13A     -0.632963    14A     -0.592857    15A     -0.581384
      16A     -0.469948    17A     -0.455516    18A     -0.346320

  @DF-RHF Final Energy:  -244.71790513457643

   => Energetics <=

    Nuclear Repulsion Energy =            163.2632684290724683
    One-Electron Energy =                -655.7477624982938096
    Two-Electron Energy =                 247.7665889346449148
    Total Energy =                       -244.7179051345764265
  Basis Set: (AUG-CC-PVTZ AUX)
    Blend: AUG-CC-PVTZ-RI
    Molecular point group: c1

    Geometry (in Angstrom), charge = 0, multiplicity = 1:

       Center              X                  Y                   Z               Mass
    ------------   -----------------  -----------------  -----------------  -----------------
         O           -0.359722321070    -1.081427025100     0.000023282345    15.994914619570
         N           -0.380922321070     1.164663974900    -0.000043717655    14.003074004430
         C            0.941830678930    -0.650532025100     0.000034282345    12.000000000000
         C            0.932985678930     0.710985974900    -0.000031717655    12.000000000000
         C           -1.060756321070     0.026956774900     0.000015582345    12.000000000000
         H            1.701889678930    -1.415497025100     0.000064282345     1.007825032230
         H            1.769150678930     1.394933974900    -0.000063717655     1.007825032230
         H           -2.162191321070    -0.039439025100     0.000021282345     1.007825032230

  Basis Set: AUG-CC-PVTZ
    Blend: AUG-CC-PVTZ
  Basis Set: (AUG-CC-PVTZ AUX)
    Blend: AUG-CC-PVTZ-JKFIT
	 Reference Energy          =    -244.7179051345764265 [Eh]
	 Singles Energy            =      -0.0000000000000000 [Eh]
	 Same-Spin Energy          =      -0.2506640361150188 [Eh]
	 Opposite-Spin Energy      =      -0.7536978930460394 [Eh]
	 Correlation Energy        =      -1.0043619291610582 [Eh]
	 Total Energy              =    -245.7222670637374904 [Eh]

	 ================> DF-SCS-MP2 Energies <==================
	-----------------------------------------------------------
	 SCS Same-Spin Scale       =       0.3333333333333333 [-]
	 SCS Opposite-Spin Scale   =       1.2000000000000000 [-]
	 SCS Same-Spin Energy      =      -0.0835546787050062 [Eh]
	 SCS Opposite-Spin Energy  =      -0.9044374716552472 [Eh]
	 SCS Correlation Energy    =      -0.9879921503602535 [Eh]
	 SCS Total Energy          =    -245.7058972849366683 [Eh]
	-----------------------------------------------------------

  Dipole Moment: [D]
     X:     0.8433      Y:    -1.5625      Z:     0.0001     Total:     1.7756

*** Psi4 exiting successfully. Buy a developer a beer!
