                               Psi4 1.3.2 release

  ==> Input File <==

--------------------------------------------------------------------------
#psi4
#
memory 32 gb

molecule  {
0 1
  O       -0.3732950    -1.0875170     0.0000230
  N       -0.3944950     1.1585740    -0.0000440
  C        0.8807363    -0.6561013     0.0000339
  C        0.9194130     0.7048960    -0.0000320
  C       -1.1010560     0.0631240     0.0000150
  H        1.6883170    -1.4215870     0.0000640
  H        1.7555780     1.3888440    -0.0000640
  H       -2.1757640    -0.0455290     0.0000210
units angstrom
no_reorient  #important for SAPT in psi4, default
symmetry c1  #important for SAPT in psi4, default
}

set PROPERTIES_ORIGIN ["COM"]
properties('MP2/aug-cc-pvtz', properties = ['dipole'])
--------------------------------------------------------------------------

    Molecular point group: c1
  Charge       = 0
  Multiplicity = 1
  Basis Set: AUG-CC-PVTZ
    Blend: AUG-CC-PVTZ
  Basis Set: (AUG-CC-PVTZ AUX)
    Blend: AUG-CC-PVTZ-JKFIT

    Orbital Energies [Eh]
    ---------------------

    Doubly Occupied:

       1A    -20.653596     2A    -15.576494     3A    -11.340172
       4A    -11.302603     5A    -11.265161     6A     -1.507503
       7A     -1.239370     8A     -1.034321     9A     -0.851389
      10A     -0.820210    11A     -0.757749    12A     -0.671673
      13A     -0.630451    14A     -0.596523    15A     -0.582071
      16A     -0.468722    17A     -0.460480    18A     -0.344073

  @DF-RHF Final Energy:  -244.71805292949040

   => Energetics <=

    Nuclear Repulsion Energy =            163.5162159259178623
    One-Electron Energy =                -656.2634125147928899
    Two-Electron Energy =                 248.0291436593846015
    Total Energy =                       -244.7180529294903977
  Basis Set: (AUG-CC-PVTZ AUX)
    Blend: AUG-CC-PVTZ-RI
    Molecular point group: c1

    Geometry (in Angstrom), charge = 0, multiplicity = 1:

       Center              X                  Y                   Z               Mass
    ------------   -----------------  -----------------  -----------------  -----------------
         O           -0.346813519199    -1.088864346367     0.000023351889    15.994914619570
         N           -0.368013519199     1.157226653633    -0.000043648111    14.003074004430
         C            0.907217780801    -0.657448646367     0.000034251889    12.000000000000
         C            0.945894480801     0.703548653633    -0.000031648111    12.000000000000
         C           -1.074574519199     0.061776653633     0.000015351889    12.000000000000
         H            1.714798480801    -1.422934346367     0.000064351889     1.007825032230
         H            1.782059480801     1.387496653633    -0.000063648111     1.007825032230
         H           -2.149282519199    -0.046876346367     0.000021351889     1.007825032230

  Basis Set: AUG-CC-PVTZ
    Blend: AUG-CC-PVTZ
  Basis Set: (AUG-CC-PVTZ AUX)
    Blend: AUG-CC-PVTZ-JKFIT
	 Reference Energy          =    -244.7180529294903977 [Eh]
	 Singles Energy            =      -0.0000000000000000 [Eh]
	 Same-Spin Energy          =      -0.2508061176022323 [Eh]
	 Opposite-Spin Energy      =      -0.7537700779036549 [Eh]
	 Correlation Energy        =      -1.0045761955058872 [Eh]
	 Total Energy              =    -245.7226291249962742 [Eh]

	 ================> DF-SCS-MP2 Energies <==================
	-----------------------------------------------------------
	 SCS Same-Spin Scale       =       0.3333333333333333 [-]
	 SCS Opposite-Spin Scale   =       1.2000000000000000 [-]
	 SCS Same-Spin Energy      =      -0.0836020392007441 [Eh]
	 SCS Opposite-Spin Energy  =      -0.9045240934843859 [Eh]
	 SCS Correlation Energy    =      -0.9881261326851299 [Eh]
	 SCS Total Energy          =    -245.7061790621755222 [Eh]
	-----------------------------------------------------------

  Dipole Moment: [D]
     X:     0.7274      Y:    -1.4523      Z:     0.0001     Total:     1.6242

*** Psi4 exiting successfully. Buy a developer a beer!
