                               Psi4 1.3.2 release

  ==> Input File <==

--------------------------------------------------------------------------
#psi4
#
memory 32 gb

molecule  {
0 1
  O       -0.4553324    -1.1354801     0.0000275
  N       -0.3944950     1.1585740    -0.0000440
  C        0.9282580    -0.6566220     0.0000340
  C        0.9194130     0.7048960    -0.0000320
  C       -1.1010560     0.0631240     0.0000150
  H        1.6883170    -1.4215870     0.0000640
  H        1.7555780     1.3888440    -0.0000640
  H       -2.1757640    -0.0455290     0.0000210
units angstrom
no_reorient  #important for SAPT in psi4, default
symmetry c1  #important for SAPT in psi4, default
}

set PROPERTIES_ORIGIN ["COM"]
properties('MP2/aug-cc-pvtz', properties = ['dipole'])
--------------------------------------------------------------------------

    Molecular point group: c1
  Charge       = 0
  Multiplicity = 1
  Basis Set: AUG-CC-PVTZ
    Blend: AUG-CC-PVTZ
  Basis Set: (AUG-CC-PVTZ AUX)
    Blend: AUG-CC-PVTZ-JKFIT

    Orbital Energies [Eh]
    ---------------------

    Doubly Occupied:

       1A    -20.646890     2A    -15.575462     3A    -11.347017
       4A    -11.307023     5A    -11.279869     6A     -1.462086
       7A     -1.239137     8A     -1.029719     9A     -0.831318
      10A     -0.829625    11A     -0.744675    12A     -0.646296
      13A     -0.620220    14A     -0.597697    15A     -0.586101
      16A     -0.469560    17A     -0.461861    18A     -0.351892

  @DF-RHF Final Energy:  -244.70925806276341

   => Energetics <=

    Nuclear Repulsion Energy =            160.7100905038667804
    One-Electron Energy =                -650.7858028494740665
    Two-Electron Energy =                 245.3664542828438471
    Total Energy =                       -244.7092580627634106
  Basis Set: (AUG-CC-PVTZ AUX)
    Blend: AUG-CC-PVTZ-RI
    Molecular point group: c1

    Geometry (in Angstrom), charge = 0, multiplicity = 1:

       Center              X                  Y                   Z               Mass
    ------------   -----------------  -----------------  -----------------  -----------------
         O           -0.418101787428    -1.125622032171     0.000026791681    15.994914619570
         N           -0.357264387428     1.168432067829    -0.000044708319    14.003074004430
         C            0.965488612572    -0.646763932171     0.000033291681    12.000000000000
         C            0.956643612572     0.714754067829    -0.000032708319    12.000000000000
         C           -1.063825387428     0.072982067829     0.000014291681    12.000000000000
         H            1.725547612572    -1.411728932171     0.000063291681     1.007825032230
         H            1.792808612572     1.398702067829    -0.000064708319     1.007825032230
         H           -2.138533387428    -0.035670932171     0.000020291681     1.007825032230

  Basis Set: AUG-CC-PVTZ
    Blend: AUG-CC-PVTZ
  Basis Set: (AUG-CC-PVTZ AUX)
    Blend: AUG-CC-PVTZ-JKFIT
	 Reference Energy          =    -244.7092580627634106 [Eh]
	 Singles Energy            =      -0.0000000000000000 [Eh]
	 Same-Spin Energy          =      -0.2506679362290689 [Eh]
	 Opposite-Spin Energy      =      -0.7570982501065761 [Eh]
	 Correlation Energy        =      -1.0077661863356449 [Eh]
	 Total Energy              =    -245.7170242490990688 [Eh]

	 ================> DF-SCS-MP2 Energies <==================
	-----------------------------------------------------------
	 SCS Same-Spin Scale       =       0.3333333333333333 [-]
	 SCS Opposite-Spin Scale   =       1.2000000000000000 [-]
	 SCS Same-Spin Energy      =      -0.0835559787430230 [Eh]
	 SCS Opposite-Spin Energy  =      -0.9085179001278912 [Eh]
	 SCS Correlation Energy    =      -0.9920738788709142 [Eh]
	 SCS Total Energy          =    -245.7013319416343222 [Eh]
	-----------------------------------------------------------

  Dipole Moment: [D]
     X:     0.9709      Y:    -1.2140      Z:     0.0001     Total:     1.5545

*** Psi4 exiting successfully. Buy a developer a beer!
