                               Psi4 1.3.2 release

  ==> Input File <==

--------------------------------------------------------------------------
#psi4
#
memory 32 gb

molecule  {
0 1
  O       -0.3732950    -1.0875170     0.0000230
  N       -0.3944950     1.1585740    -0.0000440
  C        0.9282580    -0.6566220     0.0000340
  C        0.9194130     0.7048960    -0.0000320
  C       -1.1545099     0.1476384     0.0000144
  H        1.6883170    -1.4215870     0.0000640
  H        1.7555780     1.3888440    -0.0000640
  H       -2.1757640    -0.0455290     0.0000210
units angstrom
no_reorient  #important for SAPT in psi4, default
symmetry c1  #important for SAPT in psi4, default
}

set PROPERTIES_ORIGIN ["COM"]
properties('MP2/aug-cc-pvtz', properties = ['dipole'])
--------------------------------------------------------------------------

    Molecular point group: c1
  Charge       = 0
  Multiplicity = 1
  Basis Set: AUG-CC-PVTZ
    Blend: AUG-CC-PVTZ
  Basis Set: (AUG-CC-PVTZ AUX)
    Blend: AUG-CC-PVTZ-JKFIT

    Orbital Energies [Eh]
    ---------------------

    Doubly Occupied:

       1A    -20.629084     2A    -15.580640     3A    -11.341110
       4A    -11.304856     5A    -11.266835     6A     -1.450706
       7A     -1.245033     8A     -1.031813     9A     -0.836065
      10A     -0.830161    11A     -0.743581    12A     -0.639047
      13A     -0.630063    14A     -0.615672    15A     -0.565047
      16A     -0.465315    17A     -0.465234    18A     -0.347830

  @DF-RHF Final Energy:  -244.70938372444493

   => Energetics <=

    Nuclear Repulsion Energy =            161.5631395532206227
    One-Electron Energy =                -652.5688623038947753
    Two-Electron Energy =                 246.2963390262292478
    Total Energy =                       -244.7093837244449333
  Basis Set: (AUG-CC-PVTZ AUX)
    Blend: AUG-CC-PVTZ-RI
    Molecular point group: c1

    Geometry (in Angstrom), charge = 0, multiplicity = 1:

       Center              X                  Y                   Z               Mass
    ------------   -----------------  -----------------  -----------------  -----------------
         O           -0.345782153068    -1.103467403817     0.000023438818    15.994914619570
         N           -0.366982153068     1.142623596183    -0.000043561182    14.003074004430
         C            0.955770846932    -0.672572403817     0.000034438818    12.000000000000
         C            0.946925846932     0.688945596183    -0.000031561182    12.000000000000
         C           -1.126997053068     0.131687996183     0.000014838818    12.000000000000
         H            1.715829846932    -1.437537403817     0.000064438818     1.007825032230
         H            1.783090846932     1.372893596183    -0.000063561182     1.007825032230
         H           -2.148251153068    -0.061479403817     0.000021438818     1.007825032230

  Basis Set: AUG-CC-PVTZ
    Blend: AUG-CC-PVTZ
  Basis Set: (AUG-CC-PVTZ AUX)
    Blend: AUG-CC-PVTZ-JKFIT
	 Reference Energy          =    -244.7093837244449333 [Eh]
	 Singles Energy            =      -0.0000000000000000 [Eh]
	 Same-Spin Energy          =      -0.2508145785080621 [Eh]
	 Opposite-Spin Energy      =      -0.7559766834663925 [Eh]
	 Correlation Energy        =      -1.0067912619744546 [Eh]
	 Total Energy              =    -245.7161749864193894 [Eh]

	 ================> DF-SCS-MP2 Energies <==================
	-----------------------------------------------------------
	 SCS Same-Spin Scale       =       0.3333333333333333 [-]
	 SCS Opposite-Spin Scale   =       1.2000000000000000 [-]
	 SCS Same-Spin Energy      =      -0.0836048595026874 [Eh]
	 SCS Opposite-Spin Energy  =      -0.9071720201596709 [Eh]
	 SCS Correlation Energy    =      -0.9907768796623583 [Eh]
	 SCS Total Energy          =    -245.7001606041072819 [Eh]
	-----------------------------------------------------------

  Dipole Moment: [D]
     X:     0.6477      Y:    -1.1095      Z:     0.0001     Total:     1.2847

*** Psi4 exiting successfully. Buy a developer a beer!
