                               Psi4 1.4a3.dev225

  ==> Input File <==

--------------------------------------------------------------------------
#psi4
#
memory 32 gb

molecule  {
0 1
  O       -0.3732950    -1.0875170     0.0000230
  N       -0.3944950     1.1585740    -0.0000440
  C        0.9282580    -0.6566220     0.0000340
  C        0.9194130     0.7048960    -0.0000320
  C       -1.1010560     0.0631240     0.0000150
  H        1.6883170    -1.4215870     0.0000640
  H        1.7555780     1.3888440    -0.0000640
  H       -2.1956626    -0.0475407     0.0000211
units angstrom
no_reorient  #important for SAPT in psi4, default
symmetry c1  #important for SAPT in psi4, default
}

set PROPERTIES_ORIGIN ["COM"]
properties('MP2/aug-cc-pvtz', properties = ['dipole'])
--------------------------------------------------------------------------

    Molecular point group: c1
  Charge       = 0
  Multiplicity = 1
  Basis Set: AUG-CC-PVTZ
    Blend: AUG-CC-PVTZ
  Basis Set: (AUG-CC-PVTZ AUX)
    Blend: AUG-CC-PVTZ-JKFIT

    Orbital Energies [Eh]
    ---------------------

    Doubly Occupied:

       1A    -20.647818     2A    -15.575568     3A    -11.344790
       4A    -11.301314     5A    -11.269449     6A     -1.488514
       7A     -1.236235     8A     -1.034052     9A     -0.842933
      10A     -0.822292    11A     -0.752452    12A     -0.660756
      13A     -0.628920    14A     -0.595701    15A     -0.582928
      16A     -0.469226    17A     -0.458441    18A     -0.347391

  @DF-RHF Final Energy:  -244.71924878136625

   => Energetics <=

    Nuclear Repulsion Energy =            162.5666175067554491
    One-Electron Energy =                -654.4541739104344060
    Two-Electron Energy =                 247.1683076223127102
    Total Energy =                       -244.7192487813662467
  Basis Set: (AUG-CC-PVTZ AUX)
    Blend: AUG-CC-PVTZ-RI
    Molecular point group: c1

    Geometry (in Angstrom), charge = 0, multiplicity = 1:

       Center              X                  Y                   Z               Mass
    ------------   -----------------  -----------------  -----------------  -----------------
         O           -0.354785040856    -1.088744443931     0.000023333043    15.994914619570
         N           -0.375985040856     1.157346556069    -0.000043666957    14.003074004430
         C            0.946767959144    -0.657849443931     0.000034333043    12.000000000000
         C            0.937922959144     0.703668556069    -0.000031666957    12.000000000000
         C           -1.082546040856     0.061896556069     0.000015333043    12.000000000000
         H            1.706826959144    -1.422814443931     0.000064333043     1.007825032230
         H            1.774087959144     1.387616556069    -0.000063666957     1.007825032230
         H           -2.177152640856    -0.048768143931     0.000021433043     1.007825032230

  Basis Set: AUG-CC-PVTZ
    Blend: AUG-CC-PVTZ
  Basis Set: (AUG-CC-PVTZ AUX)
    Blend: AUG-CC-PVTZ-JKFIT
	 Reference Energy          =    -244.7192487813662467 [Eh]
	 Singles Energy            =      -0.0000000000000000 [Eh]
	 Same-Spin Energy          =      -0.2506416294048932 [Eh]
	 Opposite-Spin Energy      =      -0.7544334678168438 [Eh]
	 Correlation Energy        =      -1.0050750972217370 [Eh]
	 Total Energy              =    -245.7243238785879953 [Eh]

	 ================> DF-SCS-MP2 Energies <==================
	-----------------------------------------------------------
	 SCS Same-Spin Scale       =       0.3333333333333333 [-]
	 SCS Opposite-Spin Scale   =       1.2000000000000000 [-]
	 SCS Same-Spin Energy      =      -0.0835472098016311 [Eh]
	 SCS Opposite-Spin Energy  =      -0.9053201613802125 [Eh]
	 SCS Correlation Energy    =      -0.9888673711818436 [Eh]
	 SCS Total Energy          =    -245.7081161525480866 [Eh]
	-----------------------------------------------------------

  Dipole Moment: [D]
     X:     0.7799      Y:    -1.4194      Z:     0.0001     Total:     1.6196

*** Psi4 exiting successfully. Buy a developer a beer!
