                               Psi4 1.3.2 release

  ==> Input File <==

--------------------------------------------------------------------------
#psi4
#
memory 32 gb

molecule  {
0 1
  O       -0.3732950    -1.0875170     0.0000230
  N       -0.3944950     1.1585740    -0.0000440
  C        0.9282580    -0.6566220     0.0000340
  C        0.9194130     0.7048960    -0.0000320
  C       -1.2094618    -0.1049480     0.0000241
  H        1.6883170    -1.4215870     0.0000640
  H        1.7555780     1.3888440    -0.0000640
  H       -2.1757640    -0.0455290     0.0000210
units angstrom
no_reorient  #important for SAPT in psi4, default
symmetry c1  #important for SAPT in psi4, default
}

set PROPERTIES_ORIGIN ["COM"]
properties('MP2/aug-cc-pvtz', properties = ['dipole'])
--------------------------------------------------------------------------

    Molecular point group: c1
  Charge       = 0
  Multiplicity = 1
  Basis Set: AUG-CC-PVTZ
    Blend: AUG-CC-PVTZ
  Basis Set: (AUG-CC-PVTZ AUX)
    Blend: AUG-CC-PVTZ-JKFIT

    Orbital Energies [Eh]
    ---------------------

    Doubly Occupied:

       1A    -20.669824     2A    -15.577725     3A    -11.354688
       4A    -11.298362     5A    -11.271256     6A     -1.515234
       7A     -1.180651     8A     -1.045973     9A     -0.856659
      10A     -0.831709    11A     -0.769258    12A     -0.672754
      13A     -0.666933    14A     -0.599886    15A     -0.559117
      16A     -0.444236    17A     -0.435139    18A     -0.330550

  @DF-RHF Final Energy:  -244.66173886000820

   => Energetics <=

    Nuclear Repulsion Energy =            160.8657697756514153
    One-Electron Energy =                -650.8951110683111665
    Two-Electron Energy =                 245.3676024326515517
    Total Energy =                       -244.6617388600081995
  Basis Set: (AUG-CC-PVTZ AUX)
    Blend: AUG-CC-PVTZ-RI
    Molecular point group: c1

    Geometry (in Angstrom), charge = 0, multiplicity = 1:

       Center              X                  Y                   Z               Mass
    ------------   -----------------  -----------------  -----------------  -----------------
         O           -0.336228272805    -1.059552994637     0.000021752387    15.994914619570
         N           -0.357428272805     1.186538005363    -0.000045247613    14.003074004430
         C            0.965324727195    -0.628657994637     0.000032752387    12.000000000000
         C            0.956479727195     0.732860005363    -0.000033247613    12.000000000000
         C           -1.172395072805    -0.076983994637     0.000022852387    12.000000000000
         H            1.725383727195    -1.393622994637     0.000062752387     1.007825032230
         H            1.792644727195     1.416808005363    -0.000065247613     1.007825032230
         H           -2.138697272805    -0.017564994637     0.000019752387     1.007825032230

  Basis Set: AUG-CC-PVTZ
    Blend: AUG-CC-PVTZ
  Basis Set: (AUG-CC-PVTZ AUX)
    Blend: AUG-CC-PVTZ-JKFIT
	 Reference Energy          =    -244.6617388600081995 [Eh]
	 Singles Energy            =      -0.0000000000000000 [Eh]
	 Same-Spin Energy          =      -0.2552226040632548 [Eh]
	 Opposite-Spin Energy      =      -0.7623019566867703 [Eh]
	 Correlation Energy        =      -1.0175245607500250 [Eh]
	 Total Energy              =    -245.6792634207582182 [Eh]

	 ================> DF-SCS-MP2 Energies <==================
	-----------------------------------------------------------
	 SCS Same-Spin Scale       =       0.3333333333333333 [-]
	 SCS Opposite-Spin Scale   =       1.2000000000000000 [-]
	 SCS Same-Spin Energy      =      -0.0850742013544183 [Eh]
	 SCS Opposite-Spin Energy  =      -0.9147623480241243 [Eh]
	 SCS Correlation Energy    =      -0.9998365493785425 [Eh]
	 SCS Total Energy          =    -245.6615754093867281 [Eh]
	-----------------------------------------------------------

  Dipole Moment: [D]
     X:     0.9146      Y:    -1.9004      Z:     0.0001     Total:     2.1090

*** Psi4 exiting successfully. Buy a developer a beer!
