                               Psi4 1.3.2 release

  ==> Input File <==

--------------------------------------------------------------------------
#psi4
#
memory 32 gb

molecule  {
0 1
  O       -0.3732950    -1.0875170     0.0000230
  N       -0.3754844     1.1460760    -0.0000433
  C        0.9282580    -0.6566220     0.0000340
  C        0.9194130     0.7048960    -0.0000320
  C       -1.1010560     0.0631240     0.0000150
  H        1.6883170    -1.4215870     0.0000640
  H        1.7555780     1.3888440    -0.0000640
  H       -2.1757640    -0.0455290     0.0000210
units angstrom
no_reorient  #important for SAPT in psi4, default
symmetry c1  #important for SAPT in psi4, default
}

set PROPERTIES_ORIGIN ["COM"]
properties('MP2/aug-cc-pvtz', properties = ['dipole'])
--------------------------------------------------------------------------

    Molecular point group: c1
  Charge       = 0
  Multiplicity = 1
  Basis Set: AUG-CC-PVTZ
    Blend: AUG-CC-PVTZ
  Basis Set: (AUG-CC-PVTZ AUX)
    Blend: AUG-CC-PVTZ-JKFIT

    Orbital Energies [Eh]
    ---------------------

    Doubly Occupied:

       1A    -20.647745     2A    -15.572853     3A    -11.342080
       4A    -11.300156     5A    -11.267250     6A     -1.488999
       7A     -1.240368     8A     -1.034660     9A     -0.842227
      10A     -0.827579    11A     -0.754552    12A     -0.660987
      13A     -0.629860    14A     -0.602417    15A     -0.582935
      16A     -0.466243    17A     -0.460760    18A     -0.345330

  @DF-RHF Final Energy:  -244.71980974880927

   => Energetics <=

    Nuclear Repulsion Energy =            163.1040793641714401
    One-Electron Energy =                -655.5137788882630048
    Two-Electron Energy =                 247.6898897752823245
    Total Energy =                       -244.7198097488092685
  Basis Set: (AUG-CC-PVTZ AUX)
    Blend: AUG-CC-PVTZ-RI
    Molecular point group: c1

    Geometry (in Angstrom), charge = 0, multiplicity = 1:

       Center              X                  Y                   Z               Mass
    ------------   -----------------  -----------------  -----------------  -----------------
         O           -0.358932462983    -1.086238223866     0.000023192487    15.994914619570
         N           -0.361121862983     1.147354776134    -0.000043107513    14.003074004430
         C            0.942620537017    -0.655343223866     0.000034192487    12.000000000000
         C            0.933775537017     0.706174776134    -0.000031807513    12.000000000000
         C           -1.086693462983     0.064402776134     0.000015192487    12.000000000000
         H            1.702679537017    -1.420308223866     0.000064192487     1.007825032230
         H            1.769940537017     1.390122776134    -0.000063807513     1.007825032230
         H           -2.161401462983    -0.044250223866     0.000021192487     1.007825032230

  Basis Set: AUG-CC-PVTZ
    Blend: AUG-CC-PVTZ
  Basis Set: (AUG-CC-PVTZ AUX)
    Blend: AUG-CC-PVTZ-JKFIT
	 Reference Energy          =    -244.7198097488092685 [Eh]
	 Singles Energy            =      -0.0000000000000000 [Eh]
	 Same-Spin Energy          =      -0.2508736052193066 [Eh]
	 Opposite-Spin Energy      =      -0.7541139344497146 [Eh]
	 Correlation Energy        =      -1.0049875396690213 [Eh]
	 Total Energy              =    -245.7247972884782996 [Eh]

	 ================> DF-SCS-MP2 Energies <==================
	-----------------------------------------------------------
	 SCS Same-Spin Scale       =       0.3333333333333333 [-]
	 SCS Opposite-Spin Scale   =       1.2000000000000000 [-]
	 SCS Same-Spin Energy      =      -0.0836245350731022 [Eh]
	 SCS Opposite-Spin Energy  =      -0.9049367213396575 [Eh]
	 SCS Correlation Energy    =      -0.9885612564127597 [Eh]
	 SCS Total Energy          =    -245.7083710052220340 [Eh]
	-----------------------------------------------------------

  Dipole Moment: [D]
     X:     0.7579      Y:    -1.3955      Z:     0.0001     Total:     1.5880

*** Psi4 exiting successfully. Buy a developer a beer!
