                               Psi4 1.3.2 release

  ==> Input File <==

--------------------------------------------------------------------------
#psi4
#
memory 32 gb

molecule  {
0 1
  O       -0.3732950    -1.0875170     0.0000230
  N       -0.3944950     1.1585740    -0.0000440
  C        0.9282580    -0.6566220     0.0000340
  C        1.1084607     0.6396199    -0.0000303
  C       -1.1010560     0.0631240     0.0000150
  H        1.6883170    -1.4215870     0.0000640
  H        1.7555780     1.3888440    -0.0000640
  H       -2.1757640    -0.0455290     0.0000210
units angstrom
no_reorient  #important for SAPT in psi4, default
symmetry c1  #important for SAPT in psi4, default
}

set PROPERTIES_ORIGIN ["COM"]
properties('MP2/aug-cc-pvtz', properties = ['dipole'])
--------------------------------------------------------------------------

    Molecular point group: c1
  Charge       = 0
  Multiplicity = 1
  Basis Set: AUG-CC-PVTZ
    Blend: AUG-CC-PVTZ
  Basis Set: (AUG-CC-PVTZ AUX)
    Blend: AUG-CC-PVTZ-JKFIT

    Orbital Energies [Eh]
    ---------------------

    Doubly Occupied:

       1A    -20.642990     2A    -15.577305     3A    -11.340831
       4A    -11.308188     5A    -11.270236     6A     -1.482712
       7A     -1.192532     8A     -1.052926     9A     -0.858029
      10A     -0.809028    11A     -0.755964    12A     -0.657485
      13A     -0.635173    14A     -0.616155    15A     -0.563156
      16A     -0.443572    17A     -0.433772    18A     -0.374965

  @DF-RHF Final Energy:  -244.68797844025562

   => Energetics <=

    Nuclear Repulsion Energy =            160.5375263600814719
    One-Electron Energy =                -650.4209745281108326
    Two-Electron Energy =                 245.1954697277737409
    Total Energy =                       -244.6879784402556197
  Basis Set: (AUG-CC-PVTZ AUX)
    Blend: AUG-CC-PVTZ-RI
    Molecular point group: c1

    Geometry (in Angstrom), charge = 0, multiplicity = 1:

       Center              X                  Y                   Z               Mass
    ------------   -----------------  -----------------  -----------------  -----------------
         O           -0.387943229394    -1.077424983052     0.000023038943    15.994914619570
         N           -0.409143229394     1.168666016948    -0.000043961057    14.003074004430
         C            0.913609770606    -0.646529983052     0.000034038943    12.000000000000
         C            1.093812470606     0.649711916948    -0.000030261057    12.000000000000
         C           -1.115704229394     0.073216016948     0.000015038943    12.000000000000
         H            1.673668770606    -1.411494983052     0.000064038943     1.007825032230
         H            1.740929770606     1.398936016948    -0.000063961057     1.007825032230
         H           -2.190412229394    -0.035436983052     0.000021038943     1.007825032230

  Basis Set: AUG-CC-PVTZ
    Blend: AUG-CC-PVTZ
  Basis Set: (AUG-CC-PVTZ AUX)
    Blend: AUG-CC-PVTZ-JKFIT
	 Reference Energy          =    -244.6879784402556197 [Eh]
	 Singles Energy            =      -0.0000000000000000 [Eh]
	 Same-Spin Energy          =      -0.2488552346076836 [Eh]
	 Opposite-Spin Energy      =      -0.7560897239441643 [Eh]
	 Correlation Energy        =      -1.0049449585518480 [Eh]
	 Total Energy              =    -245.6929233988074657 [Eh]

	 ================> DF-SCS-MP2 Energies <==================
	-----------------------------------------------------------
	 SCS Same-Spin Scale       =       0.3333333333333333 [-]
	 SCS Opposite-Spin Scale   =       1.2000000000000000 [-]
	 SCS Same-Spin Energy      =      -0.0829517448692279 [Eh]
	 SCS Opposite-Spin Energy  =      -0.9073076687329971 [Eh]
	 SCS Correlation Energy    =      -0.9902594136022249 [Eh]
	 SCS Total Energy          =    -245.6782378538578371 [Eh]
	-----------------------------------------------------------

  Dipole Moment: [D]
     X:     0.8590      Y:    -1.3829      Z:     0.0001     Total:     1.6279

*** Psi4 exiting successfully. Buy a developer a beer!
