                               Psi4 1.3.2 release

  ==> Input File <==

--------------------------------------------------------------------------
#psi4
#
memory 32 gb

molecule  {
0 1
  O       -0.3732950    -1.0875170     0.0000230
  N       -0.3944950     1.1585740    -0.0000440
  C        0.9282580    -0.6566220     0.0000340
  C        0.8647930     0.5700405    -0.0000250
  C       -1.1010560     0.0631240     0.0000150
  H        1.6883170    -1.4215870     0.0000640
  H        1.7555780     1.3888440    -0.0000640
  H       -2.1757640    -0.0455290     0.0000210
units angstrom
no_reorient  #important for SAPT in psi4, default
symmetry c1  #important for SAPT in psi4, default
}

set PROPERTIES_ORIGIN ["COM"]
properties('MP2/aug-cc-pvtz', properties = ['dipole'])
--------------------------------------------------------------------------

    Molecular point group: c1
  Charge       = 0
  Multiplicity = 1
  Basis Set: AUG-CC-PVTZ
    Blend: AUG-CC-PVTZ
  Basis Set: (AUG-CC-PVTZ AUX)
    Blend: AUG-CC-PVTZ-JKFIT

    Orbital Energies [Eh]
    ---------------------

    Doubly Occupied:

       1A    -20.638761     2A    -15.575984     3A    -11.346659
       4A    -11.279552     5A    -11.257872     6A     -1.493768
       7A     -1.240707     8A     -1.061838     9A     -0.851507
      10A     -0.815871    11A     -0.750975    12A     -0.667884
      13A     -0.629898    14A     -0.593830    15A     -0.537710
      16A     -0.484213    17A     -0.460379    18A     -0.373667

  @DF-RHF Final Energy:  -244.68897413236593

   => Energetics <=

    Nuclear Repulsion Energy =            165.1425714088582595
    One-Electron Energy =                -659.5409360707325277
    Two-Electron Energy =                 249.7093905295083403
    Total Energy =                       -244.6889741323659280
  Basis Set: (AUG-CC-PVTZ AUX)
    Blend: AUG-CC-PVTZ-RI
    Molecular point group: c1

    Geometry (in Angstrom), charge = 0, multiplicity = 1:

       Center              X                  Y                   Z               Mass
    ------------   -----------------  -----------------  -----------------  -----------------
         O           -0.345579416133    -1.065327980830     0.000022117490    15.994914619570
         N           -0.366779416133     1.180763019170    -0.000044882510    14.003074004430
         C            0.955973583867    -0.634432980830     0.000033117490    12.000000000000
         C            0.892508583867     0.592229519170    -0.000025882510    12.000000000000
         C           -1.073340416133     0.085313019170     0.000014117490    12.000000000000
         H            1.716032583867    -1.399397980830     0.000063117490     1.007825032230
         H            1.783293583867     1.411033019170    -0.000064882510     1.007825032230
         H           -2.148048416133    -0.023339980830     0.000020117490     1.007825032230

  Basis Set: AUG-CC-PVTZ
    Blend: AUG-CC-PVTZ
  Basis Set: (AUG-CC-PVTZ AUX)
    Blend: AUG-CC-PVTZ-JKFIT
	 Reference Energy          =    -244.6889741323659280 [Eh]
	 Singles Energy            =      -0.0000000000000000 [Eh]
	 Same-Spin Energy          =      -0.2493050971220263 [Eh]
	 Opposite-Spin Energy      =      -0.7517286033602311 [Eh]
	 Correlation Energy        =      -1.0010337004822574 [Eh]
	 Total Energy              =    -245.6900078328481811 [Eh]

	 ================> DF-SCS-MP2 Energies <==================
	-----------------------------------------------------------
	 SCS Same-Spin Scale       =       0.3333333333333333 [-]
	 SCS Opposite-Spin Scale   =       1.2000000000000000 [-]
	 SCS Same-Spin Energy      =      -0.0831016990406754 [Eh]
	 SCS Opposite-Spin Energy  =      -0.9020743240322773 [Eh]
	 SCS Correlation Energy    =      -0.9851760230729527 [Eh]
	 SCS Total Energy          =    -245.6741501554388947 [Eh]
	-----------------------------------------------------------

  Dipole Moment: [D]
     X:     0.6474      Y:    -1.4927      Z:     0.0001     Total:     1.6270

*** Psi4 exiting successfully. Buy a developer a beer!
