                               Psi4 1.4a3.dev225

  ==> Input File <==

--------------------------------------------------------------------------
#psi4
#
memory 32 gb

molecule  {
0 1
  O       -0.3732950    -1.0875170     0.0000230
  N       -0.3944950     1.1585740    -0.0000440
  C        0.9282580    -0.6566220     0.0000340
  C        0.9194130     0.7048960    -0.0000320
  C       -1.1277830     0.1053812     0.0000147
  H        1.6883170    -1.4215870     0.0000640
  H        1.7555780     1.3888440    -0.0000640
  H       -2.1757640    -0.0455290     0.0000210
units angstrom
no_reorient  #important for SAPT in psi4, default
symmetry c1  #important for SAPT in psi4, default
}

set PROPERTIES_ORIGIN ["COM"]
properties('MP2/aug-cc-pvtz', properties = ['dipole'])
--------------------------------------------------------------------------

    Molecular point group: c1
  Charge       = 0
  Multiplicity = 1
  Basis Set: AUG-CC-PVTZ
    Blend: AUG-CC-PVTZ
  Basis Set: (AUG-CC-PVTZ AUX)
    Blend: AUG-CC-PVTZ-JKFIT

    Orbital Energies [Eh]
    ---------------------

    Doubly Occupied:

       1A    -20.638594     2A    -15.578033     3A    -11.341532
       4A    -11.303241     5A    -11.268046     6A     -1.468370
       7A     -1.240694     8A     -1.033010     9A     -0.837588
      10A     -0.828530    11A     -0.748499    12A     -0.649240
      13A     -0.628126    14A     -0.609500    15A     -0.574170
      16A     -0.467750    17A     -0.461696    18A     -0.347875

  @DF-RHF Final Energy:  -244.71671016789327

   => Energetics <=

    Nuclear Repulsion Energy =            162.0992533670637386
    One-Electron Energy =                -653.5829412078004452
    Two-Electron Energy =                 246.7669776728434385
    Total Energy =                       -244.7167101678932681
  Basis Set: (AUG-CC-PVTZ AUX)
    Blend: AUG-CC-PVTZ-RI
    Molecular point group: c1

    Geometry (in Angstrom), charge = 0, multiplicity = 1:

       Center              X                  Y                   Z               Mass
    ------------   -----------------  -----------------  -----------------  -----------------
         O           -0.350428864145    -1.096120610911     0.000023386661    15.994914619570
         N           -0.371628864145     1.149970389089    -0.000043613339    14.003074004430
         C            0.951124135855    -0.665225610911     0.000034386661    12.000000000000
         C            0.942279135855     0.696292389089    -0.000031613339    12.000000000000
         C           -1.104916864145     0.096777589089     0.000015086661    12.000000000000
         H            1.711183135855    -1.430190610911     0.000064386661     1.007825032230
         H            1.778444135855     1.380240389089    -0.000063613339     1.007825032230
         H           -2.152897864145    -0.054132610911     0.000021386661     1.007825032230

  Basis Set: AUG-CC-PVTZ
    Blend: AUG-CC-PVTZ
  Basis Set: (AUG-CC-PVTZ AUX)
    Blend: AUG-CC-PVTZ-JKFIT
	 Reference Energy          =    -244.7167101678932681 [Eh]
	 Singles Energy            =      -0.0000000000000000 [Eh]
	 Same-Spin Energy          =      -0.2506373825019151 [Eh]
	 Opposite-Spin Energy      =      -0.7550717307852803 [Eh]
	 Correlation Energy        =      -1.0057091132871956 [Eh]
	 Total Energy              =    -245.7224192811804642 [Eh]

	 ================> DF-SCS-MP2 Energies <==================
	-----------------------------------------------------------
	 SCS Same-Spin Scale       =       0.3333333333333333 [-]
	 SCS Opposite-Spin Scale   =       1.2000000000000000 [-]
	 SCS Same-Spin Energy      =      -0.0835457941673050 [Eh]
	 SCS Opposite-Spin Energy  =      -0.9060860769423363 [Eh]
	 SCS Correlation Energy    =      -0.9896318711096413 [Eh]
	 SCS Total Energy          =    -245.7063420390029194 [Eh]
	-----------------------------------------------------------

  Dipole Moment: [D]
     X:     0.7194      Y:    -1.2697      Z:     0.0001     Total:     1.4593

*** Psi4 exiting successfully. Buy a developer a beer!
