                               Psi4 1.3.2 release

  ==> Input File <==

--------------------------------------------------------------------------
#psi4
#
memory 32 gb

molecule  {
0 1
  O       -0.3732950    -1.0875170     0.0000230
  N       -0.3944950     1.1585740    -0.0000440
  C        0.7383924    -0.7194793     0.0000324
  C        0.9194130     0.7048960    -0.0000320
  C       -1.1010560     0.0631240     0.0000150
  H        1.6883170    -1.4215870     0.0000640
  H        1.7555780     1.3888440    -0.0000640
  H       -2.1757640    -0.0455290     0.0000210
units angstrom
no_reorient  #important for SAPT in psi4, default
symmetry c1  #important for SAPT in psi4, default
}

set PROPERTIES_ORIGIN ["COM"]
properties('MP2/aug-cc-pvtz', properties = ['dipole'])
--------------------------------------------------------------------------

    Molecular point group: c1
  Charge       = 0
  Multiplicity = 1
  Basis Set: AUG-CC-PVTZ
    Blend: AUG-CC-PVTZ
  Basis Set: (AUG-CC-PVTZ AUX)
    Blend: AUG-CC-PVTZ-JKFIT

    Orbital Energies [Eh]
    ---------------------

    Doubly Occupied:

       1A    -20.677067     2A    -15.583234     3A    -11.328959
       4A    -11.317500     5A    -11.259048     6A     -1.591809
       7A     -1.249391     8A     -1.032278     9A     -0.878494
      10A     -0.815989    11A     -0.774810    12A     -0.719447
      13A     -0.662158    14A     -0.592016    15A     -0.547935
      16A     -0.468588    17A     -0.465042    18A     -0.320172

  @DF-RHF Final Energy:  -244.66645643078147

   => Energetics <=

    Nuclear Repulsion Energy =            165.7425181206123739
    One-Electron Energy =                -660.2500719045779078
    Two-Electron Energy =                 249.8410973531840682
    Total Energy =                       -244.6664564307814658
  Basis Set: (AUG-CC-PVTZ AUX)
    Blend: AUG-CC-PVTZ-RI
    Molecular point group: c1

    Geometry (in Angstrom), charge = 0, multiplicity = 1:

       Center              X                  Y                   Z               Mass
    ------------   -----------------  -----------------  -----------------  -----------------
         O           -0.322065756577    -1.077845513108     0.000023612677    15.994914619570
         N           -0.343265756577     1.168245486892    -0.000043387323    14.003074004430
         C            0.789621643423    -0.709807813108     0.000033012677    12.000000000000
         C            0.970642243423     0.714567486892    -0.000031387323    12.000000000000
         C           -1.049826756577     0.072795486892     0.000015612677    12.000000000000
         H            1.739546243423    -1.411915513108     0.000064612677     1.007825032230
         H            1.806807243423     1.398515486892    -0.000063387323     1.007825032230
         H           -2.124534756577    -0.035857513108     0.000021612677     1.007825032230

  Basis Set: AUG-CC-PVTZ
    Blend: AUG-CC-PVTZ
  Basis Set: (AUG-CC-PVTZ AUX)
    Blend: AUG-CC-PVTZ-JKFIT
	 Reference Energy          =    -244.6664564307814658 [Eh]
	 Singles Energy            =      -0.0000000000000000 [Eh]
	 Same-Spin Energy          =      -0.2526121795173918 [Eh]
	 Opposite-Spin Energy      =      -0.7538021839695668 [Eh]
	 Correlation Energy        =      -1.0064143634869587 [Eh]
	 Total Energy              =    -245.6728707942684196 [Eh]

	 ================> DF-SCS-MP2 Energies <==================
	-----------------------------------------------------------
	 SCS Same-Spin Scale       =       0.3333333333333333 [-]
	 SCS Opposite-Spin Scale   =       1.2000000000000000 [-]
	 SCS Same-Spin Energy      =      -0.0842040598391306 [Eh]
	 SCS Opposite-Spin Energy  =      -0.9045626207634800 [Eh]
	 SCS Correlation Energy    =      -0.9887666806026106 [Eh]
	 SCS Total Energy          =    -245.6552231113840890 [Eh]
	-----------------------------------------------------------

  Dipole Moment: [D]
     X:     0.4989      Y:    -1.6855      Z:     0.0001     Total:     1.7578

*** Psi4 exiting successfully. Buy a developer a beer!
