                               Psi4 1.3.2 release

  ==> Input File <==

--------------------------------------------------------------------------
#psi4
#
memory 32 gb

molecule  {
0 1
  O       -0.3732950    -1.0875170     0.0000230
  N       -0.4095277     1.1124429    -0.0000420
  C        0.9282580    -0.6566220     0.0000340
  C        0.9194130     0.7048960    -0.0000320
  C       -1.1010560     0.0631240     0.0000150
  H        1.6883170    -1.4215870     0.0000640
  H        1.7555780     1.3888440    -0.0000640
  H       -2.1757640    -0.0455290     0.0000210
units angstrom
no_reorient  #important for SAPT in psi4, default
symmetry c1  #important for SAPT in psi4, default
}

set PROPERTIES_ORIGIN ["COM"]
properties('MP2/aug-cc-pvtz', properties = ['dipole'])
--------------------------------------------------------------------------

    Molecular point group: c1
  Charge       = 0
  Multiplicity = 1
  Basis Set: AUG-CC-PVTZ
    Blend: AUG-CC-PVTZ
  Basis Set: (AUG-CC-PVTZ AUX)
    Blend: AUG-CC-PVTZ-JKFIT

    Orbital Energies [Eh]
    ---------------------

    Doubly Occupied:

       1A    -20.641141     2A    -15.567187     3A    -11.333252
       4A    -11.302082     5A    -11.269058     6A     -1.488068
       7A     -1.246308     8A     -1.038101     9A     -0.844935
      10A     -0.822089    11A     -0.753603    12A     -0.661429
      13A     -0.629495    14A     -0.607257    15A     -0.580204
      16A     -0.462349    17A     -0.462345    18A     -0.351023

  @DF-RHF Final Energy:  -244.72190006972943

   => Energetics <=

    Nuclear Repulsion Energy =            163.7235692186722531
    One-Electron Energy =                -656.7710856306799769
    Two-Electron Energy =                 248.3256163422782947
    Total Energy =                       -244.7219000697294291
  Basis Set: (AUG-CC-PVTZ AUX)
    Blend: AUG-CC-PVTZ-RI
    Molecular point group: c1

    Geometry (in Angstrom), charge = 0, multiplicity = 1:

       Center              X                  Y                   Z               Mass
    ------------   -----------------  -----------------  -----------------  -----------------
         O           -0.352025758553    -1.079414740808     0.000022928743    15.994914619570
         N           -0.388258458553     1.120545159192    -0.000042071257    14.003074004430
         C            0.949527241447    -0.648519740808     0.000033928743    12.000000000000
         C            0.940682241447     0.712998259192    -0.000032071257    12.000000000000
         C           -1.079786758553     0.071226259192     0.000014928743    12.000000000000
         H            1.709586241447    -1.413484740808     0.000063928743     1.007825032230
         H            1.776847241447     1.396946259192    -0.000064071257     1.007825032230
         H           -2.154494758553    -0.037426740808     0.000020928743     1.007825032230

  Basis Set: AUG-CC-PVTZ
    Blend: AUG-CC-PVTZ
  Basis Set: (AUG-CC-PVTZ AUX)
    Blend: AUG-CC-PVTZ-JKFIT
	 Reference Energy          =    -244.7219000697294291 [Eh]
	 Singles Energy            =      -0.0000000000000000 [Eh]
	 Same-Spin Energy          =      -0.2495228529252323 [Eh]
	 Opposite-Spin Energy      =      -0.7518777076340937 [Eh]
	 Correlation Energy        =      -1.0014005605593259 [Eh]
	 Total Energy              =    -245.7233006302887475 [Eh]

	 ================> DF-SCS-MP2 Energies <==================
	-----------------------------------------------------------
	 SCS Same-Spin Scale       =       0.3333333333333333 [-]
	 SCS Opposite-Spin Scale   =       1.2000000000000000 [-]
	 SCS Same-Spin Energy      =      -0.0831742843084108 [Eh]
	 SCS Opposite-Spin Energy  =      -0.9022532491609123 [Eh]
	 SCS Correlation Energy    =      -0.9854275334693231 [Eh]
	 SCS Total Energy          =    -245.7073276031987632 [Eh]
	-----------------------------------------------------------

  Dipole Moment: [D]
     X:     0.8010      Y:    -1.2997      Z:     0.0001     Total:     1.5267

*** Psi4 exiting successfully. Buy a developer a beer!
