                               Psi4 1.3.2 release

  ==> Input File <==

--------------------------------------------------------------------------
#psi4
#
memory 32 gb

molecule  {
0 1
  O       -0.3806169    -1.0647361     0.0000224
  N       -0.3944950     1.1585740    -0.0000440
  C        0.9282580    -0.6566220     0.0000340
  C        0.9194130     0.7048960    -0.0000320
  C       -1.1010560     0.0631240     0.0000150
  H        1.6883170    -1.4215870     0.0000640
  H        1.7555780     1.3888440    -0.0000640
  H       -2.1757640    -0.0455290     0.0000210
units angstrom
no_reorient  #important for SAPT in psi4, default
symmetry c1  #important for SAPT in psi4, default
}

set PROPERTIES_ORIGIN ["COM"]
properties('MP2/aug-cc-pvtz', properties = ['dipole'])
--------------------------------------------------------------------------

    Molecular point group: c1
  Charge       = 0
  Multiplicity = 1
  Basis Set: AUG-CC-PVTZ
    Blend: AUG-CC-PVTZ
  Basis Set: (AUG-CC-PVTZ AUX)
    Blend: AUG-CC-PVTZ-JKFIT

    Orbital Energies [Eh]
    ---------------------

    Doubly Occupied:

       1A    -20.648003     2A    -15.572091     3A    -11.340651
       4A    -11.300561     5A    -11.269330     6A     -1.496996
       7A     -1.233721     8A     -1.038177     9A     -0.846565
      10A     -0.822465    11A     -0.756396    12A     -0.665423
      13A     -0.634387    14A     -0.596581    15A     -0.581610
      16A     -0.466977    17A     -0.455989    18A     -0.348090

  @DF-RHF Final Energy:  -244.72117411220273

   => Energetics <=

    Nuclear Repulsion Energy =            163.2070699968769816
    One-Electron Energy =                -655.7084602147281203
    Two-Electron Energy =                 247.7802161056484351
    Total Energy =                       -244.7211741122027320
  Basis Set: (AUG-CC-PVTZ AUX)
    Blend: AUG-CC-PVTZ-RI
    Molecular point group: c1

    Geometry (in Angstrom), charge = 0, multiplicity = 1:

       Center              X                  Y                   Z               Mass
    ------------   -----------------  -----------------  -----------------  -----------------
         O           -0.360700728166    -1.071272124368     0.000022873546    15.994914619570
         N           -0.374578828166     1.152037975632    -0.000043526454    14.003074004430
         C            0.948174171834    -0.663158024368     0.000034473546    12.000000000000
         C            0.939329171834     0.698359975632    -0.000031526454    12.000000000000
         C           -1.081139828166     0.056587975632     0.000015473546    12.000000000000
         H            1.708233171834    -1.428123024368     0.000064473546     1.007825032230
         H            1.775494171834     1.382307975632    -0.000063526454     1.007825032230
         H           -2.155847828166    -0.052065024368     0.000021473546     1.007825032230

  Basis Set: AUG-CC-PVTZ
    Blend: AUG-CC-PVTZ
  Basis Set: (AUG-CC-PVTZ AUX)
    Blend: AUG-CC-PVTZ-JKFIT
	 Reference Energy          =    -244.7211741122027320 [Eh]
	 Singles Energy            =      -0.0000000000000000 [Eh]
	 Same-Spin Energy          =      -0.2503532794981755 [Eh]
	 Opposite-Spin Energy      =      -0.7532714263165872 [Eh]
	 Correlation Energy        =      -1.0036247058147627 [Eh]
	 Total Energy              =    -245.7247988180174900 [Eh]

	 ================> DF-SCS-MP2 Energies <==================
	-----------------------------------------------------------
	 SCS Same-Spin Scale       =       0.3333333333333333 [-]
	 SCS Opposite-Spin Scale   =       1.2000000000000000 [-]
	 SCS Same-Spin Energy      =      -0.0834510931660585 [Eh]
	 SCS Opposite-Spin Energy  =      -0.9039257115799045 [Eh]
	 SCS Correlation Energy    =      -0.9873768047459630 [Eh]
	 SCS Total Energy          =    -245.7085509169486954 [Eh]
	-----------------------------------------------------------

  Dipole Moment: [D]
     X:     0.7977      Y:    -1.5026      Z:     0.0001     Total:     1.7012

*** Psi4 exiting successfully. Buy a developer a beer!
