                               Psi4 1.4a3.dev225

  ==> Input File <==

--------------------------------------------------------------------------
#psi4
#
memory 32 gb

molecule  {
0 1
  O       -0.3732950    -1.0875170     0.0000230
  N       -0.3944950     1.1585740    -0.0000440
  C        0.9282580    -0.6566220     0.0000340
  C        0.9194130     0.7048960    -0.0000320
  C       -1.0903652     0.0462211     0.0000151
  H        1.6883170    -1.4215870     0.0000640
  H        1.7555780     1.3888440    -0.0000640
  H       -2.1757640    -0.0455290     0.0000210
units angstrom
no_reorient  #important for SAPT in psi4, default
symmetry c1  #important for SAPT in psi4, default
}

set PROPERTIES_ORIGIN ["COM"]
properties('MP2/aug-cc-pvtz', properties = ['dipole'])
--------------------------------------------------------------------------

    Molecular point group: c1
  Charge       = 0
  Multiplicity = 1
  Basis Set: AUG-CC-PVTZ
    Blend: AUG-CC-PVTZ
  Basis Set: (AUG-CC-PVTZ AUX)
    Blend: AUG-CC-PVTZ-JKFIT

    Orbital Energies [Eh]
    ---------------------

    Doubly Occupied:

       1A    -20.651247     2A    -15.574516     3A    -11.343437
       4A    -11.300446     5A    -11.269931     6A     -1.497246
       7A     -1.234323     8A     -1.035736     9A     -0.846292
      10A     -0.822399    11A     -0.756139    12A     -0.665670
      13A     -0.631315    14A     -0.592650    15A     -0.585562
      16A     -0.469638    17A     -0.457153    18A     -0.347040

  @DF-RHF Final Energy:  -244.71978221949323

   => Energetics <=

    Nuclear Repulsion Energy =            162.8983733291870237
    One-Electron Energy =                -655.0748322492069065
    Two-Electron Energy =                 247.4566767005266286
    Total Energy =                       -244.7197822194932257
  Basis Set: (AUG-CC-PVTZ AUX)
    Blend: AUG-CC-PVTZ-RI
    Molecular point group: c1

    Geometry (in Angstrom), charge = 0, multiplicity = 1:

       Center              X                  Y                   Z               Mass
    ------------   -----------------  -----------------  -----------------  -----------------
         O           -0.356934283993    -1.085835097366     0.000023317117    15.994914619570
         N           -0.378134283993     1.160255902634    -0.000043682883    14.003074004430
         C            0.944618716007    -0.654940097366     0.000034317117    12.000000000000
         C            0.935773716007     0.706577902634    -0.000031682883    12.000000000000
         C           -1.074004483993     0.047903002634     0.000015417117    12.000000000000
         H            1.704677716007    -1.419905097366     0.000064317117     1.007825032230
         H            1.771938716007     1.390525902634    -0.000063682883     1.007825032230
         H           -2.159403283993    -0.043847097366     0.000021317117     1.007825032230

  Basis Set: AUG-CC-PVTZ
    Blend: AUG-CC-PVTZ
  Basis Set: (AUG-CC-PVTZ AUX)
    Blend: AUG-CC-PVTZ-JKFIT
	 Reference Energy          =    -244.7197822194932257 [Eh]
	 Singles Energy            =      -0.0000000000000000 [Eh]
	 Same-Spin Energy          =      -0.2506167826045164 [Eh]
	 Opposite-Spin Energy      =      -0.7540567458941119 [Eh]
	 Correlation Energy        =      -1.0046735284986283 [Eh]
	 Total Energy              =    -245.7244557479918399 [Eh]

	 ================> DF-SCS-MP2 Energies <==================
	-----------------------------------------------------------
	 SCS Same-Spin Scale       =       0.3333333333333333 [-]
	 SCS Opposite-Spin Scale   =       1.2000000000000000 [-]
	 SCS Same-Spin Energy      =      -0.0835389275348388 [Eh]
	 SCS Opposite-Spin Energy  =      -0.9048680950729342 [Eh]
	 SCS Correlation Energy    =      -0.9884070226077730 [Eh]
	 SCS Total Energy          =    -245.7081892421009854 [Eh]
	-----------------------------------------------------------

  Dipole Moment: [D]
     X:     0.8091      Y:    -1.4776      Z:     0.0001     Total:     1.6846

*** Psi4 exiting successfully. Buy a developer a beer!
