                               Psi4 1.3.2 release

  ==> Input File <==

--------------------------------------------------------------------------
#psi4
#
memory 32 gb

molecule  {
0 1
  O       -0.3732950    -1.0875170     0.0000230
  N       -0.3944950     1.1585740    -0.0000440
  C        0.9282580    -0.6566220     0.0000340
  C        0.9271307     0.7278960    -0.0000332
  C       -1.1010560     0.0631240     0.0000150
  H        1.6883170    -1.4215870     0.0000640
  H        1.7555780     1.3888440    -0.0000640
  H       -2.1757640    -0.0455290     0.0000210
units angstrom
no_reorient  #important for SAPT in psi4, default
symmetry c1  #important for SAPT in psi4, default
}

set PROPERTIES_ORIGIN ["COM"]
properties('MP2/aug-cc-pvtz', properties = ['dipole'])
--------------------------------------------------------------------------

    Molecular point group: c1
  Charge       = 0
  Multiplicity = 1
  Basis Set: AUG-CC-PVTZ
    Blend: AUG-CC-PVTZ
  Basis Set: (AUG-CC-PVTZ AUX)
    Blend: AUG-CC-PVTZ-JKFIT

    Orbital Energies [Eh]
    ---------------------

    Doubly Occupied:

       1A    -20.649363     2A    -15.575775     3A    -11.342217
       4A    -11.304893     5A    -11.271388     6A     -1.488117
       7A     -1.235463     8A     -1.031450     9A     -0.845252
      10A     -0.823150    11A     -0.754217    12A     -0.659976
      13A     -0.632308    14A     -0.603520    15A     -0.582167
      16A     -0.466586    17A     -0.458320    18A     -0.343408

  @DF-RHF Final Energy:  -244.71782861289341

   => Energetics <=

    Nuclear Repulsion Energy =            162.2919963193373007
    One-Electron Energy =                -653.8845048219087630
    Two-Electron Energy =                 246.8746798896780774
    Total Energy =                       -244.7178286128934133
  Basis Set: (AUG-CC-PVTZ AUX)
    Blend: AUG-CC-PVTZ-RI
    Molecular point group: c1

    Geometry (in Angstrom), charge = 0, multiplicity = 1:

       Center              X                  Y                   Z               Mass
    ------------   -----------------  -----------------  -----------------  -----------------
         O           -0.356417383914    -1.092772574119     0.000023543134    15.994914619570
         N           -0.377617383914     1.153318425881    -0.000043456866    14.003074004430
         C            0.945135616086    -0.661877574119     0.000034543134    12.000000000000
         C            0.944008316086     0.722640425881    -0.000032656866    12.000000000000
         C           -1.084178383914     0.057868425881     0.000015543134    12.000000000000
         H            1.705194616086    -1.426842574119     0.000064543134     1.007825032230
         H            1.772455616086     1.383588425881    -0.000063456866     1.007825032230
         H           -2.158886383914    -0.050784574119     0.000021543134     1.007825032230

  Basis Set: AUG-CC-PVTZ
    Blend: AUG-CC-PVTZ
  Basis Set: (AUG-CC-PVTZ AUX)
    Blend: AUG-CC-PVTZ-JKFIT
	 Reference Energy          =    -244.7178286128934133 [Eh]
	 Singles Energy            =      -0.0000000000000000 [Eh]
	 Same-Spin Energy          =      -0.2509775796233427 [Eh]
	 Opposite-Spin Energy      =      -0.7550928554652865 [Eh]
	 Correlation Energy        =      -1.0060704350886291 [Eh]
	 Total Energy              =    -245.7238990479820302 [Eh]

	 ================> DF-SCS-MP2 Energies <==================
	-----------------------------------------------------------
	 SCS Same-Spin Scale       =       0.3333333333333333 [-]
	 SCS Opposite-Spin Scale   =       1.2000000000000000 [-]
	 SCS Same-Spin Energy      =      -0.0836591932077809 [Eh]
	 SCS Opposite-Spin Energy  =      -0.9061114265583438 [Eh]
	 SCS Correlation Energy    =      -0.9897706197661247 [Eh]
	 SCS Total Energy          =    -245.7075992326595326 [Eh]
	-----------------------------------------------------------

  Dipole Moment: [D]
     X:     0.7984      Y:    -1.4102      Z:     0.0001     Total:     1.6206

*** Psi4 exiting successfully. Buy a developer a beer!
