                               Psi4 1.4a3.dev225

  ==> Input File <==

--------------------------------------------------------------------------
#psi4
#
memory 32 gb

molecule  {
0 1
  O       -0.3732950    -1.0875170     0.0000230
  N       -0.3944950     1.1585740    -0.0000440
  C        0.9282580    -0.6566220     0.0000340
  C        0.9195429     0.6848964    -0.0000310
  C       -1.1010560     0.0631240     0.0000150
  H        1.6883170    -1.4215870     0.0000640
  H        1.7555780     1.3888440    -0.0000640
  H       -2.1757640    -0.0455290     0.0000210
units angstrom
no_reorient  #important for SAPT in psi4, default
symmetry c1  #important for SAPT in psi4, default
}

set PROPERTIES_ORIGIN ["COM"]
properties('MP2/aug-cc-pvtz', properties = ['dipole'])
--------------------------------------------------------------------------

    Molecular point group: c1
  Charge       = 0
  Multiplicity = 1
  Basis Set: AUG-CC-PVTZ
    Blend: AUG-CC-PVTZ
  Basis Set: (AUG-CC-PVTZ AUX)
    Blend: AUG-CC-PVTZ-JKFIT

    Orbital Energies [Eh]
    ---------------------

    Doubly Occupied:

       1A    -20.646147     2A    -15.575522     3A    -11.343092
       4A    -11.298619     5A    -11.267682     6A     -1.488494
       7A     -1.234776     8A     -1.038321     9A     -0.843381
      10A     -0.823412    11A     -0.753486    12A     -0.661124
      13A     -0.629113    14A     -0.592634    15A     -0.583301
      16A     -0.470768    17A     -0.457369    18A     -0.351596

  @DF-RHF Final Energy:  -244.72030825749133

   => Energetics <=

    Nuclear Repulsion Energy =            162.8825720053642385
    One-Electron Energy =                -655.0880883234243584
    Two-Electron Energy =                 247.4852080605687945
    Total Energy =                       -244.7203082574913253
  Basis Set: (AUG-CC-PVTZ AUX)
    Blend: AUG-CC-PVTZ-RI
    Molecular point group: c1

    Geometry (in Angstrom), charge = 0, multiplicity = 1:

       Center              X                  Y                   Z               Mass
    ------------   -----------------  -----------------  -----------------  -----------------
         O           -0.355098176887    -1.085296708320     0.000023160644    15.994914619570
         N           -0.376298176887     1.160794291680    -0.000043839356    14.003074004430
         C            0.946454823113    -0.654401708320     0.000034160644    12.000000000000
         C            0.937739723113     0.687116691680    -0.000030839356    12.000000000000
         C           -1.082859176887     0.065344291680     0.000015160644    12.000000000000
         H            1.706513823113    -1.419366708320     0.000064160644     1.007825032230
         H            1.773774823113     1.391064291680    -0.000063839356     1.007825032230
         H           -2.157567176887    -0.043308708320     0.000021160644     1.007825032230

  Basis Set: AUG-CC-PVTZ
    Blend: AUG-CC-PVTZ
  Basis Set: (AUG-CC-PVTZ AUX)
    Blend: AUG-CC-PVTZ-JKFIT
	 Reference Energy          =    -244.7203082574913253 [Eh]
	 Singles Energy            =      -0.0000000000000000 [Eh]
	 Same-Spin Energy          =      -0.2502220763404810 [Eh]
	 Opposite-Spin Energy      =      -0.7537438241140961 [Eh]
	 Correlation Energy        =      -1.0039659004545771 [Eh]
	 Total Energy              =    -245.7242741579458993 [Eh]

	 ================> DF-SCS-MP2 Energies <==================
	-----------------------------------------------------------
	 SCS Same-Spin Scale       =       0.3333333333333333 [-]
	 SCS Opposite-Spin Scale   =       1.2000000000000000 [-]
	 SCS Same-Spin Energy      =      -0.0834073587801603 [Eh]
	 SCS Opposite-Spin Energy  =      -0.9044925889369153 [Eh]
	 SCS Correlation Energy    =      -0.9878999477170757 [Eh]
	 SCS Total Energy          =    -245.7082082052083933 [Eh]
	-----------------------------------------------------------

  Dipole Moment: [D]
     X:     0.7771      Y:    -1.4265      Z:     0.0001     Total:     1.6244

*** Psi4 exiting successfully. Buy a developer a beer!
