                               Psi4 1.3.2 release

  ==> Input File <==

--------------------------------------------------------------------------
#psi4
#
memory 32 gb

molecule  {
0 1
  O       -0.3732950    -1.0875170     0.0000230
  N       -0.3863771     1.1814358    -0.0000450
  C        0.9282580    -0.6566220     0.0000340
  C        0.9194130     0.7048960    -0.0000320
  C       -1.1010560     0.0631240     0.0000150
  H        1.6883170    -1.4215870     0.0000640
  H        1.7555780     1.3888440    -0.0000640
  H       -2.1757640    -0.0455290     0.0000210
units angstrom
no_reorient  #important for SAPT in psi4, default
symmetry c1  #important for SAPT in psi4, default
}

set PROPERTIES_ORIGIN ["COM"]
properties('MP2/aug-cc-pvtz', properties = ['dipole'])
--------------------------------------------------------------------------

    Molecular point group: c1
  Charge       = 0
  Multiplicity = 1
  Basis Set: AUG-CC-PVTZ
    Blend: AUG-CC-PVTZ
  Basis Set: (AUG-CC-PVTZ AUX)
    Blend: AUG-CC-PVTZ-JKFIT

    Orbital Energies [Eh]
    ---------------------

    Doubly Occupied:

       1A    -20.650858     2A    -15.579505     3A    -11.347306
       4A    -11.300890     5A    -11.269580     6A     -1.488860
       7A     -1.231293     8A     -1.033283     9A     -0.843518
      10A     -0.824363    11A     -0.754042    12A     -0.660497
      13A     -0.630681    14A     -0.592499    15A     -0.584134
      16A     -0.472403    17A     -0.456621    18A     -0.345504

  @DF-RHF Final Energy:  -244.71678535491097

   => Energetics <=

    Nuclear Repulsion Energy =            162.1551943567450849
    One-Electron Energy =                -653.6122851385442800
    Two-Electron Energy =                 246.7403054268882272
    Total Energy =                       -244.7167853549109680
  Basis Set: (AUG-CC-PVTZ AUX)
    Blend: AUG-CC-PVTZ-RI
    Molecular point group: c1

    Geometry (in Angstrom), charge = 0, multiplicity = 1:

       Center              X                  Y                   Z               Mass
    ------------   -----------------  -----------------  -----------------  -----------------
         O           -0.356722552094    -1.093412019805     0.000023537383    15.994914619570
         N           -0.369804652094     1.175540780195    -0.000044462617    14.003074004430
         C            0.944830447906    -0.662517019805     0.000034537383    12.000000000000
         C            0.935985447906     0.699000980195    -0.000031462617    12.000000000000
         C           -1.084483552094     0.057228980195     0.000015537383    12.000000000000
         H            1.704889447906    -1.427482019805     0.000064537383     1.007825032230
         H            1.772150447906     1.382948980195    -0.000063462617     1.007825032230
         H           -2.159191552094    -0.051424019805     0.000021537383     1.007825032230

  Basis Set: AUG-CC-PVTZ
    Blend: AUG-CC-PVTZ
  Basis Set: (AUG-CC-PVTZ AUX)
    Blend: AUG-CC-PVTZ-JKFIT
	 Reference Energy          =    -244.7167853549109680 [Eh]
	 Singles Energy            =      -0.0000000000000000 [Eh]
	 Same-Spin Energy          =      -0.2511999287066711 [Eh]
	 Opposite-Spin Energy      =      -0.7556494295295837 [Eh]
	 Correlation Energy        =      -1.0068493582362548 [Eh]
	 Total Energy              =    -245.7236347131472201 [Eh]

	 ================> DF-SCS-MP2 Energies <==================
	-----------------------------------------------------------
	 SCS Same-Spin Scale       =       0.3333333333333333 [-]
	 SCS Opposite-Spin Scale   =       1.2000000000000000 [-]
	 SCS Same-Spin Energy      =      -0.0837333095688904 [Eh]
	 SCS Opposite-Spin Energy  =      -0.9067793154355004 [Eh]
	 SCS Correlation Energy    =      -0.9905126250043907 [Eh]
	 SCS Total Energy          =    -245.7072979799153529 [Eh]
	-----------------------------------------------------------

  Dipole Moment: [D]
     X:     0.7789      Y:    -1.4734      Z:     0.0001     Total:     1.6666

*** Psi4 exiting successfully. Buy a developer a beer!
