                               Psi4 1.3.2 release

  ==> Input File <==

--------------------------------------------------------------------------
#psi4
#
memory 32 gb

molecule  {
0 1
  O       -0.3732950    -1.0875170     0.0000230
  N       -0.3944950     1.1585740    -0.0000440
  C        0.9282580    -0.6566220     0.0000340
  C        0.9194130     0.7048960    -0.0000320
  C       -1.1010560     0.0631240     0.0000150
  H        1.8292827    -1.5634626     0.0000696
  H        1.7555780     1.3888440    -0.0000640
  H       -2.1757640    -0.0455290     0.0000210
units angstrom
no_reorient  #important for SAPT in psi4, default
symmetry c1  #important for SAPT in psi4, default
}

set PROPERTIES_ORIGIN ["COM"]
properties('MP2/aug-cc-pvtz', properties = ['dipole'])
--------------------------------------------------------------------------

    Molecular point group: c1
  Charge       = 0
  Multiplicity = 1
  Basis Set: AUG-CC-PVTZ
    Blend: AUG-CC-PVTZ
  Basis Set: (AUG-CC-PVTZ AUX)
    Blend: AUG-CC-PVTZ-JKFIT

    Orbital Energies [Eh]
    ---------------------

    Doubly Occupied:

       1A    -20.649448     2A    -15.576629     3A    -11.343465
       4A    -11.320633     5A    -11.270231     6A     -1.489753
       7A     -1.237035     8A     -1.029940     9A     -0.842440
      10A     -0.814344    11A     -0.743157    12A     -0.661842
      13A     -0.605341    14A     -0.597154    15A     -0.569299
      16A     -0.469043    17A     -0.459287    18A     -0.347790

  @DF-RHF Final Energy:  -244.69634726804478

   => Energetics <=

    Nuclear Repulsion Energy =            161.8139489582737269
    One-Electron Energy =                -652.9669314086127088
    Two-Electron Energy =                 246.4566351822942067
    Total Energy =                       -244.6963472680447751
  Basis Set: (AUG-CC-PVTZ AUX)
    Blend: AUG-CC-PVTZ-RI
    Molecular point group: c1

    Geometry (in Angstrom), charge = 0, multiplicity = 1:

       Center              X                  Y                   Z               Mass
    ------------   -----------------  -----------------  -----------------  -----------------
         O           -0.357133919880    -1.086702204721     0.000023252734    15.994914619570
         N           -0.378333919880     1.159388795279    -0.000043747266    14.003074004430
         C            0.944419080120    -0.655807204721     0.000034252734    12.000000000000
         C            0.935574080120     0.705710795279    -0.000031747266    12.000000000000
         C           -1.084894919880     0.063938795279     0.000015252734    12.000000000000
         H            1.845443780120    -1.562647804721     0.000069852734     1.007825032230
         H            1.771739080120     1.389658795279    -0.000063747266     1.007825032230
         H           -2.159602919880    -0.044714204721     0.000021252734     1.007825032230

  Basis Set: AUG-CC-PVTZ
    Blend: AUG-CC-PVTZ
  Basis Set: (AUG-CC-PVTZ AUX)
    Blend: AUG-CC-PVTZ-JKFIT
	 Reference Energy          =    -244.6963472680447751 [Eh]
	 Singles Energy            =      -0.0000000000000000 [Eh]
	 Same-Spin Energy          =      -0.2511451213550685 [Eh]
	 Opposite-Spin Energy      =      -0.7564375993263928 [Eh]
	 Correlation Energy        =      -1.0075827206814614 [Eh]
	 Total Energy              =    -245.7039299887262302 [Eh]

	 ================> DF-SCS-MP2 Energies <==================
	-----------------------------------------------------------
	 SCS Same-Spin Scale       =       0.3333333333333333 [-]
	 SCS Opposite-Spin Scale   =       1.2000000000000000 [-]
	 SCS Same-Spin Energy      =      -0.0837150404516895 [Eh]
	 SCS Opposite-Spin Energy  =      -0.9077251191916713 [Eh]
	 SCS Correlation Energy    =      -0.9914401596433609 [Eh]
	 SCS Total Energy          =    -245.6877874276881357 [Eh]
	-----------------------------------------------------------

  Dipole Moment: [D]
     X:     0.7928      Y:    -1.4520      Z:     0.0001     Total:     1.6543

*** Psi4 exiting successfully. Buy a developer a beer!
