                               Psi4 1.3.2 release

  ==> Input File <==

--------------------------------------------------------------------------
#psi4
#
memory 32 gb

molecule  {
0 1
  O       -0.3732950    -1.0875170     0.0000230
  N       -0.3944950     1.1585740    -0.0000440
  C        0.9282580    -0.6566220     0.0000340
  C        0.9181137     0.9048918    -0.0000417
  C       -1.1010560     0.0631240     0.0000150
  H        1.6883170    -1.4215870     0.0000640
  H        1.7555780     1.3888440    -0.0000640
  H       -2.1757640    -0.0455290     0.0000210
units angstrom
no_reorient  #important for SAPT in psi4, default
symmetry c1  #important for SAPT in psi4, default
}

set PROPERTIES_ORIGIN ["COM"]
properties('MP2/aug-cc-pvtz', properties = ['dipole'])
--------------------------------------------------------------------------

    Molecular point group: c1
  Charge       = 0
  Multiplicity = 1
  Basis Set: AUG-CC-PVTZ
    Blend: AUG-CC-PVTZ
  Basis Set: (AUG-CC-PVTZ AUX)
    Blend: AUG-CC-PVTZ-JKFIT

    Orbital Energies [Eh]
    ---------------------

    Doubly Occupied:

       1A    -20.663214     2A    -15.578229     3A    -11.337854
       4A    -11.323577     5A    -11.285572     6A     -1.489443
       7A     -1.246746     8A     -1.014017     9A     -0.864760
      10A     -0.816942    11A     -0.753452    12A     -0.670909
      13A     -0.657985    14A     -0.619568    15A     -0.565329
      16A     -0.469320    17A     -0.446594    18A     -0.312845

  @DF-RHF Final Energy:  -244.66317996097669

   => Energetics <=

    Nuclear Repulsion Energy =            160.6518126908618740
    One-Electron Energy =                -650.3972748367668828
    Two-Electron Energy =                 245.0822821849282889
    Total Energy =                       -244.6631799609766915
  Basis Set: (AUG-CC-PVTZ AUX)
    Blend: AUG-CC-PVTZ-RI
    Molecular point group: c1

    Geometry (in Angstrom), charge = 0, multiplicity = 1:

       Center              X                  Y                   Z               Mass
    ------------   -----------------  -----------------  -----------------  -----------------
         O           -0.354849697659    -1.123544880087     0.000025020935    15.994914619570
         N           -0.376049697659     1.122546119913    -0.000041979065    14.003074004430
         C            0.946703302341    -0.692649880087     0.000036020935    12.000000000000
         C            0.936559002341     0.868863919913    -0.000039679065    12.000000000000
         C           -1.082610697659     0.027096119913     0.000017020935    12.000000000000
         H            1.706762302341    -1.457614880087     0.000066020935     1.007825032230
         H            1.774023302341     1.352816119913    -0.000061979065     1.007825032230
         H           -2.157318697659    -0.081556880087     0.000023020935     1.007825032230

  Basis Set: AUG-CC-PVTZ
    Blend: AUG-CC-PVTZ
  Basis Set: (AUG-CC-PVTZ AUX)
    Blend: AUG-CC-PVTZ-JKFIT
	 Reference Energy          =    -244.6631799609766915 [Eh]
	 Singles Energy            =      -0.0000000000000000 [Eh]
	 Same-Spin Energy          =      -0.2556622204915330 [Eh]
	 Opposite-Spin Energy      =      -0.7628400664844859 [Eh]
	 Correlation Energy        =      -1.0185022869760190 [Eh]
	 Total Energy              =    -245.6816822479527218 [Eh]

	 ================> DF-SCS-MP2 Energies <==================
	-----------------------------------------------------------
	 SCS Same-Spin Scale       =       0.3333333333333333 [-]
	 SCS Opposite-Spin Scale   =       1.2000000000000000 [-]
	 SCS Same-Spin Energy      =      -0.0852207401638443 [Eh]
	 SCS Opposite-Spin Energy  =      -0.9154080797813831 [Eh]
	 SCS Correlation Energy    =      -1.0006288199452273 [Eh]
	 SCS Total Energy          =    -245.6638087809219257 [Eh]
	-----------------------------------------------------------

  Dipole Moment: [D]
     X:     0.8120      Y:    -1.2625      Z:     0.0001     Total:     1.5011

*** Psi4 exiting successfully. Buy a developer a beer!
