                               Psi4 1.3.2 release

  ==> Input File <==

--------------------------------------------------------------------------
#psi4
#
memory 32 gb

molecule  {
0 1
  O       -0.3732950    -1.0875170     0.0000230
  N       -0.3944950     1.1585740    -0.0000440
  C        0.9282580    -0.6566220     0.0000340
  C        0.9194130     0.7048960    -0.0000320
  C       -1.1010560     0.0631240     0.0000150
  H        1.6178342    -1.3506492     0.0000612
  H        1.7555780     1.3888440    -0.0000640
  H       -2.1757640    -0.0455290     0.0000210
units angstrom
no_reorient  #important for SAPT in psi4, default
symmetry c1  #important for SAPT in psi4, default
}

set PROPERTIES_ORIGIN ["COM"]
properties('MP2/aug-cc-pvtz', properties = ['dipole'])
--------------------------------------------------------------------------

    Molecular point group: c1
  Charge       = 0
  Multiplicity = 1
  Basis Set: AUG-CC-PVTZ
    Blend: AUG-CC-PVTZ
  Basis Set: (AUG-CC-PVTZ AUX)
    Blend: AUG-CC-PVTZ-JKFIT

    Orbital Energies [Eh]
    ---------------------

    Doubly Occupied:

       1A    -20.647073     2A    -15.575197     3A    -11.342664
       4A    -11.290330     5A    -11.269319     6A     -1.488031
       7A     -1.235970     8A     -1.039618     9A     -0.847405
      10A     -0.831761    11A     -0.760431    12A     -0.660328
      13A     -0.645309    14A     -0.597589    15A     -0.584561
      16A     -0.469371    17A     -0.458097    18A     -0.347552

  @DF-RHF Final Energy:  -244.71352557970883

   => Energetics <=

    Nuclear Repulsion Energy =            163.1767004587136398
    One-Electron Energy =                -655.5992423228009329
    Two-Electron Energy =                 247.7090162843784640
    Total Energy =                       -244.7135255797088291
  Basis Set: (AUG-CC-PVTZ AUX)
    Blend: AUG-CC-PVTZ-RI
    Molecular point group: c1

    Geometry (in Angstrom), charge = 0, multiplicity = 1:

       Center              X                  Y                   Z               Mass
    ------------   -----------------  -----------------  -----------------  -----------------
         O           -0.354046429702    -1.089809624647     0.000023375388    15.994914619570
         N           -0.375246429702     1.156281375353    -0.000043624612    14.003074004430
         C            0.947506570298    -0.658914624647     0.000034375388    12.000000000000
         C            0.938661570298     0.702603375353    -0.000031624612    12.000000000000
         C           -1.081807429702     0.060831375353     0.000015375388    12.000000000000
         H            1.637082770298    -1.352941824647     0.000061575388     1.007825032230
         H            1.774826570298     1.386551375353    -0.000063624612     1.007825032230
         H           -2.156515429702    -0.047821624647     0.000021375388     1.007825032230

  Basis Set: AUG-CC-PVTZ
    Blend: AUG-CC-PVTZ
  Basis Set: (AUG-CC-PVTZ AUX)
    Blend: AUG-CC-PVTZ-JKFIT
	 Reference Energy          =    -244.7135255797088291 [Eh]
	 Singles Energy            =      -0.0000000000000000 [Eh]
	 Same-Spin Energy          =      -0.2504414757505109 [Eh]
	 Opposite-Spin Energy      =      -0.7539226874188599 [Eh]
	 Correlation Energy        =      -1.0043641631693707 [Eh]
	 Total Energy              =    -245.7178897428782136 [Eh]

	 ================> DF-SCS-MP2 Energies <==================
	-----------------------------------------------------------
	 SCS Same-Spin Scale       =       0.3333333333333333 [-]
	 SCS Opposite-Spin Scale   =       1.2000000000000000 [-]
	 SCS Same-Spin Energy      =      -0.0834804919168370 [Eh]
	 SCS Opposite-Spin Energy  =      -0.9047072249026319 [Eh]
	 SCS Correlation Energy    =      -0.9881877168194688 [Eh]
	 SCS Total Energy          =    -245.7017132965283110 [Eh]
	-----------------------------------------------------------

  Dipole Moment: [D]
     X:     0.7718      Y:    -1.3955      Z:     0.0001     Total:     1.5947

*** Psi4 exiting successfully. Buy a developer a beer!
