                               Psi4 1.3.2 release

  ==> Input File <==

--------------------------------------------------------------------------
#psi4
#
memory 32 gb

molecule  {
0 1
  O       -0.3732950    -1.0875170     0.0000230
  N       -0.3944950     1.1585740    -0.0000440
  C        0.9282580    -0.6566220     0.0000340
  C        0.9200626     0.6048981    -0.0000272
  C       -1.1010560     0.0631240     0.0000150
  H        1.6883170    -1.4215870     0.0000640
  H        1.7555780     1.3888440    -0.0000640
  H       -2.1757640    -0.0455290     0.0000210
units angstrom
no_reorient  #important for SAPT in psi4, default
symmetry c1  #important for SAPT in psi4, default
}

set PROPERTIES_ORIGIN ["COM"]
properties('MP2/aug-cc-pvtz', properties = ['dipole'])
--------------------------------------------------------------------------

    Molecular point group: c1
  Charge       = 0
  Multiplicity = 1
  Basis Set: AUG-CC-PVTZ
    Blend: AUG-CC-PVTZ
  Basis Set: (AUG-CC-PVTZ AUX)
    Blend: AUG-CC-PVTZ-JKFIT

    Orbital Energies [Eh]
    ---------------------

    Doubly Occupied:

       1A    -20.640205     2A    -15.575922     3A    -11.344339
       4A    -11.287078     5A    -11.260702     6A     -1.489098
       7A     -1.228836     8A     -1.055303     9A     -0.847725
      10A     -0.815586    11A     -0.751284    12A     -0.663395
      13A     -0.627604    14A     -0.590349    15A     -0.563829
      16A     -0.475407    17A     -0.453874    18A     -0.369681

  @DF-RHF Final Energy:  -244.70863903404143

   => Energetics <=

    Nuclear Repulsion Energy =            163.8134495321138502
    One-Electron Energy =                -656.9637402396317611
    Two-Electron Energy =                 248.4416516734764855
    Total Energy =                       -244.7086390340414255
  Basis Set: (AUG-CC-PVTZ AUX)
    Blend: AUG-CC-PVTZ-RI
    Molecular point group: c1

    Geometry (in Angstrom), charge = 0, multiplicity = 1:

       Center              X                  Y                   Z               Mass
    ------------   -----------------  -----------------  -----------------  -----------------
         O           -0.355188531389    -1.071388286964     0.000022499980    15.994914619570
         N           -0.376388531389     1.174702713036    -0.000044500020    14.003074004430
         C            0.946364468611    -0.640493286964     0.000033499980    12.000000000000
         C            0.938169068611     0.621026813036    -0.000027700020    12.000000000000
         C           -1.082949531389     0.079252713036     0.000014499980    12.000000000000
         H            1.706423468611    -1.405458286964     0.000063499980     1.007825032230
         H            1.773684468611     1.404972713036    -0.000064500020     1.007825032230
         H           -2.157657531389    -0.029400286964     0.000020499980     1.007825032230

  Basis Set: AUG-CC-PVTZ
    Blend: AUG-CC-PVTZ
  Basis Set: (AUG-CC-PVTZ AUX)
    Blend: AUG-CC-PVTZ-JKFIT
	 Reference Energy          =    -244.7086390340414255 [Eh]
	 Singles Energy            =      -0.0000000000000000 [Eh]
	 Same-Spin Energy          =      -0.2490212269839026 [Eh]
	 Opposite-Spin Energy      =      -0.7520439568147704 [Eh]
	 Correlation Energy        =      -1.0010651837986730 [Eh]
	 Total Energy              =    -245.7097042178401125 [Eh]

	 ================> DF-SCS-MP2 Energies <==================
	-----------------------------------------------------------
	 SCS Same-Spin Scale       =       0.3333333333333333 [-]
	 SCS Opposite-Spin Scale   =       1.2000000000000000 [-]
	 SCS Same-Spin Energy      =      -0.0830070756613009 [Eh]
	 SCS Opposite-Spin Energy  =      -0.9024527481777245 [Eh]
	 SCS Correlation Energy    =      -0.9854598238390253 [Eh]
	 SCS Total Energy          =    -245.6940988578804479 [Eh]
	-----------------------------------------------------------

  Dipole Moment: [D]
     X:     0.7423      Y:    -1.4434      Z:     0.0001     Total:     1.6231

*** Psi4 exiting successfully. Buy a developer a beer!
