                               Psi4 1.3.2 release

  ==> Input File <==

--------------------------------------------------------------------------
#psi4
#
memory 32 gb

molecule  {
0 1
  O       -0.3335815    -1.0614176     0.0000208
  N       -0.3944950     1.1585740    -0.0000440
  C        0.9282580    -0.6566220     0.0000340
  C        0.9194130     0.7048960    -0.0000320
  C       -1.1010560     0.0631240     0.0000150
  H        1.6883170    -1.4215870     0.0000640
  H        1.7555780     1.3888440    -0.0000640
  H       -2.1757640    -0.0455290     0.0000210
units angstrom
no_reorient  #important for SAPT in psi4, default
symmetry c1  #important for SAPT in psi4, default
}

set PROPERTIES_ORIGIN ["COM"]
properties('MP2/aug-cc-pvtz', properties = ['dipole'])
--------------------------------------------------------------------------

    Molecular point group: c1
  Charge       = 0
  Multiplicity = 1
  Basis Set: AUG-CC-PVTZ
    Blend: AUG-CC-PVTZ
  Basis Set: (AUG-CC-PVTZ AUX)
    Blend: AUG-CC-PVTZ-JKFIT

    Orbital Energies [Eh]
    ---------------------

    Doubly Occupied:

       1A    -20.647839     2A    -15.575535     3A    -11.340408
       4A    -11.298803     5A    -11.263840     6A     -1.504205
       7A     -1.235211     8A     -1.038143     9A     -0.850163
      10A     -0.821442    11A     -0.759064    12A     -0.669324
      13A     -0.639893    14A     -0.595976    15A     -0.576160
      16A     -0.469096    17A     -0.457030    18A     -0.344622

  @DF-RHF Final Energy:  -244.71987121113122

   => Energetics <=

    Nuclear Repulsion Energy =            163.7217743725365153
    One-Electron Energy =                -656.7097821787035627
    Two-Electron Energy =                 248.2681365950358270
    Total Energy =                       -244.7198712111312204
  Basis Set: (AUG-CC-PVTZ AUX)
    Blend: AUG-CC-PVTZ-RI
    Molecular point group: c1

    Geometry (in Angstrom), charge = 0, multiplicity = 1:

       Center              X                  Y                   Z               Mass
    ------------   -----------------  -----------------  -----------------  -----------------
         O           -0.324565230407    -1.068722647818     0.000021644327    15.994914619570
         N           -0.385478730407     1.151268952182    -0.000043155673    14.003074004430
         C            0.937274269593    -0.663927047818     0.000034844327    12.000000000000
         C            0.928429269593     0.697590952182    -0.000031155673    12.000000000000
         C           -1.092039730407     0.055818952182     0.000015844327    12.000000000000
         H            1.697333269593    -1.428892047818     0.000064844327     1.007825032230
         H            1.764594269593     1.381538952182    -0.000063155673     1.007825032230
         H           -2.166747730407    -0.052834047818     0.000021844327     1.007825032230

  Basis Set: AUG-CC-PVTZ
    Blend: AUG-CC-PVTZ
  Basis Set: (AUG-CC-PVTZ AUX)
    Blend: AUG-CC-PVTZ-JKFIT
	 Reference Energy          =    -244.7198712111312204 [Eh]
	 Singles Energy            =      -0.0000000000000000 [Eh]
	 Same-Spin Energy          =      -0.2506940499389396 [Eh]
	 Opposite-Spin Energy      =      -0.7531100838487874 [Eh]
	 Correlation Energy        =      -1.0038041337877270 [Eh]
	 Total Energy              =    -245.7236753449189450 [Eh]

	 ================> DF-SCS-MP2 Energies <==================
	-----------------------------------------------------------
	 SCS Same-Spin Scale       =       0.3333333333333333 [-]
	 SCS Opposite-Spin Scale   =       1.2000000000000000 [-]
	 SCS Same-Spin Energy      =      -0.0835646833129799 [Eh]
	 SCS Opposite-Spin Energy  =      -0.9037321006185448 [Eh]
	 SCS Correlation Energy    =      -0.9872967839315246 [Eh]
	 SCS Total Energy          =    -245.7071679950627470 [Eh]
	-----------------------------------------------------------

  Dipole Moment: [D]
     X:     0.6945      Y:    -1.5397      Z:     0.0001     Total:     1.6890

*** Psi4 exiting successfully. Buy a developer a beer!
