                               Psi4 1.3.2 release

  ==> Input File <==

--------------------------------------------------------------------------
#psi4
#
memory 32 gb

molecule  {
0 1
  O       -0.3732950    -1.0875170     0.0000230
  N       -0.3944950     1.1585740    -0.0000440
  C        0.9282580    -0.6566220     0.0000340
  C        0.9194130     0.7048960    -0.0000320
  C       -1.0468531     0.1471600     0.0000105
  H        1.6883170    -1.4215870     0.0000640
  H        1.7555780     1.3888440    -0.0000640
  H       -2.1757640    -0.0455290     0.0000210
units angstrom
no_reorient  #important for SAPT in psi4, default
symmetry c1  #important for SAPT in psi4, default
}

set PROPERTIES_ORIGIN ["COM"]
properties('MP2/aug-cc-pvtz', properties = ['dipole'])
--------------------------------------------------------------------------

    Molecular point group: c1
  Charge       = 0
  Multiplicity = 1
  Basis Set: AUG-CC-PVTZ
    Blend: AUG-CC-PVTZ
  Basis Set: (AUG-CC-PVTZ AUX)
    Blend: AUG-CC-PVTZ-JKFIT

    Orbital Energies [Eh]
    ---------------------

    Doubly Occupied:

       1A    -20.635770     2A    -15.570899     3A    -11.336128
       4A    -11.303544     5A    -11.269732     6A     -1.476380
       7A     -1.275951     8A     -1.031785     9A     -0.843916
      10A     -0.816754    11A     -0.747836    12A     -0.657782
      13A     -0.621352    14A     -0.598674    15A     -0.574159
      16A     -0.479649    17A     -0.474858    18A     -0.352737

  @DF-RHF Final Energy:  -244.70814445928423

   => Energetics <=

    Nuclear Repulsion Energy =            163.7668335166341365
    One-Electron Energy =                -656.8141458243895840
    Two-Electron Energy =                 248.3391678484711917
    Total Energy =                       -244.7081444592842274
  Basis Set: (AUG-CC-PVTZ AUX)
    Blend: AUG-CC-PVTZ-RI
    Molecular point group: c1

    Geometry (in Angstrom), charge = 0, multiplicity = 1:

       Center              X                  Y                   Z               Mass
    ------------   -----------------  -----------------  -----------------  -----------------
         O           -0.364499252509    -1.103384229689     0.000024116868    15.994914619570
         N           -0.385699252509     1.142706770311    -0.000042883132    14.003074004430
         C            0.937053747491    -0.672489229689     0.000035116868    12.000000000000
         C            0.928208747491     0.689028770311    -0.000030883132    12.000000000000
         C           -1.038057352509     0.131292770311     0.000011616868    12.000000000000
         H            1.697112747491    -1.437454229689     0.000065116868     1.007825032230
         H            1.764373747491     1.372976770311    -0.000062883132     1.007825032230
         H           -2.166968252509    -0.061396229689     0.000022116868     1.007825032230

  Basis Set: AUG-CC-PVTZ
    Blend: AUG-CC-PVTZ
  Basis Set: (AUG-CC-PVTZ AUX)
    Blend: AUG-CC-PVTZ-JKFIT
	 Reference Energy          =    -244.7081444592842274 [Eh]
	 Singles Energy            =      -0.0000000000000000 [Eh]
	 Same-Spin Energy          =      -0.2491871492907172 [Eh]
	 Opposite-Spin Energy      =      -0.7522908431256565 [Eh]
	 Correlation Energy        =      -1.0014779924163737 [Eh]
	 Total Energy              =    -245.7096224517005965 [Eh]

	 ================> DF-SCS-MP2 Energies <==================
	-----------------------------------------------------------
	 SCS Same-Spin Scale       =       0.3333333333333333 [-]
	 SCS Opposite-Spin Scale   =       1.2000000000000000 [-]
	 SCS Same-Spin Energy      =      -0.0830623830969057 [Eh]
	 SCS Opposite-Spin Energy  =      -0.9027490117507878 [Eh]
	 SCS Correlation Energy    =      -0.9858113948476935 [Eh]
	 SCS Total Energy          =    -245.6939558541319286 [Eh]
	-----------------------------------------------------------

  Dipole Moment: [D]
     X:     0.7978      Y:    -1.0914      Z:     0.0001     Total:     1.3519

*** Psi4 exiting successfully. Buy a developer a beer!
