                               Psi4 1.3.2 release

  ==> Input File <==

--------------------------------------------------------------------------
#psi4
#
memory 32 gb

molecule  {
0 1
  O       -0.3732950    -1.0875170     0.0000230
  N       -0.3944950     1.1585740    -0.0000440
  C        0.9282580    -0.6566220     0.0000340
  C        0.9194130     0.7048960    -0.0000320
  C       -0.9926502     0.2311960     0.0000059
  H        1.6883170    -1.4215870     0.0000640
  H        1.7555780     1.3888440    -0.0000640
  H       -2.1757640    -0.0455290     0.0000210
units angstrom
no_reorient  #important for SAPT in psi4, default
symmetry c1  #important for SAPT in psi4, default
}

set PROPERTIES_ORIGIN ["COM"]
properties('MP2/aug-cc-pvtz', properties = ['dipole'])
--------------------------------------------------------------------------

    Molecular point group: c1
  Charge       = 0
  Multiplicity = 1
  Basis Set: AUG-CC-PVTZ
    Blend: AUG-CC-PVTZ
  Basis Set: (AUG-CC-PVTZ AUX)
    Blend: AUG-CC-PVTZ-JKFIT

    Orbital Energies [Eh]
    ---------------------

    Doubly Occupied:

       1A    -20.622818     2A    -15.564613     3A    -11.328457
       4A    -11.306672     5A    -11.271929     6A     -1.469787
       7A     -1.318838     8A     -1.031668     9A     -0.848590
      10A     -0.803599    11A     -0.745309    12A     -0.660987
      13A     -0.626363    14A     -0.594888    15A     -0.562712
      16A     -0.504994    17A     -0.469015    18A     -0.356454

  @DF-RHF Final Energy:  -244.65212604471213

   => Energetics <=

    Nuclear Repulsion Energy =            165.1039935546795903
    One-Electron Energy =                -659.3368548515394423
    Two-Electron Energy =                 249.5807352521476901
    Total Energy =                       -244.6521260447121335
  Basis Set: (AUG-CC-PVTZ AUX)
    Blend: AUG-CC-PVTZ-RI
    Molecular point group: c1

    Geometry (in Angstrom), charge = 0, multiplicity = 1:

       Center              X                  Y                   Z               Mass
    ------------   -----------------  -----------------  -----------------  -----------------
         O           -0.373922912410    -1.117994641374     0.000024916620    15.994914619570
         N           -0.395122912410     1.128096358626    -0.000042083380    14.003074004430
         C            0.927630087590    -0.687099641374     0.000035916620    12.000000000000
         C            0.918785087590     0.674418358626    -0.000030083380    12.000000000000
         C           -0.993278112410     0.200718358626     0.000007816620    12.000000000000
         H            1.687689087590    -1.452064641374     0.000065916620     1.007825032230
         H            1.754950087590     1.358366358626    -0.000062083380     1.007825032230
         H           -2.176391912410    -0.076006641374     0.000022916620     1.007825032230

  Basis Set: AUG-CC-PVTZ
    Blend: AUG-CC-PVTZ
  Basis Set: (AUG-CC-PVTZ AUX)
    Blend: AUG-CC-PVTZ-JKFIT
	 Reference Energy          =    -244.6521260447121335 [Eh]
	 Singles Energy            =      -0.0000000000000000 [Eh]
	 Same-Spin Energy          =      -0.2484991286730109 [Eh]
	 Opposite-Spin Energy      =      -0.7514773646071345 [Eh]
	 Correlation Energy        =      -0.9999764932801455 [Eh]
	 Total Energy              =    -245.6521025379922776 [Eh]

	 ================> DF-SCS-MP2 Energies <==================
	-----------------------------------------------------------
	 SCS Same-Spin Scale       =       0.3333333333333333 [-]
	 SCS Opposite-Spin Scale   =       1.2000000000000000 [-]
	 SCS Same-Spin Energy      =      -0.0828330428910036 [Eh]
	 SCS Opposite-Spin Energy  =      -0.9017728375285614 [Eh]
	 SCS Correlation Energy    =      -0.9846058804195650 [Eh]
	 SCS Total Energy          =    -245.6367319251316985 [Eh]
	-----------------------------------------------------------

  Dipole Moment: [D]
     X:     0.8867      Y:    -0.6891      Z:     0.0001     Total:     1.1230

*** Psi4 exiting successfully. Buy a developer a beer!
