                               Psi4 1.3.2 release

  ==> Input File <==

--------------------------------------------------------------------------
#psi4
#
memory 32 gb

molecule  {
0 1
  O       -0.3732950    -1.0875170     0.0000230
  N       -0.3944950     1.1585740    -0.0000440
  C        0.9282580    -0.6566220     0.0000340
  C        0.9194130     0.7048960    -0.0000320
  C       -1.1010560     0.0631240     0.0000150
  H        1.6883170    -1.4215870     0.0000640
  H        1.7555780     1.3888440    -0.0000640
  H       -2.0762712    -0.0354703     0.0000204
units angstrom
no_reorient  #important for SAPT in psi4, default
symmetry c1  #important for SAPT in psi4, default
}

set PROPERTIES_ORIGIN ["COM"]
properties('MP2/aug-cc-pvtz', properties = ['dipole'])
--------------------------------------------------------------------------

    Molecular point group: c1
  Charge       = 0
  Multiplicity = 1
  Basis Set: AUG-CC-PVTZ
    Blend: AUG-CC-PVTZ
  Basis Set: (AUG-CC-PVTZ AUX)
    Blend: AUG-CC-PVTZ-JKFIT

    Orbital Energies [Eh]
    ---------------------

    Doubly Occupied:

       1A    -20.647179     2A    -15.575495     3A    -11.332123
       4A    -11.301382     5A    -11.269054     6A     -1.488236
       7A     -1.235935     8A     -1.039825     9A     -0.850459
      10A     -0.832957    11A     -0.760444    12A     -0.660449
      13A     -0.637993    14A     -0.603943    15A     -0.582686
      16A     -0.469508    17A     -0.458068    18A     -0.347535

  @DF-RHF Final Energy:  -244.71348686569110

   => Energetics <=

    Nuclear Repulsion Energy =            163.1867994249965648
    One-Electron Energy =                -655.6140344790572954
    Two-Electron Energy =                 247.7137481883696069
    Total Energy =                       -244.7134868656910953
  Basis Set: (AUG-CC-PVTZ AUX)
    Blend: AUG-CC-PVTZ-RI
    Molecular point group: c1

    Geometry (in Angstrom), charge = 0, multiplicity = 1:

       Center              X                  Y                   Z               Mass
    ------------   -----------------  -----------------  -----------------  -----------------
         O           -0.356528348446    -1.088920691298     0.000023343264    15.994914619570
         N           -0.377728348446     1.157170308702    -0.000043656736    14.003074004430
         C            0.945024651554    -0.658025691298     0.000034343264    12.000000000000
         C            0.936179651554     0.703492308702    -0.000031656736    12.000000000000
         C           -1.084289348446     0.061720308702     0.000015343264    12.000000000000
         H            1.705083651554    -1.422990691298     0.000064343264     1.007825032230
         H            1.772344651554     1.387440308702    -0.000063656736     1.007825032230
         H           -2.059504548446    -0.036873991298     0.000020743264     1.007825032230

  Basis Set: AUG-CC-PVTZ
    Blend: AUG-CC-PVTZ
  Basis Set: (AUG-CC-PVTZ AUX)
    Blend: AUG-CC-PVTZ-JKFIT
	 Reference Energy          =    -244.7134868656910953 [Eh]
	 Singles Energy            =      -0.0000000000000000 [Eh]
	 Same-Spin Energy          =      -0.2504613444770069 [Eh]
	 Opposite-Spin Energy      =      -0.7540351639733364 [Eh]
	 Correlation Energy        =      -1.0044965084503432 [Eh]
	 Total Energy              =    -245.7179833741414257 [Eh]

	 ================> DF-SCS-MP2 Energies <==================
	-----------------------------------------------------------
	 SCS Same-Spin Scale       =       0.3333333333333333 [-]
	 SCS Opposite-Spin Scale   =       1.2000000000000000 [-]
	 SCS Same-Spin Energy      =      -0.0834871148256690 [Eh]
	 SCS Opposite-Spin Energy  =      -0.9048421967680036 [Eh]
	 SCS Correlation Energy    =      -0.9883293115936725 [Eh]
	 SCS Total Energy          =    -245.7018161772847691 [Eh]
	-----------------------------------------------------------

  Dipole Moment: [D]
     X:     0.8154      Y:    -1.4210      Z:     0.0001     Total:     1.6383

*** Psi4 exiting successfully. Buy a developer a beer!
