                               Psi4 1.4a3.dev225

  ==> Input File <==

--------------------------------------------------------------------------
#psi4
#
memory 32 gb

molecule  {
0 1
  O       -0.3732950    -1.0875170     0.0000230
  N       -0.3944950     1.1585740    -0.0000440
  C        0.9282580    -0.6566220     0.0000340
  C        0.9194130     0.7048960    -0.0000320
  C       -1.1010560     0.0631240     0.0000150
  H        1.6883170    -1.4215870     0.0000640
  H        1.7555780     1.3888440    -0.0000640
  H       -2.1260176    -0.0404996     0.0000207
units angstrom
no_reorient  #important for SAPT in psi4, default
symmetry c1  #important for SAPT in psi4, default
}

set PROPERTIES_ORIGIN ["COM"]
properties('MP2/aug-cc-pvtz', properties = ['dipole'])
--------------------------------------------------------------------------

    Molecular point group: c1
  Charge       = 0
  Multiplicity = 1
  Basis Set: AUG-CC-PVTZ
    Blend: AUG-CC-PVTZ
  Basis Set: (AUG-CC-PVTZ AUX)
    Blend: AUG-CC-PVTZ-JKFIT

    Orbital Energies [Eh]
    ---------------------

    Doubly Occupied:

       1A    -20.647404     2A    -15.575474     3A    -11.337502
       4A    -11.301320     5A    -11.269192     6A     -1.488315
       7A     -1.236022     8A     -1.037042     9A     -0.845771
      10A     -0.829000    11A     -0.757274    12A     -0.660546
      13A     -0.633930    14A     -0.601222    15A     -0.582773
      16A     -0.469382    17A     -0.458199    18A     -0.347438

  @DF-RHF Final Energy:  -244.71896322956565

   => Energetics <=

    Nuclear Repulsion Energy =            162.9159725569286650
    One-Electron Energy =                -655.1142589574106978
    Two-Electron Energy =                 247.4793231709164161
    Total Energy =                       -244.7189632295656452
  Basis Set: (AUG-CC-PVTZ AUX)
    Blend: AUG-CC-PVTZ-RI
    Molecular point group: c1

    Geometry (in Angstrom), charge = 0, multiplicity = 1:

       Center              X                  Y                   Z               Mass
    ------------   -----------------  -----------------  -----------------  -----------------
         O           -0.355801970527    -1.088847255382     0.000023338884    15.994914619570
         N           -0.377001970527     1.157243744618    -0.000043661116    14.003074004430
         C            0.945751029473    -0.657952255382     0.000034338884    12.000000000000
         C            0.936906029473     0.703565744618    -0.000031661116    12.000000000000
         C           -1.083562970527     0.061793744618     0.000015338884    12.000000000000
         H            1.705810029473    -1.422917255382     0.000064338884     1.007825032230
         H            1.773071029473     1.387513744618    -0.000063661116     1.007825032230
         H           -2.108524570527    -0.041829855382     0.000021038884     1.007825032230

  Basis Set: AUG-CC-PVTZ
    Blend: AUG-CC-PVTZ
  Basis Set: (AUG-CC-PVTZ AUX)
    Blend: AUG-CC-PVTZ-JKFIT
	 Reference Energy          =    -244.7189632295656452 [Eh]
	 Singles Energy            =      -0.0000000000000000 [Eh]
	 Same-Spin Energy          =      -0.2505161327219388 [Eh]
	 Opposite-Spin Energy      =      -0.7541167321570547 [Eh]
	 Correlation Energy        =      -1.0046328648789935 [Eh]
	 Total Energy              =    -245.7235960944446447 [Eh]

	 ================> DF-SCS-MP2 Energies <==================
	-----------------------------------------------------------
	 SCS Same-Spin Scale       =       0.3333333333333333 [-]
	 SCS Opposite-Spin Scale   =       1.2000000000000000 [-]
	 SCS Same-Spin Energy      =      -0.0835053775739796 [Eh]
	 SCS Opposite-Spin Energy  =      -0.9049400785884656 [Eh]
	 SCS Correlation Energy    =      -0.9884454561624452 [Eh]
	 SCS Total Energy          =    -245.7074086857280975 [Eh]
	-----------------------------------------------------------

  Dipole Moment: [D]
     X:     0.7989      Y:    -1.4205      Z:     0.0001     Total:     1.6297

*** Psi4 exiting successfully. Buy a developer a beer!
