                               Psi4 1.3.2 release

  ==> Input File <==

--------------------------------------------------------------------------
#psi4
#
memory 32 gb

molecule  {
0 1
  O       -0.3732950    -1.0875170     0.0000230
  N       -0.3944950     1.1585740    -0.0000440
  C        0.9282580    -0.6566220     0.0000340
  C        0.8719021     0.7037579    -0.0000315
  C       -1.1010560     0.0631240     0.0000150
  H        1.6883170    -1.4215870     0.0000640
  H        1.7555780     1.3888440    -0.0000640
  H       -2.1757640    -0.0455290     0.0000210
units angstrom
no_reorient  #important for SAPT in psi4, default
symmetry c1  #important for SAPT in psi4, default
}

set PROPERTIES_ORIGIN ["COM"]
properties('MP2/aug-cc-pvtz', properties = ['dipole'])
--------------------------------------------------------------------------

    Molecular point group: c1
  Charge       = 0
  Multiplicity = 1
  Basis Set: AUG-CC-PVTZ
    Blend: AUG-CC-PVTZ
  Basis Set: (AUG-CC-PVTZ AUX)
    Blend: AUG-CC-PVTZ-JKFIT

    Orbital Energies [Eh]
    ---------------------

    Doubly Occupied:

       1A    -20.648520     2A    -15.574486     3A    -11.343703
       4A    -11.298018     5A    -11.268952     6A     -1.490914
       7A     -1.250316     8A     -1.033054     9A     -0.839458
      10A     -0.831286    11A     -0.754159    12A     -0.662718
      13A     -0.630714    14A     -0.598754    15A     -0.573641
      16A     -0.473667    17A     -0.466074    18A     -0.343451

  @DF-RHF Final Energy:  -244.71667589930217

   => Energetics <=

    Nuclear Repulsion Energy =            163.4438036088679382
    One-Electron Energy =                -656.1571871860336387
    Two-Electron Energy =                 247.9967076778635260
    Total Energy =                       -244.7166758993021745
  Basis Set: (AUG-CC-PVTZ AUX)
    Blend: AUG-CC-PVTZ-RI
    Molecular point group: c1

    Geometry (in Angstrom), charge = 0, multiplicity = 1:

       Center              X                  Y                   Z               Mass
    ------------   -----------------  -----------------  -----------------  -----------------
         O           -0.346815396876    -1.088575949121     0.000023247574    15.994914619570
         N           -0.368015396876     1.157515050879    -0.000043752426    14.003074004430
         C            0.954737603124    -0.657680949121     0.000034247574    12.000000000000
         C            0.898381703124     0.702698950879    -0.000031252426    12.000000000000
         C           -1.074576396876     0.062065050879     0.000015247574    12.000000000000
         H            1.714796603124    -1.422645949121     0.000064247574     1.007825032230
         H            1.782057603124     1.387785050879    -0.000063752426     1.007825032230
         H           -2.149284396876    -0.046587949121     0.000021247574     1.007825032230

  Basis Set: AUG-CC-PVTZ
    Blend: AUG-CC-PVTZ
  Basis Set: (AUG-CC-PVTZ AUX)
    Blend: AUG-CC-PVTZ-JKFIT
	 Reference Energy          =    -244.7166758993021745 [Eh]
	 Singles Energy            =      -0.0000000000000000 [Eh]
	 Same-Spin Energy          =      -0.2512181463015410 [Eh]
	 Opposite-Spin Energy      =      -0.7542726654291079 [Eh]
	 Correlation Energy        =      -1.0054908117306489 [Eh]
	 Total Energy              =    -245.7221667110328269 [Eh]

	 ================> DF-SCS-MP2 Energies <==================
	-----------------------------------------------------------
	 SCS Same-Spin Scale       =       0.3333333333333333 [-]
	 SCS Opposite-Spin Scale   =       1.2000000000000000 [-]
	 SCS Same-Spin Energy      =      -0.0837393821005137 [Eh]
	 SCS Opposite-Spin Energy  =      -0.9051271985149294 [Eh]
	 SCS Correlation Energy    =      -0.9888665806154431 [Eh]
	 SCS Total Energy          =    -245.7055424799176251 [Eh]
	-----------------------------------------------------------

  Dipole Moment: [D]
     X:     0.7411      Y:    -1.4294      Z:     0.0001     Total:     1.6101

*** Psi4 exiting successfully. Buy a developer a beer!
