                               Psi4 1.3.2 release

  ==> Input File <==

--------------------------------------------------------------------------
#psi4
#
memory 32 gb

molecule  {
0 1
  O       -0.3732950    -1.0875170     0.0000230
  N       -0.3944950     1.1585740    -0.0000440
  C        0.9282580    -0.6566220     0.0000340
  C        0.8244599     0.7009624    -0.0000309
  C       -1.1010560     0.0631240     0.0000150
  H        1.6883170    -1.4215870     0.0000640
  H        1.7555780     1.3888440    -0.0000640
  H       -2.1757640    -0.0455290     0.0000210
units angstrom
no_reorient  #important for SAPT in psi4, default
symmetry c1  #important for SAPT in psi4, default
}

set PROPERTIES_ORIGIN ["COM"]
properties('MP2/aug-cc-pvtz', properties = ['dipole'])
--------------------------------------------------------------------------

    Molecular point group: c1
  Charge       = 0
  Multiplicity = 1
  Basis Set: AUG-CC-PVTZ
    Blend: AUG-CC-PVTZ
  Basis Set: (AUG-CC-PVTZ AUX)
    Blend: AUG-CC-PVTZ-JKFIT

    Orbital Energies [Eh]
    ---------------------

    Doubly Occupied:

       1A    -20.649690     2A    -15.573491     3A    -11.345021
       4A    -11.295055     5A    -11.268901     6A     -1.494153
       7A     -1.266049     8A     -1.031461     9A     -0.840573
      10A     -0.834840    11A     -0.755083    12A     -0.665438
      13A     -0.631940    14A     -0.601425    15A     -0.562521
      16A     -0.476046    17A     -0.474625    18A     -0.339693

  @DF-RHF Final Energy:  -244.70702123904928

   => Energetics <=

    Nuclear Repulsion Energy =            164.2710430852371530
    One-Electron Energy =                -657.7441178791417542
    Two-Electron Energy =                 248.7660535548553469
    Total Energy =                       -244.7070212390492827
  Basis Set: (AUG-CC-PVTZ AUX)
    Blend: AUG-CC-PVTZ-RI
    Molecular point group: c1

    Geometry (in Angstrom), charge = 0, multiplicity = 1:

       Center              X                  Y                   Z               Mass
    ------------   -----------------  -----------------  -----------------  -----------------
         O           -0.338567145256    -1.088089926395     0.000023143258    15.994914619570
         N           -0.359767145256     1.158001073605    -0.000043856742    14.003074004430
         C            0.962985854744    -0.657194926395     0.000034143258    12.000000000000
         C            0.859187754744     0.700389473605    -0.000030756742    12.000000000000
         C           -1.066328145256     0.062551073605     0.000015143258    12.000000000000
         H            1.723044854744    -1.422159926395     0.000064143258     1.007825032230
         H            1.790305854744     1.388271073605    -0.000063856742     1.007825032230
         H           -2.141036145256    -0.046101926395     0.000021143258     1.007825032230

  Basis Set: AUG-CC-PVTZ
    Blend: AUG-CC-PVTZ
  Basis Set: (AUG-CC-PVTZ AUX)
    Blend: AUG-CC-PVTZ-JKFIT
	 Reference Energy          =    -244.7070212390492827 [Eh]
	 Singles Energy            =      -0.0000000000000000 [Eh]
	 Same-Spin Energy          =      -0.2519525121161043 [Eh]
	 Opposite-Spin Energy      =      -0.7545586038345736 [Eh]
	 Correlation Energy        =      -1.0065111159506779 [Eh]
	 Total Energy              =    -245.7135323549999555 [Eh]

	 ================> DF-SCS-MP2 Energies <==================
	-----------------------------------------------------------
	 SCS Same-Spin Scale       =       0.3333333333333333 [-]
	 SCS Opposite-Spin Scale   =       1.2000000000000000 [-]
	 SCS Same-Spin Energy      =      -0.0839841707053681 [Eh]
	 SCS Opposite-Spin Energy  =      -0.9054703246014884 [Eh]
	 SCS Correlation Energy    =      -0.9894544953068565 [Eh]
	 SCS Total Energy          =    -245.6964757343561416 [Eh]
	-----------------------------------------------------------

  Dipole Moment: [D]
     X:     0.6812      Y:    -1.4450      Z:     0.0001     Total:     1.5975

*** Psi4 exiting successfully. Buy a developer a beer!
