                               Psi4 1.3.2 release

  ==> Input File <==

--------------------------------------------------------------------------
#psi4
#
memory 32 gb

molecule  {
0 1
  O       -0.3732950    -1.0875170     0.0000230
  N       -0.3944950     1.1585740    -0.0000440
  C        0.9044949    -0.6565690     0.0000340
  C        0.9194130     0.7048960    -0.0000320
  C       -1.1010560     0.0631240     0.0000150
  H        1.6883170    -1.4215870     0.0000640
  H        1.7555780     1.3888440    -0.0000640
  H       -2.1757640    -0.0455290     0.0000210
units angstrom
no_reorient  #important for SAPT in psi4, default
symmetry c1  #important for SAPT in psi4, default
}

set PROPERTIES_ORIGIN ["COM"]
properties('MP2/aug-cc-pvtz', properties = ['dipole'])
--------------------------------------------------------------------------

    Molecular point group: c1
  Charge       = 0
  Multiplicity = 1
  Basis Set: AUG-CC-PVTZ
    Blend: AUG-CC-PVTZ
  Basis Set: (AUG-CC-PVTZ AUX)
    Blend: AUG-CC-PVTZ-JKFIT

    Orbital Energies [Eh]
    ---------------------

    Doubly Occupied:

       1A    -20.650645     2A    -15.575983     3A    -11.341469
       4A    -11.301854     5A    -11.267228     6A     -1.497686
       7A     -1.237711     8A     -1.034528     9A     -0.847263
      10A     -0.822109    11A     -0.755759    12A     -0.666023
      13A     -0.629526    14A     -0.596971    15A     -0.583567
      16A     -0.469029    17A     -0.459390    18A     -0.345729

  @DF-RHF Final Energy:  -244.71968048146809

   => Energetics <=

    Nuclear Repulsion Energy =            163.0836089982205124
    One-Electron Energy =                -655.4416403790456798
    Two-Electron Energy =                 247.6383508993571070
    Total Energy =                       -244.7196804814680888
  Basis Set: (AUG-CC-PVTZ AUX)
    Blend: AUG-CC-PVTZ-RI
    Molecular point group: c1

    Geometry (in Angstrom), charge = 0, multiplicity = 1:

       Center              X                  Y                   Z               Mass
    ------------   -----------------  -----------------  -----------------  -----------------
         O           -0.350944164721    -1.088783032530     0.000023334503    15.994914619570
         N           -0.372144164721     1.157307967470    -0.000043665497    14.003074004430
         C            0.926845735279    -0.657835032530     0.000034334503    12.000000000000
         C            0.941763835279     0.703629967470    -0.000031665497    12.000000000000
         C           -1.078705164721     0.061857967470     0.000015334503    12.000000000000
         H            1.710667835279    -1.422853032530     0.000064334503     1.007825032230
         H            1.777928835279     1.387577967470    -0.000063665497     1.007825032230
         H           -2.153413164721    -0.046795032530     0.000021334503     1.007825032230

  Basis Set: AUG-CC-PVTZ
    Blend: AUG-CC-PVTZ
  Basis Set: (AUG-CC-PVTZ AUX)
    Blend: AUG-CC-PVTZ-JKFIT
	 Reference Energy          =    -244.7196804814680888 [Eh]
	 Singles Energy            =      -0.0000000000000000 [Eh]
	 Same-Spin Energy          =      -0.2506954630158638 [Eh]
	 Opposite-Spin Energy      =      -0.7540228516819534 [Eh]
	 Correlation Energy        =      -1.0047183146978171 [Eh]
	 Total Energy              =    -245.7243987961659002 [Eh]

	 ================> DF-SCS-MP2 Energies <==================
	-----------------------------------------------------------
	 SCS Same-Spin Scale       =       0.3333333333333333 [-]
	 SCS Opposite-Spin Scale   =       1.2000000000000000 [-]
	 SCS Same-Spin Energy      =      -0.0835651543386212 [Eh]
	 SCS Opposite-Spin Energy  =      -0.9048274220183440 [Eh]
	 SCS Correlation Energy    =      -0.9883925763569652 [Eh]
	 SCS Total Energy          =    -245.7080730578250609 [Eh]
	-----------------------------------------------------------

  Dipole Moment: [D]
     X:     0.7570      Y:    -1.4365      Z:     0.0001     Total:     1.6237

*** Psi4 exiting successfully. Buy a developer a beer!
