                               Psi4 1.3.2 release

  ==> Input File <==

--------------------------------------------------------------------------
#psi4
#
memory 32 gb

molecule  {
0 1
  O       -0.3732950    -1.0875170     0.0000230
  N       -0.3198014     1.1066183    -0.0000412
  C        0.9282580    -0.6566220     0.0000340
  C        0.9194130     0.7048960    -0.0000320
  C       -1.1010560     0.0631240     0.0000150
  H        1.6883170    -1.4215870     0.0000640
  H        1.7555780     1.3888440    -0.0000640
  H       -2.1757640    -0.0455290     0.0000210
units angstrom
no_reorient  #important for SAPT in psi4, default
symmetry c1  #important for SAPT in psi4, default
}

set PROPERTIES_ORIGIN ["COM"]
properties('MP2/aug-cc-pvtz', properties = ['dipole'])
--------------------------------------------------------------------------

    Molecular point group: c1
  Charge       = 0
  Multiplicity = 1
  Basis Set: AUG-CC-PVTZ
    Blend: AUG-CC-PVTZ
  Basis Set: (AUG-CC-PVTZ AUX)
    Blend: AUG-CC-PVTZ-JKFIT

    Orbital Energies [Eh]
    ---------------------

    Doubly Occupied:

       1A    -20.648033     2A    -15.564440     3A    -11.339861
       4A    -11.296876     5A    -11.260585     6A     -1.491187
       7A     -1.254423     8A     -1.034315     9A     -0.841547
      10A     -0.835204    11A     -0.756688    12A     -0.662340
      13A     -0.628736    14A     -0.617053    15A     -0.583337
      16A     -0.468905    17A     -0.455343    18A     -0.338926

  @DF-RHF Final Energy:  -244.71332050759298

   => Energetics <=

    Nuclear Repulsion Energy =            164.4954404965167782
    One-Electron Energy =                -658.2619240824669760
    Two-Electron Energy =                 249.0531630783572155
    Total Energy =                       -244.7133205075929823
  Basis Set: (AUG-CC-PVTZ AUX)
    Blend: AUG-CC-PVTZ-RI
    Molecular point group: c1

    Geometry (in Angstrom), charge = 0, multiplicity = 1:

       Center              X                  Y                   Z               Mass
    ------------   -----------------  -----------------  -----------------  -----------------
         O           -0.370229429575    -1.078233046007     0.000022766439    15.994914619570
         N           -0.316735829575     1.115902253993    -0.000041433561    14.003074004430
         C            0.931323570425    -0.647338046007     0.000033766439    12.000000000000
         C            0.922478570425     0.714179953993    -0.000032233561    12.000000000000
         C           -1.097990429575     0.072407953993     0.000014766439    12.000000000000
         H            1.691382570425    -1.412303046007     0.000063766439     1.007825032230
         H            1.758643570425     1.398127953993    -0.000064233561     1.007825032230
         H           -2.172698429575    -0.036245046007     0.000020766439     1.007825032230

  Basis Set: AUG-CC-PVTZ
    Blend: AUG-CC-PVTZ
  Basis Set: (AUG-CC-PVTZ AUX)
    Blend: AUG-CC-PVTZ-JKFIT
	 Reference Energy          =    -244.7133205075929823 [Eh]
	 Singles Energy            =      -0.0000000000000000 [Eh]
	 Same-Spin Energy          =      -0.2518922097757916 [Eh]
	 Opposite-Spin Energy      =      -0.7538987650147586 [Eh]
	 Correlation Energy        =      -1.0057909747905502 [Eh]
	 Total Energy              =    -245.7191114823835392 [Eh]

	 ================> DF-SCS-MP2 Energies <==================
	-----------------------------------------------------------
	 SCS Same-Spin Scale       =       0.3333333333333333 [-]
	 SCS Opposite-Spin Scale   =       1.2000000000000000 [-]
	 SCS Same-Spin Energy      =      -0.0839640699252639 [Eh]
	 SCS Opposite-Spin Energy  =      -0.9046785180177103 [Eh]
	 SCS Correlation Energy    =      -0.9886425879429741 [Eh]
	 SCS Total Energy          =    -245.7019630955359446 [Eh]
	-----------------------------------------------------------

  Dipole Moment: [D]
     X:     0.6767      Y:    -1.3080      Z:     0.0001     Total:     1.4727

*** Psi4 exiting successfully. Buy a developer a beer!
