                               Psi4 1.4a3.dev225

  ==> Input File <==

--------------------------------------------------------------------------
#psi4
#
memory 32 gb

molecule  {
0 1
  O       -0.3732950    -1.0875170     0.0000230
  N       -0.3944950     1.1585740    -0.0000440
  C        0.9282580    -0.6566220     0.0000340
  C        0.9194130     0.7048960    -0.0000320
  C       -1.1117468     0.0800269     0.0000149
  H        1.6883170    -1.4215870     0.0000640
  H        1.7555780     1.3888440    -0.0000640
  H       -2.1757640    -0.0455290     0.0000210
units angstrom
no_reorient  #important for SAPT in psi4, default
symmetry c1  #important for SAPT in psi4, default
}

set PROPERTIES_ORIGIN ["COM"]
properties('MP2/aug-cc-pvtz', properties = ['dipole'])
--------------------------------------------------------------------------

    Molecular point group: c1
  Charge       = 0
  Multiplicity = 1
  Basis Set: AUG-CC-PVTZ
    Blend: AUG-CC-PVTZ
  Basis Set: (AUG-CC-PVTZ AUX)
    Blend: AUG-CC-PVTZ-JKFIT

    Orbital Energies [Eh]
    ---------------------

    Doubly Occupied:

       1A    -20.644090     2A    -15.576528     3A    -11.342170
       4A    -11.302118     5A    -11.268825     6A     -1.480101
       7A     -1.237992     8A     -1.034010     9A     -0.840872
      10A     -0.825983    11A     -0.751656    12A     -0.655944
      13A     -0.629229    14A     -0.602622    15A     -0.579513
      16A     -0.468766    17A     -0.459654    18A     -0.347654

  @DF-RHF Final Energy:  -244.71918165578447

   => Energetics <=

    Nuclear Repulsion Energy =            162.4337402706948126
    One-Electron Energy =                -654.2103880632141681
    Two-Electron Energy =                 247.0574661367349165
    Total Energy =                       -244.7191816557844675
  Basis Set: (AUG-CC-PVTZ AUX)
    Blend: AUG-CC-PVTZ-RI
    Molecular point group: c1

    Geometry (in Angstrom), charge = 0, multiplicity = 1:

       Center              X                  Y                   Z               Mass
    ------------   -----------------  -----------------  -----------------  -----------------
         O           -0.353216901223    -1.091712538645     0.000023351889    15.994914619570
         N           -0.374416901223     1.154378461355    -0.000043648111    14.003074004430
         C            0.948336098777    -0.660817538645     0.000034351889    12.000000000000
         C            0.939491098777     0.700700461355    -0.000031648111    12.000000000000
         C           -1.091668701223     0.075831361355     0.000015251889    12.000000000000
         H            1.708395098777    -1.425782538645     0.000064351889     1.007825032230
         H            1.775656098777     1.384648461355    -0.000063648111     1.007825032230
         H           -2.155685901223    -0.049724538645     0.000021351889     1.007825032230

  Basis Set: AUG-CC-PVTZ
    Blend: AUG-CC-PVTZ
  Basis Set: (AUG-CC-PVTZ AUX)
    Blend: AUG-CC-PVTZ-JKFIT
	 Reference Energy          =    -244.7191816557844675 [Eh]
	 Singles Energy            =      -0.0000000000000000 [Eh]
	 Same-Spin Energy          =      -0.2506005403070733 [Eh]
	 Opposite-Spin Energy      =      -0.7546024059842420 [Eh]
	 Correlation Energy        =      -1.0052029462913152 [Eh]
	 Total Energy              =    -245.7243846020757871 [Eh]

	 ================> DF-SCS-MP2 Energies <==================
	-----------------------------------------------------------
	 SCS Same-Spin Scale       =       0.3333333333333333 [-]
	 SCS Opposite-Spin Scale   =       1.2000000000000000 [-]
	 SCS Same-Spin Energy      =      -0.0835335134356911 [Eh]
	 SCS Opposite-Spin Energy  =      -0.9055228871810903 [Eh]
	 SCS Correlation Energy    =      -0.9890564006167815 [Eh]
	 SCS Total Energy          =    -245.7082380564012567 [Eh]
	-----------------------------------------------------------

  Dipole Moment: [D]
     X:     0.7595      Y:    -1.3608      Z:     0.0001     Total:     1.5584

*** Psi4 exiting successfully. Buy a developer a beer!
