                               Psi4 1.3.2 release

  ==> Input File <==

--------------------------------------------------------------------------
#psi4
#
memory 32 gb

molecule  {
0 1
  O       -0.3732950    -1.0875170     0.0000230
  N       -0.3596474     1.2491225    -0.0000479
  C        0.9282580    -0.6566220     0.0000340
  C        0.9194130     0.7048960    -0.0000320
  C       -1.1010560     0.0631240     0.0000150
  H        1.6883170    -1.4215870     0.0000640
  H        1.7555780     1.3888440    -0.0000640
  H       -2.1757640    -0.0455290     0.0000210
units angstrom
no_reorient  #important for SAPT in psi4, default
symmetry c1  #important for SAPT in psi4, default
}

set PROPERTIES_ORIGIN ["COM"]
properties('MP2/aug-cc-pvtz', properties = ['dipole'])
--------------------------------------------------------------------------

    Molecular point group: c1
  Charge       = 0
  Multiplicity = 1
  Basis Set: AUG-CC-PVTZ
    Blend: AUG-CC-PVTZ
  Basis Set: (AUG-CC-PVTZ AUX)
    Blend: AUG-CC-PVTZ-JKFIT

    Orbital Energies [Eh]
    ---------------------

    Doubly Occupied:

       1A    -20.659961     2A    -15.590581     3A    -11.360124
       4A    -11.299502     5A    -11.270423     6A     -1.490751
       7A     -1.217772     8A     -1.029177     9A     -0.846970
      10A     -0.821294    11A     -0.754786    12A     -0.660455
      13A     -0.632252    14A     -0.587801    15A     -0.576909
      16A     -0.480376    17A     -0.452420    18A     -0.339640

  @DF-RHF Final Energy:  -244.70091658369191

   => Energetics <=

    Nuclear Repulsion Energy =            160.7158653049986867
    One-Electron Energy =                -650.6911768712620869
    Two-Electron Energy =                 245.2743949825714651
    Total Energy =                       -244.7009165836919067
  Basis Set: (AUG-CC-PVTZ AUX)
    Blend: AUG-CC-PVTZ-RI
    Molecular point group: c1

    Geometry (in Angstrom), charge = 0, multiplicity = 1:

       Center              X                  Y                   Z               Mass
    ------------   -----------------  -----------------  -----------------  -----------------
         O           -0.362145473415    -1.107144296957     0.000024125735    15.994914619570
         N           -0.348497873415     1.229495203043    -0.000046774265    14.003074004430
         C            0.939407526585    -0.676249296957     0.000035125735    12.000000000000
         C            0.930562526585     0.685268703043    -0.000030874265    12.000000000000
         C           -1.089906473415     0.043496703043     0.000016125735    12.000000000000
         H            1.699466526585    -1.441214296957     0.000065125735     1.007825032230
         H            1.766727526585     1.369216703043    -0.000062874265     1.007825032230
         H           -2.164614473415    -0.065156296957     0.000022125735     1.007825032230

  Basis Set: AUG-CC-PVTZ
    Blend: AUG-CC-PVTZ
  Basis Set: (AUG-CC-PVTZ AUX)
    Blend: AUG-CC-PVTZ-JKFIT
	 Reference Energy          =    -244.7009165836919067 [Eh]
	 Singles Energy            =      -0.0000000000000000 [Eh]
	 Same-Spin Energy          =      -0.2531915122260729 [Eh]
	 Opposite-Spin Energy      =      -0.7600235515952163 [Eh]
	 Correlation Energy        =      -1.0132150638212893 [Eh]
	 Total Energy              =    -245.7141316475131987 [Eh]

	 ================> DF-SCS-MP2 Energies <==================
	-----------------------------------------------------------
	 SCS Same-Spin Scale       =       0.3333333333333333 [-]
	 SCS Opposite-Spin Scale   =       1.2000000000000000 [-]
	 SCS Same-Spin Energy      =      -0.0843971707420243 [Eh]
	 SCS Opposite-Spin Energy  =      -0.9120282619142595 [Eh]
	 SCS Correlation Energy    =      -0.9964254326562838 [Eh]
	 SCS Total Energy          =    -245.6973420163481876 [Eh]
	-----------------------------------------------------------

  Dipole Moment: [D]
     X:     0.7704      Y:    -1.6109      Z:     0.0001     Total:     1.7856

*** Psi4 exiting successfully. Buy a developer a beer!
