                               Psi4 1.3.2 release

  ==> Input File <==

--------------------------------------------------------------------------
#psi4
#
memory 32 gb

molecule  {
0 1
  O       -0.3732950    -1.0875170     0.0000230
  N       -0.4137209     1.1707383    -0.0000447
  C        0.9282580    -0.6566220     0.0000340
  C        0.9194130     0.7048960    -0.0000320
  C       -1.1010560     0.0631240     0.0000150
  H        1.6883170    -1.4215870     0.0000640
  H        1.7555780     1.3888440    -0.0000640
  H       -2.1757640    -0.0455290     0.0000210
units angstrom
no_reorient  #important for SAPT in psi4, default
symmetry c1  #important for SAPT in psi4, default
}

set PROPERTIES_ORIGIN ["COM"]
properties('MP2/aug-cc-pvtz', properties = ['dipole'])
--------------------------------------------------------------------------

    Molecular point group: c1
  Charge       = 0
  Multiplicity = 1
  Basis Set: AUG-CC-PVTZ
    Blend: AUG-CC-PVTZ
  Basis Set: (AUG-CC-PVTZ AUX)
    Blend: AUG-CC-PVTZ-JKFIT

    Orbital Energies [Eh]
    ---------------------

    Doubly Occupied:

       1A    -20.647654     2A    -15.578135     3A    -11.343383
       4A    -11.302477     5A    -11.271424     6A     -1.487973
       7A     -1.232204     8A     -1.034984     9A     -0.844765
      10A     -0.820842    11A     -0.753176    12A     -0.660451
      13A     -0.630609    14A     -0.592630    15A     -0.582870
      16A     -0.471968    17A     -0.456129    18A     -0.349416

  @DF-RHF Final Energy:  -244.71910145576513

   => Energetics <=

    Nuclear Repulsion Energy =            162.2333662285165303
    One-Electron Energy =                -653.7827540996934204
    Two-Electron Energy =                 246.8302864154117913
    Total Energy =                       -244.7191014557651272
  Basis Set: (AUG-CC-PVTZ AUX)
    Blend: AUG-CC-PVTZ-RI
    Molecular point group: c1

    Geometry (in Angstrom), charge = 0, multiplicity = 1:

       Center              X                  Y                   Z               Mass
    ------------   -----------------  -----------------  -----------------  -----------------
         O           -0.351175042170    -1.091241711091     0.000023476519    15.994914619570
         N           -0.391600942170     1.167013588909    -0.000044223481    14.003074004430
         C            0.950377957830    -0.660346711091     0.000034476519    12.000000000000
         C            0.941532957830     0.701171288909    -0.000031523481    12.000000000000
         C           -1.078936042170     0.059399288909     0.000015476519    12.000000000000
         H            1.710436957830    -1.425311711091     0.000064476519     1.007825032230
         H            1.777697957830     1.385119288909    -0.000063523481     1.007825032230
         H           -2.153644042170    -0.049253711091     0.000021476519     1.007825032230

  Basis Set: AUG-CC-PVTZ
    Blend: AUG-CC-PVTZ
  Basis Set: (AUG-CC-PVTZ AUX)
    Blend: AUG-CC-PVTZ-JKFIT
	 Reference Energy          =    -244.7191014557651272 [Eh]
	 Singles Energy            =      -0.0000000000000000 [Eh]
	 Same-Spin Energy          =      -0.2503619372765231 [Eh]
	 Opposite-Spin Energy      =      -0.7545884043411369 [Eh]
	 Correlation Energy        =      -1.0049503416176599 [Eh]
	 Total Energy              =    -245.7240517973827991 [Eh]

	 ================> DF-SCS-MP2 Energies <==================
	-----------------------------------------------------------
	 SCS Same-Spin Scale       =       0.3333333333333333 [-]
	 SCS Opposite-Spin Scale   =       1.2000000000000000 [-]
	 SCS Same-Spin Energy      =      -0.0834539790921744 [Eh]
	 SCS Opposite-Spin Energy  =      -0.9055060852093643 [Eh]
	 SCS Correlation Energy    =      -0.9889600643015386 [Eh]
	 SCS Total Energy          =    -245.7080615200666784 [Eh]
	-----------------------------------------------------------

  Dipole Moment: [D]
     X:     0.8120      Y:    -1.4418      Z:     0.0001     Total:     1.6547

*** Psi4 exiting successfully. Buy a developer a beer!
