                               Psi4 1.4a3.dev225

  ==> Input File <==

--------------------------------------------------------------------------
#psi4
#
memory 32 gb

molecule  {
0 1
  O       -0.3732950    -1.0875170     0.0000230
  N       -0.3944950     1.1585740    -0.0000440
  C        0.9282580    -0.6566220     0.0000340
  C        0.9005082     0.7114236    -0.0000322
  C       -1.1010560     0.0631240     0.0000150
  H        1.6883170    -1.4215870     0.0000640
  H        1.7555780     1.3888440    -0.0000640
  H       -2.1757640    -0.0455290     0.0000210
units angstrom
no_reorient  #important for SAPT in psi4, default
symmetry c1  #important for SAPT in psi4, default
}

set PROPERTIES_ORIGIN ["COM"]
properties('MP2/aug-cc-pvtz', properties = ['dipole'])
--------------------------------------------------------------------------

    Molecular point group: c1
  Charge       = 0
  Multiplicity = 1
  Basis Set: AUG-CC-PVTZ
    Blend: AUG-CC-PVTZ
  Basis Set: (AUG-CC-PVTZ AUX)
    Blend: AUG-CC-PVTZ-JKFIT

    Orbital Energies [Eh]
    ---------------------

    Doubly Occupied:

       1A    -20.648510     2A    -15.575113     3A    -11.342954
       4A    -11.300835     5A    -11.269722     6A     -1.489318
       7A     -1.242083     8A     -1.032977     9A     -0.841873
      10A     -0.827067    11A     -0.754004    12A     -0.661270
      13A     -0.630755    14A     -0.598990    15A     -0.579848
      16A     -0.470606    17A     -0.461694    18A     -0.344414

  @DF-RHF Final Energy:  -244.71902057406675

   => Energetics <=

    Nuclear Repulsion Energy =            162.8940916556519198
    One-Electron Energy =                -655.0821541386670788
    Two-Electron Energy =                 247.4690419089484408
    Total Energy =                       -244.7190205740667466
  Basis Set: (AUG-CC-PVTZ AUX)
    Blend: AUG-CC-PVTZ-RI
    Molecular point group: c1

    Geometry (in Angstrom), charge = 0, multiplicity = 1:

       Center              X                  Y                   Z               Mass
    ------------   -----------------  -----------------  -----------------  -----------------
         O           -0.351788823713    -1.089908699762     0.000023369275    15.994914619570
         N           -0.372988823713     1.156182300238    -0.000043630725    14.003074004430
         C            0.949764176287    -0.659013699762     0.000034369275    12.000000000000
         C            0.922014376287     0.709031900238    -0.000031830725    12.000000000000
         C           -1.079549823713     0.060732300238     0.000015369275    12.000000000000
         H            1.709823176287    -1.423978699762     0.000064369275     1.007825032230
         H            1.777084176287     1.386452300238    -0.000063630725     1.007825032230
         H           -2.154257823713    -0.047920699762     0.000021369275     1.007825032230

  Basis Set: AUG-CC-PVTZ
    Blend: AUG-CC-PVTZ
  Basis Set: (AUG-CC-PVTZ AUX)
    Blend: AUG-CC-PVTZ-JKFIT
	 Reference Energy          =    -244.7190205740667466 [Eh]
	 Singles Energy            =      -0.0000000000000000 [Eh]
	 Same-Spin Energy          =      -0.2509668889243034 [Eh]
	 Opposite-Spin Energy      =      -0.7544660727206323 [Eh]
	 Correlation Energy        =      -1.0054329616449356 [Eh]
	 Total Energy              =    -245.7244535357116888 [Eh]

	 ================> DF-SCS-MP2 Energies <==================
	-----------------------------------------------------------
	 SCS Same-Spin Scale       =       0.3333333333333333 [-]
	 SCS Opposite-Spin Scale   =       1.2000000000000000 [-]
	 SCS Same-Spin Energy      =      -0.0836556296414345 [Eh]
	 SCS Opposite-Spin Energy  =      -0.9053592872647587 [Eh]
	 SCS Correlation Energy    =      -0.9890149169061931 [Eh]
	 SCS Total Energy          =    -245.7080354909729465 [Eh]
	-----------------------------------------------------------

  Dipole Moment: [D]
     X:     0.7722      Y:    -1.4198      Z:     0.0001     Total:     1.6163

*** Psi4 exiting successfully. Buy a developer a beer!
