                               Psi4 1.3.2 release

  ==> Input File <==

--------------------------------------------------------------------------
#psi4
#
memory 32 gb

molecule  {
0 1
  O       -0.3732950    -1.0875170     0.0000230
  N       -0.3944950     1.1585740    -0.0000440
  C        0.9282580    -0.6566220     0.0000340
  C        0.9194130     0.7048960    -0.0000320
  C       -1.1552589    -0.0209120     0.0000195
  H        1.6883170    -1.4215870     0.0000640
  H        1.7555780     1.3888440    -0.0000640
  H       -2.1757640    -0.0455290     0.0000210
units angstrom
no_reorient  #important for SAPT in psi4, default
symmetry c1  #important for SAPT in psi4, default
}

set PROPERTIES_ORIGIN ["COM"]
properties('MP2/aug-cc-pvtz', properties = ['dipole'])
--------------------------------------------------------------------------

    Molecular point group: c1
  Charge       = 0
  Multiplicity = 1
  Basis Set: AUG-CC-PVTZ
    Blend: AUG-CC-PVTZ
  Basis Set: (AUG-CC-PVTZ AUX)
    Blend: AUG-CC-PVTZ-JKFIT

    Orbital Energies [Eh]
    ---------------------

    Doubly Occupied:

       1A    -20.658986     2A    -15.577792     3A    -11.348714
       4A    -11.299619     5A    -11.270095     6A     -1.502053
       7A     -1.204201     8A     -1.039915     9A     -0.848644
      10A     -0.826769    11A     -0.762157    12A     -0.666230
      13A     -0.649856    14A     -0.596526    15A     -0.576292
      16A     -0.458396    17A     -0.443689    18A     -0.339814

  @DF-RHF Final Energy:  -244.70156461644444

   => Energetics <=

    Nuclear Repulsion Energy =            161.7177453366941791
    One-Electron Energy =                -652.6991207101046939
    Two-Electron Energy =                 246.2798107569660715
    Total Energy =                       -244.7015646164444433
  Basis Set: (AUG-CC-PVTZ AUX)
    Blend: AUG-CC-PVTZ-RI
    Molecular point group: c1

    Geometry (in Angstrom), charge = 0, multiplicity = 1:

       Center              X                  Y                   Z               Mass
    ------------   -----------------  -----------------  -----------------  -----------------
         O           -0.345651932706    -1.074163406321     0.000022552138    15.994914619570
         N           -0.366851932706     1.171927593679    -0.000044447862    14.003074004430
         C            0.955901067294    -0.643268406321     0.000033552138    12.000000000000
         C            0.947056067294     0.718249593679    -0.000032447862    12.000000000000
         C           -1.127615832706    -0.007558406321     0.000019052138    12.000000000000
         H            1.715960067294    -1.408233406321     0.000063552138     1.007825032230
         H            1.783221067294     1.402197593679    -0.000064447862     1.007825032230
         H           -2.148120932706    -0.032175406321     0.000020552138     1.007825032230

  Basis Set: AUG-CC-PVTZ
    Blend: AUG-CC-PVTZ
  Basis Set: (AUG-CC-PVTZ AUX)
    Blend: AUG-CC-PVTZ-JKFIT
	 Reference Energy          =    -244.7015646164444433 [Eh]
	 Singles Energy            =      -0.0000000000000000 [Eh]
	 Same-Spin Energy          =      -0.2526480999320131 [Eh]
	 Opposite-Spin Energy      =      -0.7576577824715605 [Eh]
	 Correlation Energy        =      -1.0103058824035736 [Eh]
	 Total Energy              =    -245.7118704988480147 [Eh]

	 ================> DF-SCS-MP2 Energies <==================
	-----------------------------------------------------------
	 SCS Same-Spin Scale       =       0.3333333333333333 [-]
	 SCS Opposite-Spin Scale   =       1.2000000000000000 [-]
	 SCS Same-Spin Energy      =      -0.0842160333106710 [Eh]
	 SCS Opposite-Spin Energy  =      -0.9091893389658725 [Eh]
	 SCS Correlation Energy    =      -0.9934053722765436 [Eh]
	 SCS Total Energy          =    -245.6949699887209988 [Eh]
	-----------------------------------------------------------

  Dipole Moment: [D]
     X:     0.8291      Y:    -1.6841      Z:     0.0001     Total:     1.8771

*** Psi4 exiting successfully. Buy a developer a beer!
