                               Psi4 1.3.2 release

  ==> Input File <==

--------------------------------------------------------------------------
#psi4
#
memory 32 gb

molecule  {
0 1
  O       -0.3732950    -1.0875170     0.0000230
  N       -0.3944950     1.1585740    -0.0000440
  C        0.9282580    -0.6566220     0.0000340
  C        0.8248892     0.7375340    -0.0000329
  C       -1.1010560     0.0631240     0.0000150
  H        1.6883170    -1.4215870     0.0000640
  H        1.7555780     1.3888440    -0.0000640
  H       -2.1757640    -0.0455290     0.0000210
units angstrom
no_reorient  #important for SAPT in psi4, default
symmetry c1  #important for SAPT in psi4, default
}

set PROPERTIES_ORIGIN ["COM"]
properties('MP2/aug-cc-pvtz', properties = ['dipole'])
--------------------------------------------------------------------------

    Molecular point group: c1
  Charge       = 0
  Multiplicity = 1
  Basis Set: AUG-CC-PVTZ
    Blend: AUG-CC-PVTZ
  Basis Set: (AUG-CC-PVTZ AUX)
    Blend: AUG-CC-PVTZ-JKFIT

    Orbital Energies [Eh]
    ---------------------

    Doubly Occupied:

       1A    -20.652595     2A    -15.573164     3A    -11.343911
       4A    -11.299137     5A    -11.271626     6A     -1.493582
       7A     -1.269145     8A     -1.025859     9A     -0.841506
      10A     -0.834298    11A     -0.755421    12A     -0.664375
      13A     -0.633769    14A     -0.605677    15A     -0.566899
      16A     -0.477056    17A     -0.471978    18A     -0.332331

  @DF-RHF Final Energy:  -244.70512545226009

   => Energetics <=

    Nuclear Repulsion Energy =            163.8720443241520854
    One-Electron Energy =                -656.9296812844598890
    Two-Electron Energy =                 248.3525115080477406
    Total Energy =                       -244.7051254522600914
  Basis Set: (AUG-CC-PVTZ AUX)
    Blend: AUG-CC-PVTZ-RI
    Molecular point group: c1

    Geometry (in Angstrom), charge = 0, multiplicity = 1:

       Center              X                  Y                   Z               Mass
    ------------   -----------------  -----------------  -----------------  -----------------
         O           -0.338641782908    -1.094448226789     0.000023490976    15.994914619570
         N           -0.359841782908     1.151642773211    -0.000043509024    14.003074004430
         C            0.962911217092    -0.663553226789     0.000034490976    12.000000000000
         C            0.859542417092     0.730602773211    -0.000032409024    12.000000000000
         C           -1.066402782908     0.056192773211     0.000015490976    12.000000000000
         H            1.722970217092    -1.428518226789     0.000064490976     1.007825032230
         H            1.790231217092     1.381912773211    -0.000063509024     1.007825032230
         H           -2.141110782908    -0.052460226789     0.000021490976     1.007825032230

  Basis Set: AUG-CC-PVTZ
    Blend: AUG-CC-PVTZ
  Basis Set: (AUG-CC-PVTZ AUX)
    Blend: AUG-CC-PVTZ-JKFIT
	 Reference Energy          =    -244.7051254522600914 [Eh]
	 Singles Energy            =      -0.0000000000000000 [Eh]
	 Same-Spin Energy          =      -0.2527187414143512 [Eh]
	 Opposite-Spin Energy      =      -0.7556646844111627 [Eh]
	 Correlation Energy        =      -1.0083834258255140 [Eh]
	 Total Energy              =    -245.7135088780856051 [Eh]

	 ================> DF-SCS-MP2 Energies <==================
	-----------------------------------------------------------
	 SCS Same-Spin Scale       =       0.3333333333333333 [-]
	 SCS Opposite-Spin Scale   =       1.2000000000000000 [-]
	 SCS Same-Spin Energy      =      -0.0842395804714504 [Eh]
	 SCS Opposite-Spin Energy  =      -0.9067976212933953 [Eh]
	 SCS Correlation Energy    =      -0.9910372017648457 [Eh]
	 SCS Total Energy          =    -245.6961626540249313 [Eh]
	-----------------------------------------------------------

  Dipole Moment: [D]
     X:     0.7093      Y:    -1.4122      Z:     0.0001     Total:     1.5803

*** Psi4 exiting successfully. Buy a developer a beer!
