                               Psi4 1.3.2 release

  ==> Input File <==

--------------------------------------------------------------------------
#psi4
#
memory 32 gb

molecule  {
0 1
  O       -0.4138951    -1.1122146     0.0000252
  N       -0.3944950     1.1585740    -0.0000440
  C        0.9282580    -0.6566220     0.0000340
  C        0.9194130     0.7048960    -0.0000320
  C       -1.1010560     0.0631240     0.0000150
  H        1.6883170    -1.4215870     0.0000640
  H        1.7555780     1.3888440    -0.0000640
  H       -2.1757640    -0.0455290     0.0000210
units angstrom
no_reorient  #important for SAPT in psi4, default
symmetry c1  #important for SAPT in psi4, default
}

set PROPERTIES_ORIGIN ["COM"]
properties('MP2/aug-cc-pvtz', properties = ['dipole'])
--------------------------------------------------------------------------

    Molecular point group: c1
  Charge       = 0
  Multiplicity = 1
  Basis Set: AUG-CC-PVTZ
    Blend: AUG-CC-PVTZ
  Basis Set: (AUG-CC-PVTZ AUX)
    Blend: AUG-CC-PVTZ-JKFIT

    Orbital Energies [Eh]
    ---------------------

    Doubly Occupied:

       1A    -20.647385     2A    -15.575500     3A    -11.344952
       4A    -11.304060     5A    -11.274712     6A     -1.474465
       7A     -1.237503     8A     -1.031999     9A     -0.837131
      10A     -0.826954    11A     -0.749072    12A     -0.653056
      13A     -0.622964    14A     -0.597577    15A     -0.587360
      16A     -0.469422    17A     -0.459998    18A     -0.349801

  @DF-RHF Final Energy:  -244.71609796816810

   => Energetics <=

    Nuclear Repulsion Energy =            161.6600350714809906
    One-Electron Energy =                -652.6644433150514715
    Two-Electron Energy =                 246.2883102754023810
    Total Energy =                       -244.7160979681680999
  Basis Set: (AUG-CC-PVTZ AUX)
    Blend: AUG-CC-PVTZ-RI
    Molecular point group: c1

    Geometry (in Angstrom), charge = 0, multiplicity = 1:

       Center              X                  Y                   Z               Mass
    ------------   -----------------  -----------------  -----------------  -----------------
         O           -0.386267095658    -1.107748038900     0.000025024679    15.994914619570
         N           -0.366866995658     1.163040561100    -0.000044175321    14.003074004430
         C            0.955886004342    -0.652155438900     0.000033824679    12.000000000000
         C            0.947041004342     0.709362561100    -0.000032175321    12.000000000000
         C           -1.073427995658     0.067590561100     0.000014824679    12.000000000000
         H            1.715945004342    -1.417120438900     0.000063824679     1.007825032230
         H            1.783206004342     1.393310561100    -0.000064175321     1.007825032230
         H           -2.148135995658    -0.041062438900     0.000020824679     1.007825032230

  Basis Set: AUG-CC-PVTZ
    Blend: AUG-CC-PVTZ
  Basis Set: (AUG-CC-PVTZ AUX)
    Blend: AUG-CC-PVTZ-JKFIT
	 Reference Energy          =    -244.7160979681680999 [Eh]
	 Singles Energy            =      -0.0000000000000000 [Eh]
	 Same-Spin Energy          =      -0.2505901702970091 [Eh]
	 Opposite-Spin Energy      =      -0.7556500745271413 [Eh]
	 Correlation Energy        =      -1.0062402448241503 [Eh]
	 Total Energy              =    -245.7223382129922413 [Eh]

	 ================> DF-SCS-MP2 Energies <==================
	-----------------------------------------------------------
	 SCS Same-Spin Scale       =       0.3333333333333333 [-]
	 SCS Opposite-Spin Scale   =       1.2000000000000000 [-]
	 SCS Same-Spin Energy      =      -0.0835300567656697 [Eh]
	 SCS Opposite-Spin Energy  =      -0.9067800894325695 [Eh]
	 SCS Correlation Energy    =      -0.9903101461982392 [Eh]
	 SCS Total Energy          =    -245.7064081143663259 [Eh]
	-----------------------------------------------------------

  Dipole Moment: [D]
     X:     0.8772      Y:    -1.3114      Z:     0.0001     Total:     1.5777

*** Psi4 exiting successfully. Buy a developer a beer!
