                               Psi4 1.3.2 release

  ==> Input File <==

--------------------------------------------------------------------------
#psi4
#
memory 32 gb

molecule  {
0 1
  O       -0.3732950    -1.0875170     0.0000230
  N       -0.4331561     1.1825653    -0.0000453
  C        0.9282580    -0.6566220     0.0000340
  C        0.9194130     0.7048960    -0.0000320
  C       -1.1010560     0.0631240     0.0000150
  H        1.6883170    -1.4215870     0.0000640
  H        1.7555780     1.3888440    -0.0000640
  H       -2.1757640    -0.0455290     0.0000210
units angstrom
no_reorient  #important for SAPT in psi4, default
symmetry c1  #important for SAPT in psi4, default
}

set PROPERTIES_ORIGIN ["COM"]
properties('MP2/aug-cc-pvtz', properties = ['dipole'])
--------------------------------------------------------------------------

    Molecular point group: c1
  Charge       = 0
  Multiplicity = 1
  Basis Set: AUG-CC-PVTZ
    Blend: AUG-CC-PVTZ
  Basis Set: (AUG-CC-PVTZ AUX)
    Blend: AUG-CC-PVTZ-JKFIT

    Orbital Energies [Eh]
    ---------------------

    Doubly Occupied:

       1A    -20.647642     2A    -15.580677     3A    -11.343995
       4A    -11.303659     5A    -11.273414     6A     -1.487569
       7A     -1.228487     8A     -1.035173     9A     -0.846090
      10A     -0.817574    11A     -0.752510    12A     -0.660271
      13A     -0.630979    14A     -0.587830    15A     -0.582883
      16A     -0.474322    17A     -0.454051    18A     -0.351389

  @DF-RHF Final Energy:  -244.71751469951124

   => Energetics <=

    Nuclear Repulsion Energy =            161.8144749944266039
    One-Electron Energy =                -652.9469461169186388
    Two-Electron Energy =                 246.4149564229807652
    Total Energy =                       -244.7175146995112414
  Basis Set: (AUG-CC-PVTZ AUX)
    Blend: AUG-CC-PVTZ-RI
    Molecular point group: c1

    Geometry (in Angstrom), charge = 0, multiplicity = 1:

       Center              X                  Y                   Z               Mass
    ------------   -----------------  -----------------  -----------------  -----------------
         O           -0.347232028951    -1.093641172756     0.000023598247    15.994914619570
         N           -0.407093128951     1.176441127244    -0.000044701753    14.003074004430
         C            0.954320971049    -0.662746172756     0.000034598247    12.000000000000
         C            0.945475971049     0.698771827244    -0.000031401753    12.000000000000
         C           -1.074993028951     0.056999827244     0.000015598247    12.000000000000
         H            1.714379971049    -1.427711172756     0.000064598247     1.007825032230
         H            1.781640971049     1.382719827244    -0.000063401753     1.007825032230
         H           -2.149701028951    -0.051653172756     0.000021598247     1.007825032230

  Basis Set: AUG-CC-PVTZ
    Blend: AUG-CC-PVTZ
  Basis Set: (AUG-CC-PVTZ AUX)
    Blend: AUG-CC-PVTZ-JKFIT
	 Reference Energy          =    -244.7175146995112414 [Eh]
	 Singles Energy            =      -0.0000000000000000 [Eh]
	 Same-Spin Energy          =      -0.2501581898510927 [Eh]
	 Opposite-Spin Energy      =      -0.7549208801048357 [Eh]
	 Correlation Energy        =      -1.0050790699559284 [Eh]
	 Total Energy              =    -245.7225937694671813 [Eh]

	 ================> DF-SCS-MP2 Energies <==================
	-----------------------------------------------------------
	 SCS Same-Spin Scale       =       0.3333333333333333 [-]
	 SCS Opposite-Spin Scale   =       1.2000000000000000 [-]
	 SCS Same-Spin Energy      =      -0.0833860632836976 [Eh]
	 SCS Opposite-Spin Energy  =      -0.9059050561258029 [Eh]
	 SCS Correlation Energy    =      -0.9892911194095004 [Eh]
	 SCS Total Energy          =    -245.7068058189207420 [Eh]
	-----------------------------------------------------------

  Dipole Moment: [D]
     X:     0.8394      Y:    -1.4616      Z:     0.0001     Total:     1.6855

*** Psi4 exiting successfully. Buy a developer a beer!
