                               Psi4 1.3.2 release

  ==> Input File <==

--------------------------------------------------------------------------
#psi4
#
memory 32 gb

molecule  {
0 1
  O       -0.3732950    -1.0875170     0.0000230
  N       -0.3944950     1.1585740    -0.0000440
  C        0.8333252    -0.6880507     0.0000332
  C        0.9194130     0.7048960    -0.0000320
  C       -1.1010560     0.0631240     0.0000150
  H        1.6883170    -1.4215870     0.0000640
  H        1.7555780     1.3888440    -0.0000640
  H       -2.1757640    -0.0455290     0.0000210
units angstrom
no_reorient  #important for SAPT in psi4, default
symmetry c1  #important for SAPT in psi4, default
}

set PROPERTIES_ORIGIN ["COM"]
properties('MP2/aug-cc-pvtz', properties = ['dipole'])
--------------------------------------------------------------------------

    Molecular point group: c1
  Charge       = 0
  Multiplicity = 1
  Basis Set: AUG-CC-PVTZ
    Blend: AUG-CC-PVTZ
  Basis Set: (AUG-CC-PVTZ AUX)
    Blend: AUG-CC-PVTZ-JKFIT

    Orbital Energies [Eh]
    ---------------------

    Doubly Occupied:

       1A    -20.661709     2A    -15.578893     3A    -11.336648
       4A    -11.307330     5A    -11.264342     6A     -1.532897
       7A     -1.242367     8A     -1.031265     9A     -0.860171
      10A     -0.817360    11A     -0.764180    12A     -0.685658
      13A     -0.643688    14A     -0.594918    15A     -0.571123
      16A     -0.468535    17A     -0.462762    18A     -0.334259

  @DF-RHF Final Energy:  -244.70884089405305

   => Energetics <=

    Nuclear Repulsion Energy =            164.0997174568765615
    One-Electron Energy =                -657.3009058309451120
    Two-Electron Energy =                 248.4923474800155248
    Total Energy =                       -244.7088408940530542
  Basis Set: (AUG-CC-PVTZ AUX)
    Blend: AUG-CC-PVTZ-RI
    Molecular point group: c1

    Geometry (in Angstrom), charge = 0, multiplicity = 1:

       Center              X                  Y                   Z               Mass
    ------------   -----------------  -----------------  -----------------  -----------------
         O           -0.338570674592    -1.083309656864     0.000023473590    15.994914619570
         N           -0.359770674592     1.162781343136    -0.000043526410    14.003074004430
         C            0.868049525408    -0.683843356864     0.000033673590    12.000000000000
         C            0.954137325408     0.709103343136    -0.000031526410    12.000000000000
         C           -1.066331674592     0.067331343136     0.000015473590    12.000000000000
         H            1.723041325408    -1.417379656864     0.000064473590     1.007825032230
         H            1.790302325408     1.393051343136    -0.000063526410     1.007825032230
         H           -2.141039674592    -0.041321656864     0.000021473590     1.007825032230

  Basis Set: AUG-CC-PVTZ
    Blend: AUG-CC-PVTZ
  Basis Set: (AUG-CC-PVTZ AUX)
    Blend: AUG-CC-PVTZ-JKFIT
	 Reference Energy          =    -244.7088408940530542 [Eh]
	 Singles Energy            =      -0.0000000000000000 [Eh]
	 Same-Spin Energy          =      -0.2515635054033469 [Eh]
	 Opposite-Spin Energy      =      -0.7539306335820223 [Eh]
	 Correlation Energy        =      -1.0054941389853691 [Eh]
	 Total Energy              =    -245.7143350330384237 [Eh]

	 ================> DF-SCS-MP2 Energies <==================
	-----------------------------------------------------------
	 SCS Same-Spin Scale       =       0.3333333333333333 [-]
	 SCS Opposite-Spin Scale   =       1.2000000000000000 [-]
	 SCS Same-Spin Energy      =      -0.0838545018011156 [Eh]
	 SCS Opposite-Spin Energy  =      -0.9047167602984267 [Eh]
	 SCS Correlation Energy    =      -0.9885712620995424 [Eh]
	 SCS Total Energy          =    -245.6974121561526090 [Eh]
	-----------------------------------------------------------

  Dipole Moment: [D]
     X:     0.6530      Y:    -1.5367      Z:     0.0001     Total:     1.6697

*** Psi4 exiting successfully. Buy a developer a beer!
