                               Psi4 1.3.2 release

  ==> Input File <==

--------------------------------------------------------------------------
#psi4
#
memory 32 gb

molecule  {
0 1
  O       -0.3732950    -1.0875170     0.0000230
  N       -0.3944950     1.1585740    -0.0000440
  C        0.9282580    -0.6566220     0.0000340
  C        0.9194130     0.7048960    -0.0000320
  C       -1.1010560     0.0631240     0.0000150
  H        1.5473513    -1.2797114     0.0000584
  H        1.7555780     1.3888440    -0.0000640
  H       -2.1757640    -0.0455290     0.0000210
units angstrom
no_reorient  #important for SAPT in psi4, default
symmetry c1  #important for SAPT in psi4, default
}

set PROPERTIES_ORIGIN ["COM"]
properties('MP2/aug-cc-pvtz', properties = ['dipole'])
--------------------------------------------------------------------------

    Molecular point group: c1
  Charge       = 0
  Multiplicity = 1
  Basis Set: AUG-CC-PVTZ
    Blend: AUG-CC-PVTZ
  Basis Set: (AUG-CC-PVTZ AUX)
    Blend: AUG-CC-PVTZ-JKFIT

    Orbital Energies [Eh]
    ---------------------

    Doubly Occupied:

       1A    -20.646685     2A    -15.575021     3A    -11.342777
       4A    -11.279383     5A    -11.269557     6A     -1.487797
       7A     -1.235957     8A     -1.047012     9A     -0.859610
      10A     -0.836446    11A     -0.766569    12A     -0.660130
      13A     -0.658158    14A     -0.597756    15A     -0.585447
      16A     -0.469542    17A     -0.457965    18A     -0.347976

  @DF-RHF Final Energy:  -244.68269878498756

   => Energetics <=

    Nuclear Repulsion Energy =            163.7720682296148027
    One-Electron Energy =                -656.6619579623221625
    Two-Electron Energy =                 248.2071909477198233
    Total Energy =                       -244.6826987849875650
  Basis Set: (AUG-CC-PVTZ AUX)
    Blend: AUG-CC-PVTZ-RI
    Molecular point group: c1

    Geometry (in Angstrom), charge = 0, multiplicity = 1:

       Center              X                  Y                   Z               Mass
    ------------   -----------------  -----------------  -----------------  -----------------
         O           -0.353017265335    -1.090845431290     0.000023416272    15.994914619570
         N           -0.374217265335     1.155245568710    -0.000043583728    14.003074004430
         C            0.948535734665    -0.659950431290     0.000034416272    12.000000000000
         C            0.939690734665     0.701567568710    -0.000031583728    12.000000000000
         C           -1.080778265335     0.059795568710     0.000015416272    12.000000000000
         H            1.567629034665    -1.283039831290     0.000058816272     1.007825032230
         H            1.775855734665     1.385515568710    -0.000063583728     1.007825032230
         H           -2.155486265335    -0.048857431290     0.000021416272     1.007825032230

  Basis Set: AUG-CC-PVTZ
    Blend: AUG-CC-PVTZ
  Basis Set: (AUG-CC-PVTZ AUX)
    Blend: AUG-CC-PVTZ-JKFIT
	 Reference Energy          =    -244.6826987849875650 [Eh]
	 Singles Energy            =      -0.0000000000000000 [Eh]
	 Same-Spin Energy          =      -0.2504008016760423 [Eh]
	 Opposite-Spin Energy      =      -0.7539992183630466 [Eh]
	 Correlation Energy        =      -1.0044000200390890 [Eh]
	 Total Energy              =    -245.6870988050266646 [Eh]

	 ================> DF-SCS-MP2 Energies <==================
	-----------------------------------------------------------
	 SCS Same-Spin Scale       =       0.3333333333333333 [-]
	 SCS Opposite-Spin Scale   =       1.2000000000000000 [-]
	 SCS Same-Spin Energy      =      -0.0834669338920141 [Eh]
	 SCS Opposite-Spin Energy  =      -0.9047990620356559 [Eh]
	 SCS Correlation Energy    =      -0.9882659959276699 [Eh]
	 SCS Total Energy          =    -245.6709647809152273 [Eh]
	-----------------------------------------------------------

  Dipole Moment: [D]
     X:     0.7523      Y:    -1.3660      Z:     0.0001     Total:     1.5594

*** Psi4 exiting successfully. Buy a developer a beer!
