                               Psi4 1.3.2 release

  ==> Input File <==

--------------------------------------------------------------------------
#psi4
#
memory 32 gb

molecule  {
0 1
  O       -0.3732950    -1.0875170     0.0000230
  N       -0.3944950     1.1585740    -0.0000440
  C        0.9282580    -0.6566220     0.0000340
  C        0.9194130     0.7048960    -0.0000320
  C       -0.9941482    -0.1059047     0.0000162
  H        1.6883170    -1.4215870     0.0000640
  H        1.7555780     1.3888440    -0.0000640
  H       -2.1757640    -0.0455290     0.0000210
units angstrom
no_reorient  #important for SAPT in psi4, default
symmetry c1  #important for SAPT in psi4, default
}

set PROPERTIES_ORIGIN ["COM"]
properties('MP2/aug-cc-pvtz', properties = ['dipole'])
--------------------------------------------------------------------------

    Molecular point group: c1
  Charge       = 0
  Multiplicity = 1
  Basis Set: AUG-CC-PVTZ
    Blend: AUG-CC-PVTZ
  Basis Set: (AUG-CC-PVTZ AUX)
    Blend: AUG-CC-PVTZ-JKFIT

    Orbital Energies [Eh]
    ---------------------

    Doubly Occupied:

       1A    -20.682834     2A    -15.563935     3A    -11.353384
       4A    -11.291064     5A    -11.276020     6A     -1.600413
       7A     -1.218657     8A     -1.050787     9A     -0.875477
      10A     -0.815093    11A     -0.776002    12A     -0.724748
      13A     -0.640695    14A     -0.613941    15A     -0.530031
      16A     -0.467101    17A     -0.451969    18A     -0.339349

  @DF-RHF Final Energy:  -244.66759126589952

   => Energetics <=

    Nuclear Repulsion Energy =            165.3747610262579428
    One-Electron Energy =                -659.5417004126829852
    Two-Electron Energy =                 249.4993481205255250
    Total Energy =                       -244.6675912658995173
  Basis Set: (AUG-CC-PVTZ AUX)
    Blend: AUG-CC-PVTZ-RI
    Molecular point group: c1

    Geometry (in Angstrom), charge = 0, multiplicity = 1:

       Center              X                  Y                   Z               Mass
    ------------   -----------------  -----------------  -----------------  -----------------
         O           -0.373662471686    -1.059386663769     0.000023125872    15.994914619570
         N           -0.394862471686     1.186704336231    -0.000043874128    14.003074004430
         C            0.927890528314    -0.628491663769     0.000034125872    12.000000000000
         C            0.919045528314     0.733026336231    -0.000031874128    12.000000000000
         C           -0.994515671686    -0.077774363769     0.000016325872    12.000000000000
         H            1.687949528314    -1.393456663769     0.000064125872     1.007825032230
         H            1.755210528314     1.416974336231    -0.000063874128     1.007825032230
         H           -2.176131471686    -0.017398663769     0.000021125872     1.007825032230

  Basis Set: AUG-CC-PVTZ
    Blend: AUG-CC-PVTZ
  Basis Set: (AUG-CC-PVTZ AUX)
    Blend: AUG-CC-PVTZ-JKFIT
	 Reference Energy          =    -244.6675912658995173 [Eh]
	 Singles Energy            =      -0.0000000000000000 [Eh]
	 Same-Spin Energy          =      -0.2508457980476471 [Eh]
	 Opposite-Spin Energy      =      -0.7521051772521337 [Eh]
	 Correlation Energy        =      -1.0029509752997807 [Eh]
	 Total Energy              =    -245.6705422411992856 [Eh]

	 ================> DF-SCS-MP2 Energies <==================
	-----------------------------------------------------------
	 SCS Same-Spin Scale       =       0.3333333333333333 [-]
	 SCS Opposite-Spin Scale   =       1.2000000000000000 [-]
	 SCS Same-Spin Energy      =      -0.0836152660158824 [Eh]
	 SCS Opposite-Spin Energy  =      -0.9025262127025604 [Eh]
	 SCS Correlation Energy    =      -0.9861414787184428 [Eh]
	 SCS Total Energy          =    -245.6537327446179688 [Eh]
	-----------------------------------------------------------

  Dipole Moment: [D]
     X:     0.9666      Y:    -1.9818      Z:     0.0001     Total:     2.2050

*** Psi4 exiting successfully. Buy a developer a beer!
