                               Psi4 1.3.2 release

  ==> Input File <==

--------------------------------------------------------------------------
#psi4
#
memory 32 gb

molecule  {
0 1
  O       -0.3732950    -1.0875170     0.0000230
  N       -0.3944950     1.1585740    -0.0000440
  C        0.9282580    -0.6566220     0.0000340
  C        1.0139368     0.6722580    -0.0000311
  C       -1.1010560     0.0631240     0.0000150
  H        1.6883170    -1.4215870     0.0000640
  H        1.7555780     1.3888440    -0.0000640
  H       -2.1757640    -0.0455290     0.0000210
units angstrom
no_reorient  #important for SAPT in psi4, default
symmetry c1  #important for SAPT in psi4, default
}

set PROPERTIES_ORIGIN ["COM"]
properties('MP2/aug-cc-pvtz', properties = ['dipole'])
--------------------------------------------------------------------------

    Molecular point group: c1
  Charge       = 0
  Multiplicity = 1
  Basis Set: AUG-CC-PVTZ
    Blend: AUG-CC-PVTZ
  Basis Set: (AUG-CC-PVTZ AUX)
    Blend: AUG-CC-PVTZ-JKFIT

    Orbital Energies [Eh]
    ---------------------

    Doubly Occupied:

       1A    -20.644621     2A    -15.577004     3A    -11.341803
       4A    -11.304142     5A    -11.268669     6A     -1.484994
       7A     -1.211154     8A     -1.044033     9A     -0.851091
      10A     -0.813279    11A     -0.754379    12A     -0.658601
      13A     -0.629643    14A     -0.606265    15A     -0.578494
      16A     -0.458782    17A     -0.444316    18A     -0.361784

  @DF-RHF Final Energy:  -244.71185248185105

   => Energetics <=

    Nuclear Repulsion Energy =            161.5682455748958830
    One-Electron Energy =                -652.4940905137866594
    Two-Electron Energy =                 246.2139924570397511
    Total Energy =                       -244.7118524818510537
  Basis Set: (AUG-CC-PVTZ AUX)
    Blend: AUG-CC-PVTZ-RI
    Molecular point group: c1

    Geometry (in Angstrom), charge = 0, multiplicity = 1:

       Center              X                  Y                   Z               Mass
    ------------   -----------------  -----------------  -----------------  -----------------
         O           -0.371509402308    -1.083099409222     0.000023178030    15.994914619570
         N           -0.392709402308     1.162991590778    -0.000043821970    14.003074004430
         C            0.930043597692    -0.652204409222     0.000034178030    12.000000000000
         C            1.015722397692     0.676675590778    -0.000030921970    12.000000000000
         C           -1.099270402308     0.067541590778     0.000015178030    12.000000000000
         H            1.690102597692    -1.417169409222     0.000064178030     1.007825032230
         H            1.757363597692     1.393261590778    -0.000063821970     1.007825032230
         H           -2.173978402308    -0.041111409222     0.000021178030     1.007825032230

  Basis Set: AUG-CC-PVTZ
    Blend: AUG-CC-PVTZ
  Basis Set: (AUG-CC-PVTZ AUX)
    Blend: AUG-CC-PVTZ-JKFIT
	 Reference Energy          =    -244.7118524818510537 [Eh]
	 Singles Energy            =      -0.0000000000000000 [Eh]
	 Same-Spin Energy          =      -0.2492779305599651 [Eh]
	 Opposite-Spin Energy      =      -0.7544778915269406 [Eh]
	 Correlation Energy        =      -1.0037558220869056 [Eh]
	 Total Energy              =    -245.7156083039379553 [Eh]

	 ================> DF-SCS-MP2 Energies <==================
	-----------------------------------------------------------
	 SCS Same-Spin Scale       =       0.3333333333333333 [-]
	 SCS Opposite-Spin Scale   =       1.2000000000000000 [-]
	 SCS Same-Spin Energy      =      -0.0830926435199884 [Eh]
	 SCS Opposite-Spin Energy  =      -0.9053734698323286 [Eh]
	 SCS Correlation Energy    =      -0.9884661133523169 [Eh]
	 SCS Total Energy          =    -245.7003185952033846 [Eh]
	-----------------------------------------------------------

  Dipole Moment: [D]
     X:     0.8332      Y:    -1.4088      Z:     0.0001     Total:     1.6368

*** Psi4 exiting successfully. Buy a developer a beer!
