                               Psi4 1.3.2 release

  ==> Input File <==

--------------------------------------------------------------------------
#psi4
#
memory 32 gb

molecule  {
0 1
  O       -0.3732950    -1.0875170     0.0000230
  N       -0.3944950     1.1585740    -0.0000440
  C        0.8332618    -0.6539224     0.0000337
  C        0.9194130     0.7048960    -0.0000320
  C       -1.1010560     0.0631240     0.0000150
  H        1.6883170    -1.4215870     0.0000640
  H        1.7555780     1.3888440    -0.0000640
  H       -2.1757640    -0.0455290     0.0000210
units angstrom
no_reorient  #important for SAPT in psi4, default
symmetry c1  #important for SAPT in psi4, default
}

set PROPERTIES_ORIGIN ["COM"]
properties('MP2/aug-cc-pvtz', properties = ['dipole'])
--------------------------------------------------------------------------

    Molecular point group: c1
  Charge       = 0
  Multiplicity = 1
  Basis Set: AUG-CC-PVTZ
    Blend: AUG-CC-PVTZ
  Basis Set: (AUG-CC-PVTZ AUX)
    Blend: AUG-CC-PVTZ-JKFIT

    Orbital Energies [Eh]
    ---------------------

    Doubly Occupied:

       1A    -20.659543     2A    -15.577718     3A    -11.337574
       4A    -11.304721     5A    -11.261260     6A     -1.528964
       7A     -1.243064     8A     -1.034155     9A     -0.860409
      10A     -0.817276    11A     -0.761857    12A     -0.684015
      13A     -0.636356    14A     -0.595970    15A     -0.573533
      16A     -0.467846    17A     -0.462889    18A     -0.340814

  @DF-RHF Final Energy:  -244.71015714829309

   => Energetics <=

    Nuclear Repulsion Energy =            164.4189942388261159
    One-Electron Energy =                -657.9623755037061983
    Two-Electron Energy =                 248.8332241165869618
    Total Energy =                       -244.7101571482930922
  Basis Set: (AUG-CC-PVTZ AUX)
    Blend: AUG-CC-PVTZ-RI
    Molecular point group: c1

    Geometry (in Angstrom), charge = 0, multiplicity = 1:

       Center              X                  Y                   Z               Mass
    ------------   -----------------  -----------------  -----------------  -----------------
         O           -0.338559651934    -1.089243167658     0.000023386661    15.994914619570
         N           -0.359759651934     1.156847832342    -0.000043613339    14.003074004430
         C            0.867997148066    -0.655648567658     0.000034086661    12.000000000000
         C            0.954148348066     0.703169832342    -0.000031613339    12.000000000000
         C           -1.066320651934     0.061397832342     0.000015386661    12.000000000000
         H            1.723052348066    -1.423313167658     0.000064386661     1.007825032230
         H            1.790313348066     1.387117832342    -0.000063613339     1.007825032230
         H           -2.141028651934    -0.047255167658     0.000021386661     1.007825032230

  Basis Set: AUG-CC-PVTZ
    Blend: AUG-CC-PVTZ
  Basis Set: (AUG-CC-PVTZ AUX)
    Blend: AUG-CC-PVTZ-JKFIT
	 Reference Energy          =    -244.7101571482930922 [Eh]
	 Singles Energy            =      -0.0000000000000000 [Eh]
	 Same-Spin Energy          =      -0.2510698336126048 [Eh]
	 Opposite-Spin Energy      =      -0.7533992116447779 [Eh]
	 Correlation Energy        =      -1.0044690452573826 [Eh]
	 Total Energy              =    -245.7146261935504867 [Eh]

	 ================> DF-SCS-MP2 Energies <==================
	-----------------------------------------------------------
	 SCS Same-Spin Scale       =       0.3333333333333333 [-]
	 SCS Opposite-Spin Scale   =       1.2000000000000000 [-]
	 SCS Same-Spin Energy      =      -0.0836899445375349 [Eh]
	 SCS Opposite-Spin Energy  =      -0.9040790539737333 [Eh]
	 SCS Correlation Energy    =      -0.9877689985112683 [Eh]
	 SCS Total Energy          =    -245.6979261468043489 [Eh]
	-----------------------------------------------------------

  Dipole Moment: [D]
     X:     0.6611      Y:    -1.4805      Z:     0.0001     Total:     1.6214

*** Psi4 exiting successfully. Buy a developer a beer!
