                               Psi4 1.3.2 release

  ==> Input File <==

--------------------------------------------------------------------------
#psi4
#
memory 32 gb

molecule  {
0 1
  O       -0.3732950    -1.0875170     0.0000230
  N       -0.3944950     1.1585740    -0.0000440
  C        0.9282580    -0.6566220     0.0000340
  C        0.9112951     0.6820342    -0.0000308
  C       -1.1010560     0.0631240     0.0000150
  H        1.6883170    -1.4215870     0.0000640
  H        1.7555780     1.3888440    -0.0000640
  H       -2.1757640    -0.0455290     0.0000210
units angstrom
no_reorient  #important for SAPT in psi4, default
symmetry c1  #important for SAPT in psi4, default
}

set PROPERTIES_ORIGIN ["COM"]
properties('MP2/aug-cc-pvtz', properties = ['dipole'])
--------------------------------------------------------------------------

    Molecular point group: c1
  Charge       = 0
  Multiplicity = 1
  Basis Set: AUG-CC-PVTZ
    Blend: AUG-CC-PVTZ
  Basis Set: (AUG-CC-PVTZ AUX)
    Blend: AUG-CC-PVTZ-JKFIT

    Orbital Energies [Eh]
    ---------------------

    Doubly Occupied:

       1A    -20.646052     2A    -15.575368     3A    -11.343302
       4A    -11.297678     5A    -11.267357     6A     -1.488912
       7A     -1.236878     8A     -1.038516     9A     -0.842847
      10A     -0.824308    11A     -0.753444    12A     -0.661516
      13A     -0.629086    14A     -0.592555    15A     -0.581314
      16A     -0.471892    17A     -0.458482    18A     -0.351502

  @DF-RHF Final Energy:  -244.72003508540695

   => Energetics <=

    Nuclear Repulsion Energy =            163.0460810706287873
    One-Electron Energy =                -655.4102128358813388
    Two-Electron Energy =                 247.6440966798455747
    Total Energy =                       -244.7200350854069484
  Basis Set: (AUG-CC-PVTZ AUX)
    Blend: AUG-CC-PVTZ-RI
    Molecular point group: c1

    Geometry (in Angstrom), charge = 0, multiplicity = 1:

       Center              X                  Y                   Z               Mass
    ------------   -----------------  -----------------  -----------------  -----------------
         O           -0.353664222945    -1.084799089200     0.000023125872    15.994914619570
         N           -0.374864222945     1.161291910800    -0.000043874128    14.003074004430
         C            0.947888777055    -0.653904089200     0.000034125872    12.000000000000
         C            0.930925877055     0.684752110800    -0.000030674128    12.000000000000
         C           -1.081425222945     0.065841910800     0.000015125872    12.000000000000
         H            1.707947777055    -1.418869089200     0.000064125872     1.007825032230
         H            1.775208777055     1.391561910800    -0.000063874128     1.007825032230
         H           -2.156133222945    -0.042811089200     0.000021125872     1.007825032230

  Basis Set: AUG-CC-PVTZ
    Blend: AUG-CC-PVTZ
  Basis Set: (AUG-CC-PVTZ AUX)
    Blend: AUG-CC-PVTZ-JKFIT
	 Reference Energy          =    -244.7200350854069484 [Eh]
	 Singles Energy            =      -0.0000000000000000 [Eh]
	 Same-Spin Energy          =      -0.2502674432437444 [Eh]
	 Opposite-Spin Energy      =      -0.7536406564789682 [Eh]
	 Correlation Energy        =      -1.0039080997227126 [Eh]
	 Total Energy              =    -245.7239431851296558 [Eh]

	 ================> DF-SCS-MP2 Energies <==================
	-----------------------------------------------------------
	 SCS Same-Spin Scale       =       0.3333333333333333 [-]
	 SCS Opposite-Spin Scale   =       1.2000000000000000 [-]
	 SCS Same-Spin Energy      =      -0.0834224810812481 [Eh]
	 SCS Opposite-Spin Energy  =      -0.9043687877747617 [Eh]
	 SCS Correlation Energy    =      -0.9877912688560099 [Eh]
	 SCS Total Energy          =    -245.7078263542629486 [Eh]
	-----------------------------------------------------------

  Dipole Moment: [D]
     X:     0.7687      Y:    -1.4295      Z:     0.0001     Total:     1.6231

*** Psi4 exiting successfully. Buy a developer a beer!
