                               Psi4 1.3.2 release

  ==> Input File <==

--------------------------------------------------------------------------
#psi4
#
memory 32 gb

molecule  {
0 1
  O       -0.3732950    -1.0875170     0.0000230
  N       -0.3944950     1.1585740    -0.0000440
  C        1.0232111    -0.6526884     0.0000339
  C        0.9194130     0.7048960    -0.0000320
  C       -1.1010560     0.0631240     0.0000150
  H        1.6883170    -1.4215870     0.0000640
  H        1.7555780     1.3888440    -0.0000640
  H       -2.1757640    -0.0455290     0.0000210
units angstrom
no_reorient  #important for SAPT in psi4, default
symmetry c1  #important for SAPT in psi4, default
}

set PROPERTIES_ORIGIN ["COM"]
properties('MP2/aug-cc-pvtz', properties = ['dipole'])
--------------------------------------------------------------------------

    Molecular point group: c1
  Charge       = 0
  Multiplicity = 1
  Basis Set: AUG-CC-PVTZ
    Blend: AUG-CC-PVTZ
  Basis Set: (AUG-CC-PVTZ AUX)
    Blend: AUG-CC-PVTZ-JKFIT

    Orbital Energies [Eh]
    ---------------------

    Doubly Occupied:

       1A    -20.635511     2A    -15.574125     3A    -11.347466
       4A    -11.301060     5A    -11.278596     6A     -1.456694
       7A     -1.230869     8A     -1.036717     9A     -0.837311
      10A     -0.828383    11A     -0.747526    12A     -0.642057
      13A     -0.641983    14A     -0.599072    15A     -0.566451
      16A     -0.469684    17A     -0.454760    18A     -0.354112

  @DF-RHF Final Energy:  -244.70860452538557

   => Energetics <=

    Nuclear Repulsion Energy =            161.0960014081646534
    One-Electron Energy =                -651.6044561043083831
    Two-Electron Energy =                 245.7998501707581909
    Total Energy =                       -244.7086045253855673
  Basis Set: (AUG-CC-PVTZ AUX)
    Blend: AUG-CC-PVTZ-RI
    Molecular point group: c1

    Geometry (in Angstrom), charge = 0, multiplicity = 1:

       Center              X                  Y                   Z               Mass
    ------------   -----------------  -----------------  -----------------  -----------------
         O           -0.371584039960    -1.089457709616     0.000023351889    15.994914619570
         N           -0.392784039960     1.156633290384    -0.000043648111    14.003074004430
         C            1.024922060040    -0.654629109616     0.000034251889    12.000000000000
         C            0.921123960040     0.702955290384    -0.000031648111    12.000000000000
         C           -1.099345039960     0.061183290384     0.000015351889    12.000000000000
         H            1.690027960040    -1.423527709616     0.000064351889     1.007825032230
         H            1.757288960040     1.386903290384    -0.000063648111     1.007825032230
         H           -2.174053039960    -0.047469709616     0.000021351889     1.007825032230

  Basis Set: AUG-CC-PVTZ
    Blend: AUG-CC-PVTZ
  Basis Set: (AUG-CC-PVTZ AUX)
    Blend: AUG-CC-PVTZ-JKFIT
	 Reference Energy          =    -244.7086045253855673 [Eh]
	 Singles Energy            =      -0.0000000000000000 [Eh]
	 Same-Spin Energy          =      -0.2503863350879241 [Eh]
	 Opposite-Spin Energy      =      -0.7558726732795020 [Eh]
	 Correlation Energy        =      -1.0062590083674261 [Eh]
	 Total Energy              =    -245.7148635337530038 [Eh]

	 ================> DF-SCS-MP2 Energies <==================
	-----------------------------------------------------------
	 SCS Same-Spin Scale       =       0.3333333333333333 [-]
	 SCS Opposite-Spin Scale   =       1.2000000000000000 [-]
	 SCS Same-Spin Energy      =      -0.0834621116959747 [Eh]
	 SCS Opposite-Spin Energy  =      -0.9070472079354024 [Eh]
	 SCS Correlation Energy    =      -0.9905093196313771 [Eh]
	 SCS Total Energy          =    -245.6991138450169387 [Eh]
	-----------------------------------------------------------

  Dipole Moment: [D]
     X:     0.8853      Y:    -1.3474      Z:     0.0001     Total:     1.6122

*** Psi4 exiting successfully. Buy a developer a beer!
