                               Psi4 1.4a3.dev225

  ==> Input File <==

--------------------------------------------------------------------------
#psi4
#
memory 32 gb

molecule  {
0 1
  O       -0.3732950    -1.0875170     0.0000230
  N       -0.3944950     1.1585740    -0.0000440
  C        0.9282580    -0.6566220     0.0000340
  C        0.9383178     0.6983684    -0.0000318
  C       -1.1010560     0.0631240     0.0000150
  H        1.6883170    -1.4215870     0.0000640
  H        1.7555780     1.3888440    -0.0000640
  H       -2.1757640    -0.0455290     0.0000210
units angstrom
no_reorient  #important for SAPT in psi4, default
symmetry c1  #important for SAPT in psi4, default
}

set PROPERTIES_ORIGIN ["COM"]
properties('MP2/aug-cc-pvtz', properties = ['dipole'])
--------------------------------------------------------------------------

    Molecular point group: c1
  Charge       = 0
  Multiplicity = 1
  Basis Set: AUG-CC-PVTZ
    Blend: AUG-CC-PVTZ
  Basis Set: (AUG-CC-PVTZ AUX)
    Blend: AUG-CC-PVTZ-JKFIT

    Orbital Energies [Eh]
    ---------------------

    Doubly Occupied:

       1A    -20.646941     2A    -15.575905     3A    -11.342548
       4A    -11.301804     5A    -11.269077     6A     -1.487642
       7A     -1.230566     8A     -1.036659     9A     -0.845045
      10A     -0.821525    11A     -0.753800    12A     -0.660168
      13A     -0.629828    14A     -0.596907    15A     -0.584880
      16A     -0.467639    17A     -0.455222    18A     -0.350347

  @DF-RHF Final Energy:  -244.71986479702582

   => Energetics <=

    Nuclear Repulsion Energy =            162.4367689145908287
    One-Electron Energy =                -654.2002658625406184
    Two-Electron Energy =                 247.0436321509239406
    Total Energy =                       -244.7198647970258207
  Basis Set: (AUG-CC-PVTZ AUX)
    Blend: AUG-CC-PVTZ-RI
    Molecular point group: c1

    Geometry (in Angstrom), charge = 0, multiplicity = 1:

       Center              X                  Y                   Z               Mass
    ------------   -----------------  -----------------  -----------------  -----------------
         O           -0.358362361502    -1.087638936249     0.000023299731    15.994914619570
         N           -0.379562361502     1.158452063751    -0.000043700269    14.003074004430
         C            0.943190638498    -0.656743936249     0.000034299731    12.000000000000
         C            0.953250438498     0.698246463751    -0.000031500269    12.000000000000
         C           -1.086123361502     0.063002063751     0.000015299731    12.000000000000
         H            1.703249638498    -1.421708936249     0.000064299731     1.007825032230
         H            1.770510638498     1.388722063751    -0.000063700269     1.007825032230
         H           -2.160831361502    -0.045650936249     0.000021299731     1.007825032230

  Basis Set: AUG-CC-PVTZ
    Blend: AUG-CC-PVTZ
  Basis Set: (AUG-CC-PVTZ AUX)
    Blend: AUG-CC-PVTZ-JKFIT
	 Reference Energy          =    -244.7198647970258207 [Eh]
	 Singles Energy            =      -0.0000000000000000 [Eh]
	 Same-Spin Energy          =      -0.2502665864182638 [Eh]
	 Opposite-Spin Energy      =      -0.7542318602288985 [Eh]
	 Correlation Energy        =      -1.0044984466471623 [Eh]
	 Total Energy              =    -245.7243632436729968 [Eh]

	 ================> DF-SCS-MP2 Energies <==================
	-----------------------------------------------------------
	 SCS Same-Spin Scale       =       0.3333333333333333 [-]
	 SCS Opposite-Spin Scale   =       1.2000000000000000 [-]
	 SCS Same-Spin Energy      =      -0.0834221954727546 [Eh]
	 SCS Opposite-Spin Energy  =      -0.9050782322746782 [Eh]
	 SCS Correlation Energy    =      -0.9885004277474329 [Eh]
	 SCS Total Energy          =    -245.7083652247732459 [Eh]
	-----------------------------------------------------------

  Dipole Moment: [D]
     X:     0.7965      Y:    -1.4189      Z:     0.0001     Total:     1.6272

*** Psi4 exiting successfully. Buy a developer a beer!
