                               Psi4 1.3.2 release

  ==> Input File <==

--------------------------------------------------------------------------
#psi4
#
memory 32 gb

molecule  {
0 1
  O       -0.3400668    -1.1772591     0.0000256
  N       -0.3944950     1.1585740    -0.0000440
  C        0.9282580    -0.6566220     0.0000340
  C        0.9194130     0.7048960    -0.0000320
  C       -1.1010560     0.0631240     0.0000150
  H        1.6883170    -1.4215870     0.0000640
  H        1.7555780     1.3888440    -0.0000640
  H       -2.1757640    -0.0455290     0.0000210
units angstrom
no_reorient  #important for SAPT in psi4, default
symmetry c1  #important for SAPT in psi4, default
}

set PROPERTIES_ORIGIN ["COM"]
properties('MP2/aug-cc-pvtz', properties = ['dipole'])
--------------------------------------------------------------------------

    Molecular point group: c1
  Charge       = 0
  Multiplicity = 1
  Basis Set: AUG-CC-PVTZ
    Blend: AUG-CC-PVTZ
  Basis Set: (AUG-CC-PVTZ AUX)
    Blend: AUG-CC-PVTZ-JKFIT

    Orbital Energies [Eh]
    ---------------------

    Doubly Occupied:

       1A    -20.645793     2A    -15.588555     3A    -11.350997
       4A    -11.304289     5A    -11.269489     6A     -1.458560
       7A     -1.245726     8A     -1.023964     9A     -0.832371
      10A     -0.829614    11A     -0.745425    12A     -0.644169
      13A     -0.617113    14A     -0.604183    15A     -0.578557
      16A     -0.477496    17A     -0.467737    18A     -0.344612

  @DF-RHF Final Energy:  -244.70639492026532

   => Energetics <=

    Nuclear Repulsion Energy =            160.6299966053049388
    One-Electron Energy =                -650.6154835060467576
    Two-Electron Energy =                 245.2790919804764940
    Total Energy =                       -244.7063949202653248
  Basis Set: (AUG-CC-PVTZ AUX)
    Blend: AUG-CC-PVTZ-RI
    Molecular point group: c1

    Geometry (in Angstrom), charge = 0, multiplicity = 1:

       Center              X                  Y                   Z               Mass
    ------------   -----------------  -----------------  -----------------  -----------------
         O           -0.329547638202    -1.157719238974     0.000025331984    15.994914619570
         N           -0.383975838202     1.178113861026    -0.000044268016    14.003074004430
         C            0.938777161798    -0.637082138974     0.000033731984    12.000000000000
         C            0.929932161798     0.724435861026    -0.000032268016    12.000000000000
         C           -1.090536838202     0.082663861026     0.000014731984    12.000000000000
         H            1.698836161798    -1.402047138974     0.000063731984     1.007825032230
         H            1.766097161798     1.408383861026    -0.000064268016     1.007825032230
         H           -2.165244838202    -0.025989138974     0.000020731984     1.007825032230

  Basis Set: AUG-CC-PVTZ
    Blend: AUG-CC-PVTZ
  Basis Set: (AUG-CC-PVTZ AUX)
    Blend: AUG-CC-PVTZ-JKFIT
	 Reference Energy          =    -244.7063949202653248 [Eh]
	 Singles Energy            =      -0.0000000000000000 [Eh]
	 Same-Spin Energy          =      -0.2517996392904456 [Eh]
	 Opposite-Spin Energy      =      -0.7588625424802672 [Eh]
	 Correlation Energy        =      -1.0106621817707129 [Eh]
	 Total Energy              =    -245.7170571020360512 [Eh]

	 ================> DF-SCS-MP2 Energies <==================
	-----------------------------------------------------------
	 SCS Same-Spin Scale       =       0.3333333333333333 [-]
	 SCS Opposite-Spin Scale   =       1.2000000000000000 [-]
	 SCS Same-Spin Energy      =      -0.0839332130968152 [Eh]
	 SCS Opposite-Spin Energy  =      -0.9106350509763206 [Eh]
	 SCS Correlation Energy    =      -0.9945682640731358 [Eh]
	 SCS Total Energy          =    -245.7009631843384625 [Eh]
	-----------------------------------------------------------

  Dipole Moment: [D]
     X:     0.7100      Y:    -1.0974      Z:     0.0001     Total:     1.3071

*** Psi4 exiting successfully. Buy a developer a beer!
