                               Psi4 1.4a3.dev225

  ==> Input File <==

--------------------------------------------------------------------------
#psi4
#
memory 32 gb

molecule  {
0 1
  O       -0.3732950    -1.0875170     0.0000230
  N       -0.3944950     1.1585740    -0.0000440
  C        0.9282580    -0.6566220     0.0000340
  C        0.9194130     0.7048960    -0.0000320
  C       -1.1010560     0.0631240     0.0000150
  H        1.7235584    -1.4570559     0.0000654
  H        1.7555780     1.3888440    -0.0000640
  H       -2.1757640    -0.0455290     0.0000210
units angstrom
no_reorient  #important for SAPT in psi4, default
symmetry c1  #important for SAPT in psi4, default
}

set PROPERTIES_ORIGIN ["COM"]
properties('MP2/aug-cc-pvtz', properties = ['dipole'])
--------------------------------------------------------------------------

    Molecular point group: c1
  Charge       = 0
  Multiplicity = 1
  Basis Set: AUG-CC-PVTZ
    Blend: AUG-CC-PVTZ
  Basis Set: (AUG-CC-PVTZ AUX)
    Blend: AUG-CC-PVTZ-JKFIT

    Orbital Energies [Eh]
    ---------------------

    Doubly Occupied:

       1A    -20.648068     2A    -15.575748     3A    -11.342858
       4A    -11.306525     5A    -11.269493     6A     -1.488718
       7A     -1.236323     8A     -1.033113     9A     -0.842826
      10A     -0.820863    11A     -0.750747    12A     -0.660924
      13A     -0.622536    14A     -0.597480    15A     -0.581320
      16A     -0.469228    17A     -0.458548    18A     -0.347408

  @DF-RHF Final Energy:  -244.71732177362071

   => Energetics <=

    Nuclear Repulsion Energy =            162.4311304589852512
    One-Electron Energy =                -654.1914524919898213
    Two-Electron Energy =                 247.0430002593838594
    Total Energy =                       -244.7173217736207107
  Basis Set: (AUG-CC-PVTZ AUX)
    Blend: AUG-CC-PVTZ-RI
    Molecular point group: c1

    Geometry (in Angstrom), charge = 0, multiplicity = 1:

       Center              X                  Y                   Z               Mass
    ------------   -----------------  -----------------  -----------------  -----------------
         O           -0.355590174061    -1.088255914684     0.000023314061    15.994914619570
         N           -0.376790174061     1.157835085316    -0.000043685939    14.003074004430
         C            0.945962825939    -0.657360914684     0.000034314061    12.000000000000
         C            0.937117825939     0.704157085316    -0.000031685939    12.000000000000
         C           -1.083351174061     0.062385085316     0.000015314061    12.000000000000
         H            1.741263225939    -1.457794814684     0.000065714061     1.007825032230
         H            1.773282825939     1.388105085316    -0.000063685939     1.007825032230
         H           -2.158059174061    -0.046267914684     0.000021314061     1.007825032230

  Basis Set: AUG-CC-PVTZ
    Blend: AUG-CC-PVTZ
  Basis Set: (AUG-CC-PVTZ AUX)
    Blend: AUG-CC-PVTZ-JKFIT
	 Reference Energy          =    -244.7173217736207107 [Eh]
	 Singles Energy            =      -0.0000000000000000 [Eh]
	 Same-Spin Energy          =      -0.2507146200312309 [Eh]
	 Opposite-Spin Energy      =      -0.7546978793632153 [Eh]
	 Correlation Energy        =      -1.0054124993944462 [Eh]
	 Total Energy              =    -245.7227342730151634 [Eh]

	 ================> DF-SCS-MP2 Energies <==================
	-----------------------------------------------------------
	 SCS Same-Spin Scale       =       0.3333333333333333 [-]
	 SCS Opposite-Spin Scale   =       1.2000000000000000 [-]
	 SCS Same-Spin Energy      =      -0.0835715400104103 [Eh]
	 SCS Opposite-Spin Energy  =      -0.9056374552358584 [Eh]
	 SCS Correlation Energy    =      -0.9892089952462687 [Eh]
	 SCS Total Energy          =    -245.7065307688669691 [Eh]
	-----------------------------------------------------------

  Dipole Moment: [D]
     X:     0.7891      Y:    -1.4299      Z:     0.0001     Total:     1.6332

*** Psi4 exiting successfully. Buy a developer a beer!
