                               Psi4 1.3.2 release

  ==> Input File <==

--------------------------------------------------------------------------
#psi4
#
memory 32 gb

molecule  {
0 1
  O       -0.2948031    -1.0339481     0.0000221
  N       -0.3944950     1.1585740    -0.0000440
  C        0.9282580    -0.6566220     0.0000340
  C        0.9194130     0.7048960    -0.0000320
  C       -1.1010560     0.0631240     0.0000150
  H        1.6883170    -1.4215870     0.0000640
  H        1.7555780     1.3888440    -0.0000640
  H       -2.1757640    -0.0455290     0.0000210
units angstrom
no_reorient  #important for SAPT in psi4, default
symmetry c1  #important for SAPT in psi4, default
}

set PROPERTIES_ORIGIN ["COM"]
properties('MP2/aug-cc-pvtz', properties = ['dipole'])
--------------------------------------------------------------------------

    Molecular point group: c1
  Charge       = 0
  Multiplicity = 1
  Basis Set: AUG-CC-PVTZ
    Blend: AUG-CC-PVTZ
  Basis Set: (AUG-CC-PVTZ AUX)
    Blend: AUG-CC-PVTZ-JKFIT

    Orbital Energies [Eh]
    ---------------------

    Doubly Occupied:

       1A    -20.647883     2A    -15.575516     3A    -11.337953
       4A    -11.296592     5A    -11.258146     6A     -1.521883
       7A     -1.234753     8A     -1.041933     9A     -0.857113
      10A     -0.818754    11A     -0.764755    12A     -0.679105
      13A     -0.650207    14A     -0.593713    15A     -0.568018
      16A     -0.468896    17A     -0.456051    18A     -0.341455

  @DF-RHF Final Energy:  -244.71510412215926

   => Energetics <=

    Nuclear Repulsion Energy =            164.8379898261140397
    One-Electron Energy =                -658.8807386572945006
    Two-Electron Energy =                 249.3276447090212002
    Total Energy =                       -244.7151041221592607
  Basis Set: (AUG-CC-PVTZ AUX)
    Blend: AUG-CC-PVTZ-RI
    Molecular point group: c1

    Geometry (in Angstrom), charge = 0, multiplicity = 1:

       Center              X                  Y                   Z               Mass
    ------------   -----------------  -----------------  -----------------  -----------------
         O           -0.294773269750    -1.047618882236     0.000022643068    15.994914619570
         N           -0.394465169750     1.144903217764    -0.000043456932    14.003074004430
         C            0.928287830250    -0.670292782236     0.000034543068    12.000000000000
         C            0.919442830250     0.691225217764    -0.000031456932    12.000000000000
         C           -1.101026169750     0.049453217764     0.000015543068    12.000000000000
         H            1.688346830250    -1.435257782236     0.000064543068     1.007825032230
         H            1.755607830250     1.375173217764    -0.000063456932     1.007825032230
         H           -2.175734169750    -0.059199782236     0.000021543068     1.007825032230

  Basis Set: AUG-CC-PVTZ
    Blend: AUG-CC-PVTZ
  Basis Set: (AUG-CC-PVTZ AUX)
    Blend: AUG-CC-PVTZ-JKFIT
	 Reference Energy          =    -244.7151041221592607 [Eh]
	 Singles Energy            =      -0.0000000000000000 [Eh]
	 Same-Spin Energy          =      -0.2508604986018856 [Eh]
	 Opposite-Spin Energy      =      -0.7520248023308498 [Eh]
	 Correlation Energy        =      -1.0028853009327354 [Eh]
	 Total Energy              =    -245.7179894230920070 [Eh]

	 ================> DF-SCS-MP2 Energies <==================
	-----------------------------------------------------------
	 SCS Same-Spin Scale       =       0.3333333333333333 [-]
	 SCS Opposite-Spin Scale   =       1.2000000000000000 [-]
	 SCS Same-Spin Energy      =      -0.0836201662006285 [Eh]
	 SCS Opposite-Spin Energy  =      -0.9024297627970197 [Eh]
	 SCS Correlation Energy    =      -0.9860499289976482 [Eh]
	 SCS Total Energy          =    -245.7011540511569194 [Eh]
	-----------------------------------------------------------

  Dipole Moment: [D]
     X:     0.6062      Y:    -1.6718      Z:     0.0001     Total:     1.7783

*** Psi4 exiting successfully. Buy a developer a beer!
