                               Psi4 1.4a3.dev225

  ==> Input File <==

--------------------------------------------------------------------------
#psi4
#
memory 32 gb

molecule  {
0 1
  O       -0.3732950    -1.0875170     0.0000230
  N       -0.3944950     1.1585740    -0.0000440
  C        0.9282580    -0.6566220     0.0000340
  C        0.9197378     0.6548971    -0.0000296
  C       -1.1010560     0.0631240     0.0000150
  H        1.6883170    -1.4215870     0.0000640
  H        1.7555780     1.3888440    -0.0000640
  H       -2.1757640    -0.0455290     0.0000210
units angstrom
no_reorient  #important for SAPT in psi4, default
symmetry c1  #important for SAPT in psi4, default
}

set PROPERTIES_ORIGIN ["COM"]
properties('MP2/aug-cc-pvtz', properties = ['dipole'])
--------------------------------------------------------------------------

    Molecular point group: c1
  Charge       = 0
  Multiplicity = 1
  Basis Set: AUG-CC-PVTZ
    Blend: AUG-CC-PVTZ
  Basis Set: (AUG-CC-PVTZ AUX)
    Blend: AUG-CC-PVTZ-JKFIT

    Orbital Energies [Eh]
    ---------------------

    Doubly Occupied:

       1A    -20.643870     2A    -15.575595     3A    -11.343580
       4A    -11.294434     5A    -11.265110     6A     -1.488638
       7A     -1.232614     8A     -1.044140     9A     -0.844387
      10A     -0.821124    11A     -0.752798    12A     -0.661867
      13A     -0.628124    14A     -0.589071    15A     -0.579271
      16A     -0.472766    17A     -0.455952    18A     -0.358146

  @DF-RHF Final Energy:  -244.71857805521114

   => Energetics <=

    Nuclear Repulsion Energy =            163.2209799085636917
    One-Electron Energy =                -655.7761411377663308
    Two-Electron Energy =                 247.8365831739915279
    Total Energy =                       -244.7185780552111396
  Basis Set: (AUG-CC-PVTZ AUX)
    Blend: AUG-CC-PVTZ-RI
    Molecular point group: c1

    Geometry (in Angstrom), charge = 0, multiplicity = 1:

       Center              X                  Y                   Z               Mass
    ------------   -----------------  -----------------  -----------------  -----------------
         O           -0.355132061998    -1.080081061178     0.000022917242    15.994914619570
         N           -0.376332061998     1.166009938822    -0.000044082758    14.003074004430
         C            0.946420938002    -0.649186061178     0.000033917242    12.000000000000
         C            0.937900738002     0.662333038822    -0.000029682758    12.000000000000
         C           -1.082893061998     0.070559938822     0.000014917242    12.000000000000
         H            1.706479938002    -1.414151061178     0.000063917242     1.007825032230
         H            1.773740938002     1.396279938822    -0.000064082758     1.007825032230
         H           -2.157601061998    -0.038093061178     0.000020917242     1.007825032230

  Basis Set: AUG-CC-PVTZ
    Blend: AUG-CC-PVTZ
  Basis Set: (AUG-CC-PVTZ AUX)
    Blend: AUG-CC-PVTZ-JKFIT
	 Reference Energy          =    -244.7185780552111396 [Eh]
	 Singles Energy            =      -0.0000000000000000 [Eh]
	 Same-Spin Energy          =      -0.2497104867602311 [Eh]
	 Opposite-Spin Energy      =      -0.7529913616355741 [Eh]
	 Correlation Energy        =      -1.0027018483958052 [Eh]
	 Total Energy              =    -245.7212799036069555 [Eh]

	 ================> DF-SCS-MP2 Energies <==================
	-----------------------------------------------------------
	 SCS Same-Spin Scale       =       0.3333333333333333 [-]
	 SCS Opposite-Spin Scale   =       1.2000000000000000 [-]
	 SCS Same-Spin Energy      =      -0.0832368289200770 [Eh]
	 SCS Opposite-Spin Energy  =      -0.9035896339626889 [Eh]
	 SCS Correlation Energy    =      -0.9868264628827659 [Eh]
	 SCS Total Energy          =    -245.7054045180938999 [Eh]
	-----------------------------------------------------------

  Dipole Moment: [D]
     X:     0.7647      Y:    -1.4345      Z:     0.0001     Total:     1.6256

*** Psi4 exiting successfully. Buy a developer a beer!
