                               Psi4 1.4a3.dev225

  ==> Input File <==

--------------------------------------------------------------------------
#psi4
#
memory 32 gb

molecule  {
0 1
  O       -0.3732950    -1.0875170     0.0000230
  N       -0.3944950     1.1585740    -0.0000440
  C        0.9282580    -0.6566220     0.0000340
  C        0.9194130     0.7048960    -0.0000320
  C       -1.1281574     0.0211060     0.0000173
  H        1.6883170    -1.4215870     0.0000640
  H        1.7555780     1.3888440    -0.0000640
  H       -2.1757640    -0.0455290     0.0000210
units angstrom
no_reorient  #important for SAPT in psi4, default
symmetry c1  #important for SAPT in psi4, default
}

set PROPERTIES_ORIGIN ["COM"]
properties('MP2/aug-cc-pvtz', properties = ['dipole'])
--------------------------------------------------------------------------

    Molecular point group: c1
  Charge       = 0
  Multiplicity = 1
  Basis Set: AUG-CC-PVTZ
    Blend: AUG-CC-PVTZ
  Basis Set: (AUG-CC-PVTZ AUX)
    Blend: AUG-CC-PVTZ-JKFIT

    Orbital Energies [Eh]
    ---------------------

    Doubly Occupied:

       1A    -20.653400     2A    -15.576967     3A    -11.345772
       4A    -11.300408     5A    -11.269640     6A     -1.495204
       7A     -1.219108     8A     -1.037171     9A     -0.845555
      10A     -0.825627    11A     -0.757881    12A     -0.663258
      13A     -0.639862    14A     -0.595898    15A     -0.581871
      16A     -0.464292    17A     -0.450176    18A     -0.343879

  @DF-RHF Final Energy:  -244.71386904659869

   => Energetics <=

    Nuclear Repulsion Energy =            162.1749158900148302
    One-Electron Energy =                -653.6456294718667550
    Two-Electron Energy =                 246.7568445352532081
    Total Energy =                       -244.7138690465986883
  Basis Set: (AUG-CC-PVTZ AUX)
    Blend: AUG-CC-PVTZ-RI
    Molecular point group: c1

    Geometry (in Angstrom), charge = 0, multiplicity = 1:

       Center              X                  Y                   Z               Mass
    ------------   -----------------  -----------------  -----------------  -----------------
         O           -0.350363771350    -1.081468612163     0.000022934627    15.994914619570
         N           -0.371563771350     1.164622387837    -0.000044065373    14.003074004430
         C            0.951189228650    -0.650573612163     0.000033934627    12.000000000000
         C            0.942344228650     0.710944387837    -0.000032065373    12.000000000000
         C           -1.105226171350     0.027154387837     0.000017234627    12.000000000000
         H            1.711248228650    -1.415538612163     0.000063934627     1.007825032230
         H            1.778509228650     1.394892387837    -0.000064065373     1.007825032230
         H           -2.152832771350    -0.039480612163     0.000020934627     1.007825032230

  Basis Set: AUG-CC-PVTZ
    Blend: AUG-CC-PVTZ
  Basis Set: (AUG-CC-PVTZ AUX)
    Blend: AUG-CC-PVTZ-JKFIT
	 Reference Energy          =    -244.7138690465986883 [Eh]
	 Singles Energy            =      -0.0000000000000000 [Eh]
	 Same-Spin Energy          =      -0.2515536894646593 [Eh]
	 Opposite-Spin Energy      =      -0.7558244678798897 [Eh]
	 Correlation Energy        =      -1.0073781573445491 [Eh]
	 Total Energy              =    -245.7212472039432498 [Eh]

	 ================> DF-SCS-MP2 Energies <==================
	-----------------------------------------------------------
	 SCS Same-Spin Scale       =       0.3333333333333333 [-]
	 SCS Opposite-Spin Scale   =       1.2000000000000000 [-]
	 SCS Same-Spin Energy      =      -0.0838512298215531 [Eh]
	 SCS Opposite-Spin Energy  =      -0.9069893614558675 [Eh]
	 SCS Correlation Energy    =      -0.9908405912774206 [Eh]
	 SCS Total Energy          =    -245.7047096378761069 [Eh]
	-----------------------------------------------------------

  Dipole Moment: [D]
     X:     0.8010      Y:    -1.5590      Z:     0.0001     Total:     1.7527

*** Psi4 exiting successfully. Buy a developer a beer!
