                               Psi4 1.3.2 release

  ==> Input File <==

--------------------------------------------------------------------------
#psi4
#
memory 32 gb

molecule  {
0 1
  O       -0.2570070    -1.0051419     0.0000162
  N       -0.3944950     1.1585740    -0.0000440
  C        0.9282580    -0.6566220     0.0000340
  C        0.9194130     0.7048960    -0.0000320
  C       -1.1010560     0.0631240     0.0000150
  H        1.6883170    -1.4215870     0.0000640
  H        1.7555780     1.3888440    -0.0000640
  H       -2.1757640    -0.0455290     0.0000210
units angstrom
no_reorient  #important for SAPT in psi4, default
symmetry c1  #important for SAPT in psi4, default
}

set PROPERTIES_ORIGIN ["COM"]
properties('MP2/aug-cc-pvtz', properties = ['dipole'])
--------------------------------------------------------------------------

    Molecular point group: c1
  Charge       = 0
  Multiplicity = 1
  Basis Set: AUG-CC-PVTZ
    Blend: AUG-CC-PVTZ
  Basis Set: (AUG-CC-PVTZ AUX)
    Blend: AUG-CC-PVTZ-JKFIT

    Orbital Energies [Eh]
    ---------------------

    Doubly Occupied:

       1A    -20.647872     2A    -15.575461     3A    -11.335404
       4A    -11.294724     5A    -11.252326     6A     -1.541575
       7A     -1.234912     8A     -1.046083     9A     -0.864216
      10A     -0.816185    11A     -0.771023    12A     -0.690175
      13A     -0.660377    14A     -0.591131    15A     -0.558667
      16A     -0.468657    17A     -0.455471    18A     -0.337889

  @DF-RHF Final Energy:  -244.70451917911495

   => Energetics <=

    Nuclear Repulsion Energy =            166.0136342351999303
    One-Electron Energy =                -661.1520113024540706
    Two-Electron Energy =                 250.4338578881392152
    Total Energy =                       -244.7045191791149534
  Basis Set: (AUG-CC-PVTZ AUX)
    Blend: AUG-CC-PVTZ-RI
    Molecular point group: c1

    Geometry (in Angstrom), charge = 0, multiplicity = 1:

       Center              X                  Y                   Z               Mass
    ------------   -----------------  -----------------  -----------------  -----------------
         O           -0.265735972590    -1.025488181199     0.000018110323    15.994914619570
         N           -0.403223972590     1.138227718801    -0.000042089677    14.003074004430
         C            0.919529027410    -0.676968281199     0.000035910323    12.000000000000
         C            0.910684027410     0.684549718801    -0.000030089677    12.000000000000
         C           -1.109784972590     0.042777718801     0.000016910323    12.000000000000
         H            1.679588027410    -1.441933281199     0.000065910323     1.007825032230
         H            1.746849027410     1.368497718801    -0.000062089677     1.007825032230
         H           -2.184492972590    -0.065875281199     0.000022910323     1.007825032230

  Basis Set: AUG-CC-PVTZ
    Blend: AUG-CC-PVTZ
  Basis Set: (AUG-CC-PVTZ AUX)
    Blend: AUG-CC-PVTZ-JKFIT
	 Reference Energy          =    -244.7045191791149534 [Eh]
	 Singles Energy            =      -0.0000000000000000 [Eh]
	 Same-Spin Energy          =      -0.2510848142456880 [Eh]
	 Opposite-Spin Energy      =      -0.7510607708197836 [Eh]
	 Correlation Energy        =      -1.0021455850654717 [Eh]
	 Total Energy              =    -245.7066647641804309 [Eh]

	 ================> DF-SCS-MP2 Energies <==================
	-----------------------------------------------------------
	 SCS Same-Spin Scale       =       0.3333333333333333 [-]
	 SCS Opposite-Spin Scale   =       1.2000000000000000 [-]
	 SCS Same-Spin Energy      =      -0.0836949380818960 [Eh]
	 SCS Opposite-Spin Energy  =      -0.9012729249837403 [Eh]
	 SCS Correlation Energy    =      -0.9849678630656363 [Eh]
	 SCS Total Energy          =    -245.6894870421805877 [Eh]
	-----------------------------------------------------------

  Dipole Moment: [D]
     X:     0.5200      Y:    -1.8164      Z:     0.0001     Total:     1.8894

*** Psi4 exiting successfully. Buy a developer a beer!
