                               Psi4 1.3.2 release

  ==> Input File <==

--------------------------------------------------------------------------
#psi4
#
memory 32 gb

molecule  {
0 1
  O       -0.3732950    -1.0875170     0.0000230
  N       -0.3944950     1.1585740    -0.0000440
  C        0.9282580    -0.6566220     0.0000340
  C        0.9194130     0.7048960    -0.0000320
  C       -1.1010560     0.0631240     0.0000150
  H        1.6883170    -1.4215870     0.0000640
  H        1.8329822     1.4521574    -0.0000670
  H       -2.1757640    -0.0455290     0.0000210
units angstrom
no_reorient  #important for SAPT in psi4, default
symmetry c1  #important for SAPT in psi4, default
}

set PROPERTIES_ORIGIN ["COM"]
properties('MP2/aug-cc-pvtz', properties = ['dipole'])
--------------------------------------------------------------------------

    Molecular point group: c1
  Charge       = 0
  Multiplicity = 1
  Basis Set: AUG-CC-PVTZ
    Blend: AUG-CC-PVTZ
  Basis Set: (AUG-CC-PVTZ AUX)
    Blend: AUG-CC-PVTZ-JKFIT

    Orbital Energies [Eh]
    ---------------------

    Doubly Occupied:

       1A    -20.648249     2A    -15.576528     3A    -11.343484
       4A    -11.301840     5A    -11.279886     6A     -1.489040
       7A     -1.236623     8A     -1.033218     9A     -0.838403
      10A     -0.822628    11A     -0.748031    12A     -0.661270
      13A     -0.628563    14A     -0.591240    15A     -0.571932
      16A     -0.469399    17A     -0.458976    18A     -0.347763

  @DF-RHF Final Energy:  -244.71226104229933

   => Energetics <=

    Nuclear Repulsion Energy =            162.2192871486268757
    One-Electron Energy =                -653.7689461128795756
    Two-Electron Energy =                 246.8373979219533396
    Total Energy =                       -244.7122610422993318
  Basis Set: (AUG-CC-PVTZ AUX)
    Blend: AUG-CC-PVTZ-RI
    Molecular point group: c1

    Geometry (in Angstrom), charge = 0, multiplicity = 1:

       Center              X                  Y                   Z               Mass
    ------------   -----------------  -----------------  -----------------  -----------------
         O           -0.356205819151    -1.089698296073     0.000023378308    15.994914619570
         N           -0.377405819151     1.156392703927    -0.000043621692    14.003074004430
         C            0.945347180849    -0.658803296073     0.000034378308    12.000000000000
         C            0.936502180849     0.702714703927    -0.000031621692    12.000000000000
         C           -1.083966819151     0.060942703927     0.000015378308    12.000000000000
         H            1.705406180849    -1.423768296073     0.000064378308     1.007825032230
         H            1.850071380849     1.449976103927    -0.000066621692     1.007825032230
         H           -2.158674819151    -0.047710296073     0.000021378308     1.007825032230

  Basis Set: AUG-CC-PVTZ
    Blend: AUG-CC-PVTZ
  Basis Set: (AUG-CC-PVTZ AUX)
    Blend: AUG-CC-PVTZ-JKFIT
	 Reference Energy          =    -244.7122610422993318 [Eh]
	 Singles Energy            =      -0.0000000000000000 [Eh]
	 Same-Spin Energy          =      -0.2508041774010717 [Eh]
	 Opposite-Spin Energy      =      -0.7550551520214339 [Eh]
	 Correlation Energy        =      -1.0058593294225058 [Eh]
	 Total Energy              =    -245.7181203717218239 [Eh]

	 ================> DF-SCS-MP2 Energies <==================
	-----------------------------------------------------------
	 SCS Same-Spin Scale       =       0.3333333333333333 [-]
	 SCS Opposite-Spin Scale   =       1.2000000000000000 [-]
	 SCS Same-Spin Energy      =      -0.0836013924670239 [Eh]
	 SCS Opposite-Spin Energy  =      -0.9060661824257207 [Eh]
	 SCS Correlation Energy    =      -0.9896675748927446 [Eh]
	 SCS Total Energy          =    -245.7019286171920669 [Eh]
	-----------------------------------------------------------

  Dipole Moment: [D]
     X:     0.7725      Y:    -1.4063      Z:     0.0001     Total:     1.6045

*** Psi4 exiting successfully. Buy a developer a beer!
