                               Psi4 1.4a3.dev225

  ==> Input File <==

--------------------------------------------------------------------------
#psi4
#
memory 32 gb

molecule  {
0 1
  O       -0.3732950    -1.0875170     0.0000230
  N       -0.3944950     1.1585740    -0.0000440
  C        0.9282580    -0.6566220     0.0000340
  C        0.9190882     0.7548949    -0.0000344
  C       -1.1010560     0.0631240     0.0000150
  H        1.6883170    -1.4215870     0.0000640
  H        1.7555780     1.3888440    -0.0000640
  H       -2.1757640    -0.0455290     0.0000210
units angstrom
no_reorient  #important for SAPT in psi4, default
symmetry c1  #important for SAPT in psi4, default
}

set PROPERTIES_ORIGIN ["COM"]
properties('MP2/aug-cc-pvtz', properties = ['dipole'])
--------------------------------------------------------------------------

    Molecular point group: c1
  Charge       = 0
  Multiplicity = 1
  Basis Set: AUG-CC-PVTZ
    Blend: AUG-CC-PVTZ
  Basis Set: (AUG-CC-PVTZ AUX)
    Blend: AUG-CC-PVTZ-JKFIT

    Orbital Energies [Eh]
    ---------------------

    Doubly Occupied:

       1A    -20.651594     2A    -15.575734     3A    -11.341798
       4A    -11.307657     5A    -11.273501     6A     -1.488477
       7A     -1.239412     8A     -1.027315     9A     -0.846544
      10A     -0.823450    11A     -0.754476    12A     -0.659772
      13A     -0.635707    14A     -0.608590    15A     -0.579628
      16A     -0.464927    17A     -0.460984    18A     -0.337489

  @DF-RHF Final Energy:  -244.71396517726197

   => Energetics <=

    Nuclear Repulsion Energy =            162.1333317314302747
    One-Electron Energy =                -653.5404865361836073
    Two-Electron Energy =                 246.6931896274913356
    Total Energy =                       -244.7139651772619686
  Basis Set: (AUG-CC-PVTZ AUX)
    Blend: AUG-CC-PVTZ-RI
    Molecular point group: c1

    Geometry (in Angstrom), charge = 0, multiplicity = 1:

       Center              X                  Y                   Z               Mass
    ------------   -----------------  -----------------  -----------------  -----------------
         O           -0.355019123217    -1.097466574833     0.000023751765    15.994914619570
         N           -0.376219123217     1.148624425167    -0.000043248235    14.003074004430
         C            0.946533876783    -0.666571574833     0.000034751765    12.000000000000
         C            0.937364076783     0.744945325167    -0.000033648235    12.000000000000
         C           -1.082780123217     0.053174425167     0.000015751765    12.000000000000
         H            1.706592876783    -1.431536574833     0.000064751765     1.007825032230
         H            1.773853876783     1.378894425167    -0.000063248235     1.007825032230
         H           -2.157488123217    -0.055478574833     0.000021751765     1.007825032230

  Basis Set: AUG-CC-PVTZ
    Blend: AUG-CC-PVTZ
  Basis Set: (AUG-CC-PVTZ AUX)
    Blend: AUG-CC-PVTZ-JKFIT
	 Reference Energy          =    -244.7139651772619686 [Eh]
	 Singles Energy            =      -0.0000000000000000 [Eh]
	 Same-Spin Energy          =      -0.2516659438045239 [Eh]
	 Opposite-Spin Energy      =      -0.7560006917738135 [Eh]
	 Correlation Energy        =      -1.0076666355783375 [Eh]
	 Total Energy              =    -245.7216318128403145 [Eh]

	 ================> DF-SCS-MP2 Energies <==================
	-----------------------------------------------------------
	 SCS Same-Spin Scale       =       0.3333333333333333 [-]
	 SCS Opposite-Spin Scale   =       1.2000000000000000 [-]
	 SCS Same-Spin Energy      =      -0.0838886479348413 [Eh]
	 SCS Opposite-Spin Energy  =      -0.9072008301285761 [Eh]
	 SCS Correlation Energy    =      -0.9910894780634174 [Eh]
	 SCS Total Energy          =    -245.7050546553253980 [Eh]
	-----------------------------------------------------------

  Dipole Moment: [D]
     X:     0.8019      Y:    -1.3974      Z:     0.0001     Total:     1.6111

*** Psi4 exiting successfully. Buy a developer a beer!
