                               Psi4 1.3.2 release

  ==> Input File <==

--------------------------------------------------------------------------
#psi4
#
memory 32 gb

molecule  {
0 1
  O       -0.3732950    -1.0875170     0.0000230
  N       -0.3944950     1.1585740    -0.0000440
  C        0.9282580    -0.6566220     0.0000340
  C        0.7771441     0.6965129    -0.0000303
  C       -1.1010560     0.0631240     0.0000150
  H        1.6883170    -1.4215870     0.0000640
  H        1.7555780     1.3888440    -0.0000640
  H       -2.1757640    -0.0455290     0.0000210
units angstrom
no_reorient  #important for SAPT in psi4, default
symmetry c1  #important for SAPT in psi4, default
}

set PROPERTIES_ORIGIN ["COM"]
properties('MP2/aug-cc-pvtz', properties = ['dipole'])
--------------------------------------------------------------------------

    Molecular point group: c1
  Charge       = 0
  Multiplicity = 1
  Basis Set: AUG-CC-PVTZ
    Blend: AUG-CC-PVTZ
  Basis Set: (AUG-CC-PVTZ AUX)
    Blend: AUG-CC-PVTZ-JKFIT

    Orbital Energies [Eh]
    ---------------------

    Doubly Occupied:

       1A    -20.651250     2A    -15.572692     3A    -11.346806
       4A    -11.292492     5A    -11.269284     6A     -1.498341
       7A     -1.283304     8A     -1.030091     9A     -0.849474
      10A     -0.832096    11A     -0.756561    12A     -0.669013
      13A     -0.633794    14A     -0.603861    15A     -0.553330
      16A     -0.484042    17A     -0.474841    18A     -0.336206

  @DF-RHF Final Energy:  -244.69033313289449

   => Energetics <=

    Nuclear Repulsion Energy =            165.1459744568083181
    One-Electron Energy =                -659.3976626388647446
    Two-Electron Energy =                 249.5613550491619606
    Total Energy =                       -244.6903331328944944
  Basis Set: (AUG-CC-PVTZ AUX)
    Blend: AUG-CC-PVTZ-RI
    Molecular point group: c1

    Geometry (in Angstrom), charge = 0, multiplicity = 1:

       Center              X                  Y                   Z               Mass
    ------------   -----------------  -----------------  -----------------  -----------------
         O           -0.330340869408    -1.087316340946     0.000023038943    15.994914619570
         N           -0.351540869408     1.158774659054    -0.000043961057    14.003074004430
         C            0.971212130592    -0.656421340946     0.000034038943    12.000000000000
         C            0.820098230592     0.696713559054    -0.000030261057    12.000000000000
         C           -1.058101869408     0.063324659054     0.000015038943    12.000000000000
         H            1.731271130592    -1.421386340946     0.000064038943     1.007825032230
         H            1.798532130592     1.389044659054    -0.000063961057     1.007825032230
         H           -2.132809869408    -0.045328340946     0.000021038943     1.007825032230

  Basis Set: AUG-CC-PVTZ
    Blend: AUG-CC-PVTZ
  Basis Set: (AUG-CC-PVTZ AUX)
    Blend: AUG-CC-PVTZ-JKFIT
	 Reference Energy          =    -244.6903331328944944 [Eh]
	 Singles Energy            =      -0.0000000000000000 [Eh]
	 Same-Spin Energy          =      -0.2527861134064454 [Eh]
	 Opposite-Spin Energy      =      -0.7551783589109256 [Eh]
	 Correlation Energy        =      -1.0079644723173709 [Eh]
	 Total Energy              =    -245.6982976052118772 [Eh]

	 ================> DF-SCS-MP2 Energies <==================
	-----------------------------------------------------------
	 SCS Same-Spin Scale       =       0.3333333333333333 [-]
	 SCS Opposite-Spin Scale   =       1.2000000000000000 [-]
	 SCS Same-Spin Energy      =      -0.0842620378021485 [Eh]
	 SCS Opposite-Spin Energy  =      -0.9062140306931106 [Eh]
	 SCS Correlation Energy    =      -0.9904760684952590 [Eh]
	 SCS Total Energy          =    -245.6808092013897635 [Eh]
	-----------------------------------------------------------

  Dipole Moment: [D]
     X:     0.6013      Y:    -1.4690      Z:     0.0001     Total:     1.5873

*** Psi4 exiting successfully. Buy a developer a beer!
