                               Psi4 1.4a3.dev225

  ==> Input File <==

--------------------------------------------------------------------------
#psi4
#
memory 32 gb

molecule  {
0 1
  O       -0.3732950    -1.0875170     0.0000230
  N       -0.3944950     1.1585740    -0.0000440
  C        0.9092714    -0.6629077     0.0000338
  C        0.9194130     0.7048960    -0.0000320
  C       -1.1010560     0.0631240     0.0000150
  H        1.6883170    -1.4215870     0.0000640
  H        1.7555780     1.3888440    -0.0000640
  H       -2.1757640    -0.0455290     0.0000210
units angstrom
no_reorient  #important for SAPT in psi4, default
symmetry c1  #important for SAPT in psi4, default
}

set PROPERTIES_ORIGIN ["COM"]
properties('MP2/aug-cc-pvtz', properties = ['dipole'])
--------------------------------------------------------------------------

    Molecular point group: c1
  Charge       = 0
  Multiplicity = 1
  Basis Set: AUG-CC-PVTZ
    Blend: AUG-CC-PVTZ
  Basis Set: (AUG-CC-PVTZ AUX)
    Blend: AUG-CC-PVTZ-JKFIT

    Orbital Energies [Eh]
    ---------------------

    Doubly Occupied:

       1A    -20.650445     2A    -15.576135     3A    -11.341662
       4A    -11.302163     5A    -11.268356     6A     -1.496335
       7A     -1.237344     8A     -1.033847     9A     -0.846502
      10A     -0.822705    11A     -0.755699    12A     -0.665133
      13A     -0.631594    14A     -0.596985    15A     -0.582520
      16A     -0.469250    17A     -0.459138    18A     -0.344878

  @DF-RHF Final Energy:  -244.71961655671095

   => Energetics <=

    Nuclear Repulsion Energy =            162.9374275151546954
    One-Electron Energy =                -655.1527012842997237
    Two-Electron Energy =                 247.4956572124340823
    Total Energy =                       -244.7196165567109460
  Basis Set: (AUG-CC-PVTZ AUX)
    Blend: AUG-CC-PVTZ-RI
    Molecular point group: c1

    Geometry (in Angstrom), charge = 0, multiplicity = 1:

       Center              X                  Y                   Z               Mass
    ------------   -----------------  -----------------  -----------------  -----------------
         O           -0.351774602050    -1.087680992731     0.000023369275    15.994914619570
         N           -0.372974602050     1.158410007269    -0.000043630725    14.003074004430
         C            0.930791797950    -0.663071692731     0.000034169275    12.000000000000
         C            0.940933397950     0.704732007269    -0.000031630725    12.000000000000
         C           -1.079535602050     0.062960007269     0.000015369275    12.000000000000
         H            1.709837397950    -1.421750992731     0.000064369275     1.007825032230
         H            1.777098397950     1.388680007269    -0.000063630725     1.007825032230
         H           -2.154243602050    -0.045692992731     0.000021369275     1.007825032230

  Basis Set: AUG-CC-PVTZ
    Blend: AUG-CC-PVTZ
  Basis Set: (AUG-CC-PVTZ AUX)
    Blend: AUG-CC-PVTZ-JKFIT
	 Reference Energy          =    -244.7196165567109460 [Eh]
	 Singles Energy            =      -0.0000000000000000 [Eh]
	 Same-Spin Energy          =      -0.2507667435824127 [Eh]
	 Opposite-Spin Energy      =      -0.7542011566525535 [Eh]
	 Correlation Energy        =      -1.0049679002349663 [Eh]
	 Total Energy              =    -245.7245844569459052 [Eh]

	 ================> DF-SCS-MP2 Energies <==================
	-----------------------------------------------------------
	 SCS Same-Spin Scale       =       0.3333333333333333 [-]
	 SCS Opposite-Spin Scale   =       1.2000000000000000 [-]
	 SCS Same-Spin Energy      =      -0.0835889145274709 [Eh]
	 SCS Opposite-Spin Energy  =      -0.9050413879830641 [Eh]
	 SCS Correlation Energy    =      -0.9886303025105350 [Eh]
	 SCS Total Energy          =    -245.7082468592214752 [Eh]
	-----------------------------------------------------------

  Dipole Moment: [D]
     X:     0.7596      Y:    -1.4412      Z:     0.0001     Total:     1.6292

*** Psi4 exiting successfully. Buy a developer a beer!
