                               Psi4 1.3.2 release

  ==> Input File <==

--------------------------------------------------------------------------
#psi4
#
memory 32 gb

molecule  {
0 1
  O       -0.3732950    -1.0875170     0.0000230
  N       -0.3944950     1.1585740    -0.0000440
  C        0.9282580    -0.6566220     0.0000340
  C        0.9194130     0.7048960    -0.0000320
  C       -1.1010560     0.0631240     0.0000150
  H        1.6883170    -1.4215870     0.0000640
  H        1.6781738     1.3255306    -0.0000610
  H       -2.1757640    -0.0455290     0.0000210
units angstrom
no_reorient  #important for SAPT in psi4, default
symmetry c1  #important for SAPT in psi4, default
}

set PROPERTIES_ORIGIN ["COM"]
properties('MP2/aug-cc-pvtz', properties = ['dipole'])
--------------------------------------------------------------------------

    Molecular point group: c1
  Charge       = 0
  Multiplicity = 1
  Basis Set: AUG-CC-PVTZ
    Blend: AUG-CC-PVTZ
  Basis Set: (AUG-CC-PVTZ AUX)
    Blend: AUG-CC-PVTZ-JKFIT

    Orbital Energies [Eh]
    ---------------------

    Doubly Occupied:

       1A    -20.647328     2A    -15.574780     3A    -11.342178
       4A    -11.301108     5A    -11.258145     6A     -1.488040
       7A     -1.236056     8A     -1.037624     9A     -0.853256
      10A     -0.825344    11A     -0.760496    12A     -0.660291
      13A     -0.634421    14A     -0.608303    15A     -0.585375
      16A     -0.469125    17A     -0.457964    18A     -0.347266

  @DF-RHF Final Energy:  -244.71360979779647

   => Energetics <=

    Nuclear Repulsion Energy =            163.1701094269735108
    One-Electron Energy =                -655.5932388393143810
    Two-Electron Energy =                 247.7095196145444049
    Total Energy =                       -244.7136097977964653
  Basis Set: (AUG-CC-PVTZ AUX)
    Blend: AUG-CC-PVTZ-RI
    Molecular point group: c1

    Geometry (in Angstrom), charge = 0, multiplicity = 1:

       Center              X                  Y                   Z               Mass
    ------------   -----------------  -----------------  -----------------  -----------------
         O           -0.353945366064    -1.087849339938     0.000023290698    15.994914619570
         N           -0.375145366064     1.158241660062    -0.000043709302    14.003074004430
         C            0.947607633936    -0.656954339938     0.000034290698    12.000000000000
         C            0.938762633936     0.704563660062    -0.000031709302    12.000000000000
         C           -1.081706366064     0.062791660062     0.000015290698    12.000000000000
         H            1.707666633936    -1.421919339938     0.000064290698     1.007825032230
         H            1.697523433936     1.325198260062    -0.000060709302     1.007825032230
         H           -2.156414366064    -0.045861339938     0.000021290698     1.007825032230

  Basis Set: AUG-CC-PVTZ
    Blend: AUG-CC-PVTZ
  Basis Set: (AUG-CC-PVTZ AUX)
    Blend: AUG-CC-PVTZ-JKFIT
	 Reference Energy          =    -244.7136097977964653 [Eh]
	 Singles Energy            =      -0.0000000000000000 [Eh]
	 Same-Spin Energy          =      -0.2504764730796598 [Eh]
	 Opposite-Spin Energy      =      -0.7540255680061682 [Eh]
	 Correlation Energy        =      -1.0045020410858279 [Eh]
	 Total Energy              =    -245.7181118388822938 [Eh]

	 ================> DF-SCS-MP2 Energies <==================
	-----------------------------------------------------------
	 SCS Same-Spin Scale       =       0.3333333333333333 [-]
	 SCS Opposite-Spin Scale   =       1.2000000000000000 [-]
	 SCS Same-Spin Energy      =      -0.0834921576932199 [Eh]
	 SCS Opposite-Spin Energy  =      -0.9048306816074018 [Eh]
	 SCS Correlation Energy    =      -0.9883228393006217 [Eh]
	 SCS Total Energy          =    -245.7019326370970873 [Eh]
	-----------------------------------------------------------

  Dipole Moment: [D]
     X:     0.7885      Y:    -1.4393      Z:     0.0001     Total:     1.6412

*** Psi4 exiting successfully. Buy a developer a beer!
