                               Psi4 1.3.2 release

  ==> Input File <==

--------------------------------------------------------------------------
#psi4
#
memory 32 gb

molecule  {
0 1
  O       -0.3934873    -1.1000429     0.0000232
  N       -0.3944950     1.1585740    -0.0000440
  C        0.9282580    -0.6566220     0.0000340
  C        0.9194130     0.7048960    -0.0000320
  C       -1.1010560     0.0631240     0.0000150
  H        1.6883170    -1.4215870     0.0000640
  H        1.7555780     1.3888440    -0.0000640
  H       -2.1757640    -0.0455290     0.0000210
units angstrom
no_reorient  #important for SAPT in psi4, default
symmetry c1  #important for SAPT in psi4, default
}

set PROPERTIES_ORIGIN ["COM"]
properties('MP2/aug-cc-pvtz', properties = ['dipole'])
--------------------------------------------------------------------------

    Molecular point group: c1
  Charge       = 0
  Multiplicity = 1
  Basis Set: AUG-CC-PVTZ
    Blend: AUG-CC-PVTZ
  Basis Set: (AUG-CC-PVTZ AUX)
    Blend: AUG-CC-PVTZ-JKFIT

    Orbital Energies [Eh]
    ---------------------

    Doubly Occupied:

       1A    -20.647559     2A    -15.575515     3A    -11.343867
       4A    -11.302655     5A    -11.272064     6A     -1.481244
       7A     -1.236791     8A     -1.033340     9A     -0.840247
      10A     -0.825574    11A     -0.751415    12A     -0.656755
      13A     -0.626145    14A     -0.597755    15A     -0.585520
      16A     -0.469347    17A     -0.459148    18A     -0.348641

  @DF-RHF Final Energy:  -244.71842228195206

   => Energetics <=

    Nuclear Repulsion Energy =            162.1548070302303870
    One-Electron Energy =                -653.6392996271079028
    Two-Electron Energy =                 246.7660703149254857
    Total Energy =                       -244.7184222819520585
  Basis Set: (AUG-CC-PVTZ AUX)
    Blend: AUG-CC-PVTZ-RI
    Molecular point group: c1

    Geometry (in Angstrom), charge = 0, multiplicity = 1:

       Center              X                  Y                   Z               Mass
    ------------   -----------------  -----------------  -----------------  -----------------
         O           -0.370588563931    -1.098396987605     0.000023488155    15.994914619570
         N           -0.371596263931     1.160219912395    -0.000043711845    14.003074004430
         C            0.951156736069    -0.654976087605     0.000034288155    12.000000000000
         C            0.942311736069     0.706541912395    -0.000031711845    12.000000000000
         C           -1.078157263931     0.064769912395     0.000015288155    12.000000000000
         H            1.711215736069    -1.419941087605     0.000064288155     1.007825032230
         H            1.778476736069     1.390489912395    -0.000063711845     1.007825032230
         H           -2.152865263931    -0.043883087605     0.000021288155     1.007825032230

  Basis Set: AUG-CC-PVTZ
    Blend: AUG-CC-PVTZ
  Basis Set: (AUG-CC-PVTZ AUX)
    Blend: AUG-CC-PVTZ-JKFIT
	 Reference Energy          =    -244.7184222819520585 [Eh]
	 Singles Energy            =      -0.0000000000000000 [Eh]
	 Same-Spin Energy          =      -0.2505845241253336 [Eh]
	 Opposite-Spin Energy      =      -0.7549694074189407 [Eh]
	 Correlation Energy        =      -1.0055539315442743 [Eh]
	 Total Energy              =    -245.7239762134963428 [Eh]

	 ================> DF-SCS-MP2 Energies <==================
	-----------------------------------------------------------
	 SCS Same-Spin Scale       =       0.3333333333333333 [-]
	 SCS Opposite-Spin Scale   =       1.2000000000000000 [-]
	 SCS Same-Spin Energy      =      -0.0835281747084445 [Eh]
	 SCS Opposite-Spin Energy  =      -0.9059632889027288 [Eh]
	 SCS Correlation Energy    =      -0.9894914636111733 [Eh]
	 SCS Total Energy          =    -245.7079137455632178 [Eh]
	-----------------------------------------------------------

  Dipole Moment: [D]
     X:     0.8308      Y:    -1.3642      Z:     0.0001     Total:     1.5973

*** Psi4 exiting successfully. Buy a developer a beer!
