                               Psi4 1.3.2 release

  ==> Input File <==

--------------------------------------------------------------------------
#psi4
#
memory 32 gb

molecule  {
0 1
  O       -0.3732950    -1.0875170     0.0000230
  N       -0.3944950     1.1585740    -0.0000440
  C        0.9757689    -0.6554839     0.0000340
  C        0.9194130     0.7048960    -0.0000320
  C       -1.1010560     0.0631240     0.0000150
  H        1.6883170    -1.4215870     0.0000640
  H        1.7555780     1.3888440    -0.0000640
  H       -2.1757640    -0.0455290     0.0000210
units angstrom
no_reorient  #important for SAPT in psi4, default
symmetry c1  #important for SAPT in psi4, default
}

set PROPERTIES_ORIGIN ["COM"]
properties('MP2/aug-cc-pvtz', properties = ['dipole'])
--------------------------------------------------------------------------

    Molecular point group: c1
  Charge       = 0
  Multiplicity = 1
  Basis Set: AUG-CC-PVTZ
    Blend: AUG-CC-PVTZ
  Basis Set: (AUG-CC-PVTZ AUX)
    Blend: AUG-CC-PVTZ-JKFIT

    Orbital Energies [Eh]
    ---------------------

    Doubly Occupied:

       1A    -20.641697     2A    -15.574755     3A    -11.345203
       4A    -11.300800     5A    -11.273852     6A     -1.471593
       7A     -1.233357     8A     -1.035614     9A     -0.837425
      10A     -0.828290    11A     -0.750411    12A     -0.650874
      13A     -0.635270    14A     -0.598435    15A     -0.576503
      16A     -0.469578    17A     -0.456479    18A     -0.350746

  @DF-RHF Final Energy:  -244.71648153458486

   => Energetics <=

    Nuclear Repulsion Energy =            161.8574317711490380
    One-Electron Energy =                -653.0860604383320833
    Two-Electron Energy =                 246.5121471325981872
    Total Energy =                       -244.7164815345848581
  Basis Set: (AUG-CC-PVTZ AUX)
    Blend: AUG-CC-PVTZ-RI
    Molecular point group: c1

    Geometry (in Angstrom), charge = 0, multiplicity = 1:

       Center              X                  Y                   Z               Mass
    ------------   -----------------  -----------------  -----------------  -----------------
         O           -0.363335788339    -1.088971686889     0.000023334503    15.994914619570
         N           -0.384535788339     1.157119313111    -0.000043665497    14.003074004430
         C            0.985728111661    -0.656938586889     0.000034334503    12.000000000000
         C            0.929372211661     0.703441313111    -0.000031665497    12.000000000000
         C           -1.091096788339     0.061669313111     0.000015334503    12.000000000000
         H            1.698276211661    -1.423041686889     0.000064334503     1.007825032230
         H            1.765537211661     1.387389313111    -0.000063665497     1.007825032230
         H           -2.165804788339    -0.046983686889     0.000021334503     1.007825032230

  Basis Set: AUG-CC-PVTZ
    Blend: AUG-CC-PVTZ
  Basis Set: (AUG-CC-PVTZ AUX)
    Blend: AUG-CC-PVTZ-JKFIT
	 Reference Energy          =    -244.7164815345848581 [Eh]
	 Singles Energy            =      -0.0000000000000000 [Eh]
	 Same-Spin Energy          =      -0.2504603762236587 [Eh]
	 Opposite-Spin Energy      =      -0.7550300958361271 [Eh]
	 Correlation Energy        =      -1.0054904720597859 [Eh]
	 Total Energy              =    -245.7219720066446484 [Eh]

	 ================> DF-SCS-MP2 Energies <==================
	-----------------------------------------------------------
	 SCS Same-Spin Scale       =       0.3333333333333333 [-]
	 SCS Opposite-Spin Scale   =       1.2000000000000000 [-]
	 SCS Same-Spin Energy      =      -0.0834867920745529 [Eh]
	 SCS Opposite-Spin Energy  =      -0.9060361150033525 [Eh]
	 SCS Correlation Energy    =      -0.9895229070779054 [Eh]
	 SCS Total Energy          =    -245.7060044416627704 [Eh]
	-----------------------------------------------------------

  Dipole Moment: [D]
     X:     0.8367      Y:    -1.3844      Z:     0.0001     Total:     1.6176

*** Psi4 exiting successfully. Buy a developer a beer!
