                               Psi4 1.3.2 release

  ==> Input File <==

--------------------------------------------------------------------------
#psi4
#
memory 32 gb

molecule  {
0 1
  O       -0.3732950    -1.0875170     0.0000230
  N       -0.3944950     1.1585740    -0.0000440
  C        0.9282580    -0.6566220     0.0000340
  C        0.9207123     0.5049002    -0.0000223
  C       -1.1010560     0.0631240     0.0000150
  H        1.6883170    -1.4215870     0.0000640
  H        1.7555780     1.3888440    -0.0000640
  H       -2.1757640    -0.0455290     0.0000210
units angstrom
no_reorient  #important for SAPT in psi4, default
symmetry c1  #important for SAPT in psi4, default
}

set PROPERTIES_ORIGIN ["COM"]
properties('MP2/aug-cc-pvtz', properties = ['dipole'])
--------------------------------------------------------------------------

    Molecular point group: c1
  Charge       = 0
  Multiplicity = 1
  Basis Set: AUG-CC-PVTZ
    Blend: AUG-CC-PVTZ
  Basis Set: (AUG-CC-PVTZ AUX)
    Blend: AUG-CC-PVTZ-JKFIT

    Orbital Energies [Eh]
    ---------------------

    Doubly Occupied:

       1A    -20.633635     2A    -15.577316     3A    -11.345779
       4A    -11.271378     5A    -11.251432     6A     -1.491015
       7A     -1.220899     8A     -1.082229     9A     -0.855203
      10A     -0.803412    11A     -0.746641    12A     -0.667942
      13A     -0.628672    14A     -0.593530    15A     -0.530620
      16A     -0.477365    17A     -0.451755    18A     -0.394264

  @DF-RHF Final Energy:  -244.65548041854697

   => Energetics <=

    Nuclear Repulsion Energy =            165.1321262115594664
    One-Electron Energy =                -659.5290368027128807
    Two-Electron Energy =                 249.7414301726064423
    Total Energy =                       -244.6554804185469720
  Basis Set: (AUG-CC-PVTZ AUX)
    Blend: AUG-CC-PVTZ-RI
    Molecular point group: c1

    Geometry (in Angstrom), charge = 0, multiplicity = 1:

       Center              X                  Y                   Z               Mass
    ------------   -----------------  -----------------  -----------------  -----------------
         O           -0.355301487556    -1.054002755924     0.000021648071    15.994914619570
         N           -0.376501487556     1.192088244076    -0.000045351929    14.003074004430
         C            0.946251512444    -0.623107755924     0.000032648071    12.000000000000
         C            0.938705812444     0.538414444076    -0.000023651929    12.000000000000
         C           -1.083062487556     0.096638244076     0.000013648071    12.000000000000
         H            1.706310512444    -1.388072755924     0.000062648071     1.007825032230
         H            1.773571512444     1.422358244076    -0.000065351929     1.007825032230
         H           -2.157770487556    -0.012014755924     0.000019648071     1.007825032230

  Basis Set: AUG-CC-PVTZ
    Blend: AUG-CC-PVTZ
  Basis Set: (AUG-CC-PVTZ AUX)
    Blend: AUG-CC-PVTZ-JKFIT
	 Reference Energy          =    -244.6554804185469720 [Eh]
	 Singles Energy            =      -0.0000000000000000 [Eh]
	 Same-Spin Energy          =      -0.2483519716304392 [Eh]
	 Opposite-Spin Energy      =      -0.7513700799637842 [Eh]
	 Correlation Energy        =      -0.9997220515942234 [Eh]
	 Total Energy              =    -245.6552024701412051 [Eh]

	 ================> DF-SCS-MP2 Energies <==================
	-----------------------------------------------------------
	 SCS Same-Spin Scale       =       0.3333333333333333 [-]
	 SCS Opposite-Spin Scale   =       1.2000000000000000 [-]
	 SCS Same-Spin Energy      =      -0.0827839905434797 [Eh]
	 SCS Opposite-Spin Energy  =      -0.9016440959565410 [Eh]
	 SCS Correlation Energy    =      -0.9844280865000208 [Eh]
	 SCS Total Energy          =    -245.6399085050470035 [Eh]
	-----------------------------------------------------------

  Dipole Moment: [D]
     X:     0.6916      Y:    -1.4499      Z:     0.0001     Total:     1.6063

*** Psi4 exiting successfully. Buy a developer a beer!
