                               Psi4 1.4a3.dev225

  ==> Input File <==

--------------------------------------------------------------------------
#psi4
#
memory 32 gb

molecule  {
0 1
  O       -0.3732950    -1.0875170     0.0000230
  N       -0.3944950     1.1585740    -0.0000440
  C        0.9282580    -0.6566220     0.0000340
  C        0.9194130     0.7048960    -0.0000320
  C       -1.1010560     0.0631240     0.0000150
  H        1.6883170    -1.4215870     0.0000640
  H        1.7555780     1.3888440    -0.0000640
  H       -2.1558654    -0.0435173     0.0000209
units angstrom
no_reorient  #important for SAPT in psi4, default
symmetry c1  #important for SAPT in psi4, default
}

set PROPERTIES_ORIGIN ["COM"]
properties('MP2/aug-cc-pvtz', properties = ['dipole'])
--------------------------------------------------------------------------

    Molecular point group: c1
  Charge       = 0
  Multiplicity = 1
  Basis Set: AUG-CC-PVTZ
    Blend: AUG-CC-PVTZ
  Basis Set: (AUG-CC-PVTZ AUX)
    Blend: AUG-CC-PVTZ-JKFIT

    Orbital Energies [Eh]
    ---------------------

    Doubly Occupied:

       1A    -20.647568     2A    -15.575497     3A    -11.340670
       4A    -11.301307     5A    -11.269293     6A     -1.488388
       7A     -1.236101     8A     -1.035646     9A     -0.844186
      10A     -0.826136    11A     -0.755246    12A     -0.660626
      13A     -0.631651    14A     -0.599128    15A     -0.582837
      16A     -0.469313    17A     -0.458294    18A     -0.347406

  @DF-RHF Final Energy:  -244.71999154989999

   => Energetics <=

    Nuclear Repulsion Energy =            162.7622647378607610
    One-Electron Energy =                -654.8259290468488416
    Two-Electron Energy =                 247.3436727590881219
    Total Energy =                       -244.7199915498999871
  Basis Set: (AUG-CC-PVTZ AUX)
    Blend: AUG-CC-PVTZ-RI
    Molecular point group: c1

    Geometry (in Angstrom), charge = 0, multiplicity = 1:

       Center              X                  Y                   Z               Mass
    ------------   -----------------  -----------------  -----------------  -----------------
         O           -0.355366144359    -1.088803192080     0.000023335963    15.994914619570
         N           -0.376566144359     1.157287807920    -0.000043664037    14.003074004430
         C            0.946186855641    -0.657908192080     0.000034335963    12.000000000000
         C            0.937341855641     0.703609807920    -0.000031664037    12.000000000000
         C           -1.083127144359     0.061837807920     0.000015335963    12.000000000000
         H            1.706245855641    -1.422873192080     0.000064335963     1.007825032230
         H            1.773506855641     1.387557807920    -0.000063664037     1.007825032230
         H           -2.137936544359    -0.044803492080     0.000021235963     1.007825032230

  Basis Set: AUG-CC-PVTZ
    Blend: AUG-CC-PVTZ
  Basis Set: (AUG-CC-PVTZ AUX)
    Blend: AUG-CC-PVTZ-JKFIT
	 Reference Energy          =    -244.7199915498999871 [Eh]
	 Singles Energy            =      -0.0000000000000000 [Eh]
	 Same-Spin Energy          =      -0.2505634807143577 [Eh]
	 Opposite-Spin Energy      =      -0.7542234735457793 [Eh]
	 Correlation Energy        =      -1.0047869542601371 [Eh]
	 Total Energy              =    -245.7247785041601276 [Eh]

	 ================> DF-SCS-MP2 Energies <==================
	-----------------------------------------------------------
	 SCS Same-Spin Scale       =       0.3333333333333333 [-]
	 SCS Opposite-Spin Scale   =       1.2000000000000000 [-]
	 SCS Same-Spin Energy      =      -0.0835211602381192 [Eh]
	 SCS Opposite-Spin Energy  =      -0.9050681682549352 [Eh]
	 SCS Correlation Energy    =      -0.9885893284930545 [Eh]
	 SCS Total Energy          =    -245.7085808783930361 [Eh]
	-----------------------------------------------------------

  Dipole Moment: [D]
     X:     0.7902      Y:    -1.4201      Z:     0.0001     Total:     1.6251

*** Psi4 exiting successfully. Buy a developer a beer!
