                               Psi4 1.4a3.dev225

  ==> Input File <==

--------------------------------------------------------------------------
#psi4
#
memory 32 gb

molecule  {
0 1
  O       -0.3732950    -1.0875170     0.0000230
  N       -0.3944950     1.1585740    -0.0000440
  C        0.9282580    -0.6566220     0.0000340
  C        0.9194130     0.7048960    -0.0000320
  C       -1.1010560     0.0631240     0.0000150
  H        1.6883170    -1.4215870     0.0000640
  H        1.7400972     1.3761813    -0.0000634
  H       -2.1757640    -0.0455290     0.0000210
units angstrom
no_reorient  #important for SAPT in psi4, default
symmetry c1  #important for SAPT in psi4, default
}

set PROPERTIES_ORIGIN ["COM"]
properties('MP2/aug-cc-pvtz', properties = ['dipole'])
--------------------------------------------------------------------------

    Molecular point group: c1
  Charge       = 0
  Multiplicity = 1
  Basis Set: AUG-CC-PVTZ
    Blend: AUG-CC-PVTZ
  Basis Set: (AUG-CC-PVTZ AUX)
    Blend: AUG-CC-PVTZ-JKFIT

    Orbital Energies [Eh]
    ---------------------

    Doubly Occupied:

       1A    -20.647600     2A    -15.575356     3A    -11.342619
       4A    -11.301239     5A    -11.267165     6A     -1.488351
       7A     -1.236112     8A     -1.035264     9A     -0.844998
      10A     -0.824461    11A     -0.755144    12A     -0.660593
      13A     -0.630816    14A     -0.599689    15A     -0.583765
      16A     -0.469238    17A     -0.458267    18A     -0.347349

  @DF-RHF Final Energy:  -244.72000322579822

   => Energetics <=

    Nuclear Repulsion Energy =            162.7590205081197041
    One-Electron Energy =                -654.8219950644247547
    Two-Electron Energy =                 247.3429713305068276
    Total Energy =                       -244.7200032257982230
  Basis Set: (AUG-CC-PVTZ AUX)
    Blend: AUG-CC-PVTZ-RI
    Molecular point group: c1

    Geometry (in Angstrom), charge = 0, multiplicity = 1:

       Center              X                  Y                   Z               Mass
    ------------   -----------------  -----------------  -----------------  -----------------
         O           -0.354849547883    -1.088588922100     0.000023325742    15.994914619570
         N           -0.376049547883     1.157502077900    -0.000043674258    14.003074004430
         C            0.946703452117    -0.657693922100     0.000034325742    12.000000000000
         C            0.937858452117     0.703824077900    -0.000031674258    12.000000000000
         C           -1.082610547883     0.062052077900     0.000015325742    12.000000000000
         H            1.706762452117    -1.422658922100     0.000064325742     1.007825032230
         H            1.758542652117     1.375109377900    -0.000063074258     1.007825032230
         H           -2.157318547883    -0.046600922100     0.000021325742     1.007825032230

  Basis Set: AUG-CC-PVTZ
    Blend: AUG-CC-PVTZ
  Basis Set: (AUG-CC-PVTZ AUX)
    Blend: AUG-CC-PVTZ-JKFIT
	 Reference Energy          =    -244.7200032257982230 [Eh]
	 Singles Energy            =      -0.0000000000000000 [Eh]
	 Same-Spin Energy          =      -0.2505682702256561 [Eh]
	 Opposite-Spin Energy      =      -0.7542246502315495 [Eh]
	 Correlation Energy        =      -1.0047929204572057 [Eh]
	 Total Energy              =    -245.7247961462554144 [Eh]

	 ================> DF-SCS-MP2 Energies <==================
	-----------------------------------------------------------
	 SCS Same-Spin Scale       =       0.3333333333333333 [-]
	 SCS Opposite-Spin Scale   =       1.2000000000000000 [-]
	 SCS Same-Spin Energy      =      -0.0835227567418854 [Eh]
	 SCS Opposite-Spin Energy  =      -0.9050695802778593 [Eh]
	 SCS Correlation Energy    =      -0.9885923370197447 [Eh]
	 SCS Total Energy          =    -245.7085955628179761 [Eh]
	-----------------------------------------------------------

  Dipole Moment: [D]
     X:     0.7863      Y:    -1.4232      Z:     0.0001     Total:     1.6259

*** Psi4 exiting successfully. Buy a developer a beer!
