                               Psi4 1.4a3.dev225

  ==> Input File <==

--------------------------------------------------------------------------
#psi4
#
memory 32 gb

molecule  {
0 1
  O       -0.3732950    -1.0875170     0.0000230
  N       -0.3944950     1.1585740    -0.0000440
  C        0.9282580    -0.6566220     0.0000340
  C        0.9194130     0.7048960    -0.0000320
  C       -1.1010560     0.0631240     0.0000150
  H        1.6883170    -1.4215870     0.0000640
  H        1.7555780     1.3888440    -0.0000640
  H       -2.2255104    -0.0505584     0.0000213
units angstrom
no_reorient  #important for SAPT in psi4, default
symmetry c1  #important for SAPT in psi4, default
}

set PROPERTIES_ORIGIN ["COM"]
properties('MP2/aug-cc-pvtz', properties = ['dipole'])
--------------------------------------------------------------------------

    Molecular point group: c1
  Charge       = 0
  Multiplicity = 1
  Basis Set: AUG-CC-PVTZ
    Blend: AUG-CC-PVTZ
  Basis Set: (AUG-CC-PVTZ AUX)
    Blend: AUG-CC-PVTZ-JKFIT

    Orbital Energies [Eh]
    ---------------------

    Doubly Occupied:

       1A    -20.648028     2A    -15.575649     3A    -11.347786
       4A    -11.301340     5A    -11.269583     6A     -1.488629
       7A     -1.236355     8A     -1.033032     9A     -0.842375
      10A     -0.819614    11A     -0.750332    12A     -0.660870
      13A     -0.627157    14A     -0.592636    15A     -0.582986
      16A     -0.469161    17A     -0.458565    18A     -0.347401

  @DF-RHF Final Energy:  -244.71737316277120

   => Energetics <=

    Nuclear Repulsion Energy =            162.4263331930581273
    One-Electron Energy =                -654.1844164069090084
    Two-Electron Energy =                 247.0407100510797136
    Total Energy =                       -244.7173731627711959
  Basis Set: (AUG-CC-PVTZ AUX)
    Blend: AUG-CC-PVTZ-RI
    Molecular point group: c1

    Geometry (in Angstrom), charge = 0, multiplicity = 1:

       Center              X                  Y                   Z               Mass
    ------------   -----------------  -----------------  -----------------  -----------------
         O           -0.354349214689    -1.088700380629     0.000023330123    15.994914619570
         N           -0.375549214689     1.157390619371    -0.000043669877    14.003074004430
         C            0.947203785311    -0.657805380629     0.000034330123    12.000000000000
         C            0.938358785311     0.703712619371    -0.000031669877    12.000000000000
         C           -1.082110214689     0.061940619371     0.000015330123    12.000000000000
         H            1.707262785311    -1.422770380629     0.000064330123     1.007825032230
         H            1.774523785311     1.387660619371    -0.000063669877     1.007825032230
         H           -2.206564614689    -0.051741780629     0.000021630123     1.007825032230

  Basis Set: AUG-CC-PVTZ
    Blend: AUG-CC-PVTZ
  Basis Set: (AUG-CC-PVTZ AUX)
    Blend: AUG-CC-PVTZ-JKFIT
	 Reference Energy          =    -244.7173731627711959 [Eh]
	 Singles Energy            =      -0.0000000000000000 [Eh]
	 Same-Spin Energy          =      -0.2507101860409281 [Eh]
	 Opposite-Spin Energy      =      -0.7546404208986256 [Eh]
	 Correlation Energy        =      -1.0053506069395537 [Eh]
	 Total Energy              =    -245.7227237697107398 [Eh]

	 ================> DF-SCS-MP2 Energies <==================
	-----------------------------------------------------------
	 SCS Same-Spin Scale       =       0.3333333333333333 [-]
	 SCS Opposite-Spin Scale   =       1.2000000000000000 [-]
	 SCS Same-Spin Energy      =      -0.0835700620136427 [Eh]
	 SCS Opposite-Spin Energy  =      -0.9055685050783506 [Eh]
	 SCS Correlation Energy    =      -0.9891385670919933 [Eh]
	 SCS Total Energy          =    -245.7065117298631947 [Eh]
	-----------------------------------------------------------

  Dipole Moment: [D]
     X:     0.7732      Y:    -1.4188      Z:     0.0001     Total:     1.6158

*** Psi4 exiting successfully. Buy a developer a beer!
