                               Psi4 1.3.2 release

  ==> Input File <==

--------------------------------------------------------------------------
#psi4
#
memory 32 gb

molecule  {
0 1
  O       -0.3732950    -1.0875170     0.0000230
  N       -0.4022127     1.1355740    -0.0000430
  C        0.9282580    -0.6566220     0.0000340
  C        0.9194130     0.7048960    -0.0000320
  C       -1.1010560     0.0631240     0.0000150
  H        1.6883170    -1.4215870     0.0000640
  H        1.7555780     1.3888440    -0.0000640
  H       -2.1757640    -0.0455290     0.0000210
units angstrom
no_reorient  #important for SAPT in psi4, default
symmetry c1  #important for SAPT in psi4, default
}

set PROPERTIES_ORIGIN ["COM"]
properties('MP2/aug-cc-pvtz', properties = ['dipole'])
--------------------------------------------------------------------------

    Molecular point group: c1
  Charge       = 0
  Multiplicity = 1
  Basis Set: AUG-CC-PVTZ
    Blend: AUG-CC-PVTZ
  Basis Set: (AUG-CC-PVTZ AUX)
    Blend: AUG-CC-PVTZ-JKFIT

    Orbital Energies [Eh]
    ---------------------

    Doubly Occupied:

       1A    -20.644450     2A    -15.571418     3A    -11.338058
       4A    -11.301704     5A    -11.269194     6A     -1.488176
       7A     -1.241179     8A     -1.036421     9A     -0.843984
      10A     -0.823389    11A     -0.753711    12A     -0.660992
      13A     -0.629836    14A     -0.602439    15A     -0.581567
      16A     -0.465914    17A     -0.460276    18A     -0.349237

  @DF-RHF Final Energy:  -244.72165802729344

   => Energetics <=

    Nuclear Repulsion Energy =            163.1858388353823841
    One-Electron Energy =                -655.6911029353682352
    Two-Electron Energy =                 247.7836060726924359
    Total Energy =                       -244.7216580272934436
  Basis Set: (AUG-CC-PVTZ AUX)
    Blend: AUG-CC-PVTZ-RI
    Molecular point group: c1

    Geometry (in Angstrom), charge = 0, multiplicity = 1:

       Center              X                  Y                   Z               Mass
    ------------   -----------------  -----------------  -----------------  -----------------
         O           -0.353509825694    -1.084107578190     0.000023131623    15.994914619570
         N           -0.382427525694     1.138983421810    -0.000042868377    14.003074004430
         C            0.948043174306    -0.653212578190     0.000034131623    12.000000000000
         C            0.939198174306     0.708305421810    -0.000031868377    12.000000000000
         C           -1.081270825694     0.066533421810     0.000015131623    12.000000000000
         H            1.708102174306    -1.418177578190     0.000064131623     1.007825032230
         H            1.775363174306     1.392253421810    -0.000063868377     1.007825032230
         H           -2.155978825694    -0.042119578190     0.000021131623     1.007825032230

  Basis Set: AUG-CC-PVTZ
    Blend: AUG-CC-PVTZ
  Basis Set: (AUG-CC-PVTZ AUX)
    Blend: AUG-CC-PVTZ-JKFIT
	 Reference Energy          =    -244.7216580272934436 [Eh]
	 Singles Energy            =      -0.0000000000000000 [Eh]
	 Same-Spin Energy          =      -0.2500403197211526 [Eh]
	 Opposite-Spin Energy      =      -0.7530604224337057 [Eh]
	 Correlation Energy        =      -1.0031007421548583 [Eh]
	 Total Energy              =    -245.7247587694483002 [Eh]

	 ================> DF-SCS-MP2 Energies <==================
	-----------------------------------------------------------
	 SCS Same-Spin Scale       =       0.3333333333333333 [-]
	 SCS Opposite-Spin Scale   =       1.2000000000000000 [-]
	 SCS Same-Spin Energy      =      -0.0833467732403842 [Eh]
	 SCS Opposite-Spin Energy  =      -0.9036725069204469 [Eh]
	 SCS Correlation Energy    =      -0.9870192801608311 [Eh]
	 SCS Total Energy          =    -245.7086773074542805 [Eh]
	-----------------------------------------------------------

  Dipole Moment: [D]
     X:     0.7923      Y:    -1.3619      Z:     0.0001     Total:     1.5756

*** Psi4 exiting successfully. Buy a developer a beer!
