                               Psi4 1.3.2 release

  ==> Input File <==

--------------------------------------------------------------------------
#psi4
#
memory 32 gb

molecule  {
0 1
  O       -0.3732950    -1.0875170     0.0000230
  N       -0.3398750     1.2934295    -0.0000510
  C        0.9282580    -0.6566220     0.0000340
  C        0.9194130     0.7048960    -0.0000320
  C       -1.1010560     0.0631240     0.0000150
  H        1.6883170    -1.4215870     0.0000640
  H        1.7555780     1.3888440    -0.0000640
  H       -2.1757640    -0.0455290     0.0000210
units angstrom
no_reorient  #important for SAPT in psi4, default
symmetry c1  #important for SAPT in psi4, default
}

set PROPERTIES_ORIGIN ["COM"]
properties('MP2/aug-cc-pvtz', properties = ['dipole'])
--------------------------------------------------------------------------

    Molecular point group: c1
  Charge       = 0
  Multiplicity = 1
  Basis Set: AUG-CC-PVTZ
    Blend: AUG-CC-PVTZ
  Basis Set: (AUG-CC-PVTZ AUX)
    Blend: AUG-CC-PVTZ-JKFIT

    Orbital Energies [Eh]
    ---------------------

    Doubly Occupied:

       1A    -20.665684     2A    -15.597214     3A    -11.367893
       4A    -11.298442     5A    -11.271141     6A     -1.492391
       7A     -1.209788     8A     -1.026850     9A     -0.850867
      10A     -0.817490    11A     -0.755411    12A     -0.660739
      13A     -0.633453    14A     -0.589890    15A     -0.566602
      16A     -0.484341    17A     -0.450467    18A     -0.335679

  @DF-RHF Final Energy:  -244.68621119169256

   => Energetics <=

    Nuclear Repulsion Energy =            159.8231277534092953
    One-Electron Energy =                -648.8699927721355607
    Two-Electron Energy =                 244.3606538270337296
    Total Energy =                       -244.6862111916925642
  Basis Set: (AUG-CC-PVTZ AUX)
    Blend: AUG-CC-PVTZ-RI
    Molecular point group: c1

    Geometry (in Angstrom), charge = 0, multiplicity = 1:

       Center              X                  Y                   Z               Mass
    ------------   -----------------  -----------------  -----------------  -----------------
         O           -0.366156897768    -1.116133300760     0.000024754663    15.994914619570
         N           -0.332736897768     1.264813199240    -0.000049245337    14.003074004430
         C            0.935396102232    -0.685238300760     0.000035754663    12.000000000000
         C            0.926551102232     0.676279699240    -0.000030245337    12.000000000000
         C           -1.093917897768     0.034507699240     0.000016754663    12.000000000000
         H            1.695455102232    -1.450203300760     0.000065754663     1.007825032230
         H            1.762716102232     1.360227699240    -0.000062245337     1.007825032230
         H           -2.168625897768    -0.074145300760     0.000022754663     1.007825032230

  Basis Set: AUG-CC-PVTZ
    Blend: AUG-CC-PVTZ
  Basis Set: (AUG-CC-PVTZ AUX)
    Blend: AUG-CC-PVTZ-JKFIT
	 Reference Energy          =    -244.6862111916925642 [Eh]
	 Singles Energy            =      -0.0000000000000000 [Eh]
	 Same-Spin Energy          =      -0.2546311075251029 [Eh]
	 Opposite-Spin Energy      =      -0.7631900887839890 [Eh]
	 Correlation Energy        =      -1.0178211963090917 [Eh]
	 Total Energy              =    -245.7040323880016501 [Eh]

	 ================> DF-SCS-MP2 Energies <==================
	-----------------------------------------------------------
	 SCS Same-Spin Scale       =       0.3333333333333333 [-]
	 SCS Opposite-Spin Scale   =       1.2000000000000000 [-]
	 SCS Same-Spin Energy      =      -0.0848770358417009 [Eh]
	 SCS Opposite-Spin Energy  =      -0.9158281065407867 [Eh]
	 SCS Correlation Energy    =      -1.0007051423824878 [Eh]
	 SCS Total Energy          =    -245.6869163340750504 [Eh]
	-----------------------------------------------------------

  Dipole Moment: [D]
     X:     0.7741      Y:    -1.6845      Z:     0.0001     Total:     1.8538

*** Psi4 exiting successfully. Buy a developer a beer!
