                               Psi4 1.3.2 release

  ==> Input File <==

--------------------------------------------------------------------------
#psi4
#
memory 32 gb

molecule  {
0 1
  O       -0.3732950    -1.0875170     0.0000230
  N       -0.3778615     1.2041524    -0.0000459
  C        0.9282580    -0.6566220     0.0000340
  C        0.9194130     0.7048960    -0.0000320
  C       -1.1010560     0.0631240     0.0000150
  H        1.6883170    -1.4215870     0.0000640
  H        1.7555780     1.3888440    -0.0000640
  H       -2.1757640    -0.0455290     0.0000210
units angstrom
no_reorient  #important for SAPT in psi4, default
symmetry c1  #important for SAPT in psi4, default
}

set PROPERTIES_ORIGIN ["COM"]
properties('MP2/aug-cc-pvtz', properties = ['dipole'])
--------------------------------------------------------------------------

    Molecular point group: c1
  Charge       = 0
  Multiplicity = 1
  Basis Set: AUG-CC-PVTZ
    Blend: AUG-CC-PVTZ
  Basis Set: (AUG-CC-PVTZ AUX)
    Blend: AUG-CC-PVTZ-JKFIT

    Orbital Energies [Eh]
    ---------------------

    Doubly Occupied:

       1A    -20.653960     2A    -15.583343     3A    -11.351726
       4A    -11.300452     5A    -11.269827     6A     -1.489393
       7A     -1.226593     8A     -1.031832     9A     -0.844182
      10A     -0.823870    11A     -0.754260    12A     -0.660404
      13A     -0.631169    14A     -0.587573    15A     -0.585181
      16A     -0.475307    17A     -0.455049    18A     -0.343574

  @DF-RHF Final Energy:  -244.71248941512596

   => Energetics <=

    Nuclear Repulsion Energy =            161.6615657618266084
    One-Electron Energy =                -652.6127210605221762
    Two-Electron Energy =                 246.2386658835695812
    Total Energy =                       -244.7124894151259582
  Basis Set: (AUG-CC-PVTZ AUX)
    Blend: AUG-CC-PVTZ-RI
    Molecular point group: c1

    Geometry (in Angstrom), charge = 0, multiplicity = 1:

       Center              X                  Y                   Z               Mass
    ------------   -----------------  -----------------  -----------------  -----------------
         O           -0.358450196954    -1.098020763431     0.000023719975    15.994914619570
         N           -0.363016696954     1.193648636569    -0.000045180025    14.003074004430
         C            0.943102803046    -0.667125763431     0.000034719975    12.000000000000
         C            0.934257803046     0.694392236569    -0.000031280025    12.000000000000
         C           -1.086211196954     0.052620236569     0.000015719975    12.000000000000
         H            1.703161803046    -1.432090763431     0.000064719975     1.007825032230
         H            1.770422803046     1.378340236569    -0.000063280025     1.007825032230
         H           -2.160919196954    -0.056032763431     0.000021719975     1.007825032230

  Basis Set: AUG-CC-PVTZ
    Blend: AUG-CC-PVTZ
  Basis Set: (AUG-CC-PVTZ AUX)
    Blend: AUG-CC-PVTZ-JKFIT
	 Reference Energy          =    -244.7124894151259582 [Eh]
	 Singles Energy            =      -0.0000000000000000 [Eh]
	 Same-Spin Energy          =      -0.2518345412483214 [Eh]
	 Opposite-Spin Energy      =      -0.7570475505795188 [Eh]
	 Correlation Energy        =      -1.0088820918278403 [Eh]
	 Total Energy              =    -245.7213715069538011 [Eh]

	 ================> DF-SCS-MP2 Energies <==================
	-----------------------------------------------------------
	 SCS Same-Spin Scale       =       0.3333333333333333 [-]
	 SCS Opposite-Spin Scale   =       1.2000000000000000 [-]
	 SCS Same-Spin Energy      =      -0.0839448470827738 [Eh]
	 SCS Opposite-Spin Energy  =      -0.9084570606954225 [Eh]
	 SCS Correlation Energy    =      -0.9924019077781964 [Eh]
	 SCS Total Energy          =    -245.7048913229041602 [Eh]
	-----------------------------------------------------------

  Dipole Moment: [D]
     X:     0.7743      Y:    -1.5231      Z:     0.0001     Total:     1.7086

*** Psi4 exiting successfully. Buy a developer a beer!
