                               Psi4 1.4a3.dev225

  ==> Input File <==

--------------------------------------------------------------------------
#psi4
#
memory 32 gb

molecule  {
0 1
  O       -0.3732950    -1.0875170     0.0000230
  N       -0.3944950     1.1585740    -0.0000440
  C        0.9282580    -0.6566220     0.0000340
  C        0.9192831     0.7248956    -0.0000330
  C       -1.1010560     0.0631240     0.0000150
  H        1.6883170    -1.4215870     0.0000640
  H        1.7555780     1.3888440    -0.0000640
  H       -2.1757640    -0.0455290     0.0000210
units angstrom
no_reorient  #important for SAPT in psi4, default
symmetry c1  #important for SAPT in psi4, default
}

set PROPERTIES_ORIGIN ["COM"]
properties('MP2/aug-cc-pvtz', properties = ['dipole'])
--------------------------------------------------------------------------

    Molecular point group: c1
  Charge       = 0
  Multiplicity = 1
  Basis Set: AUG-CC-PVTZ
    Blend: AUG-CC-PVTZ
  Basis Set: (AUG-CC-PVTZ AUX)
    Blend: AUG-CC-PVTZ-JKFIT

    Orbital Energies [Eh]
    ---------------------

    Doubly Occupied:

       1A    -20.649244     2A    -15.575576     3A    -11.342383
       4A    -11.303910     5A    -11.271034     6A     -1.488435
       7A     -1.237503     8A     -1.031600     9A     -0.844250
      10A     -0.824300    11A     -0.754159    12A     -0.660294
      13A     -0.631891    14A     -0.602402    15A     -0.581774
      16A     -0.467635    17A     -0.459393    18A     -0.343329

  @DF-RHF Final Energy:  -244.71832519051461

   => Energetics <=

    Nuclear Repulsion Energy =            162.4482294758477678
    One-Electron Energy =                -654.1948836642462766
    Two-Electron Energy =                 247.0283289978839036
    Total Energy =                       -244.7183251905146051
  Basis Set: (AUG-CC-PVTZ AUX)
    Blend: AUG-CC-PVTZ-RI
    Molecular point group: c1

    Geometry (in Angstrom), charge = 0, multiplicity = 1:

       Center              X                  Y                   Z               Mass
    ------------   -----------------  -----------------  -----------------  -----------------
         O           -0.355053008329    -1.092250927691     0.000023508362    15.994914619570
         N           -0.376253008329     1.153840072309    -0.000043491638    14.003074004430
         C            0.946499991671    -0.661355927691     0.000034508362    12.000000000000
         C            0.937525091671     0.720161672309    -0.000032491638    12.000000000000
         C           -1.082814008329     0.058390072309     0.000015508362    12.000000000000
         H            1.706558991671    -1.426320927691     0.000064508362     1.007825032230
         H            1.773819991671     1.384110072309    -0.000063491638     1.007825032230
         H           -2.157522008329    -0.050262927691     0.000021508362     1.007825032230

  Basis Set: AUG-CC-PVTZ
    Blend: AUG-CC-PVTZ
  Basis Set: (AUG-CC-PVTZ AUX)
    Blend: AUG-CC-PVTZ-JKFIT
	 Reference Energy          =    -244.7183251905146051 [Eh]
	 Singles Energy            =      -0.0000000000000000 [Eh]
	 Same-Spin Energy          =      -0.2510070355186764 [Eh]
	 Opposite-Spin Energy      =      -0.7549506596374326 [Eh]
	 Correlation Energy        =      -1.0059576951561089 [Eh]
	 Total Energy              =    -245.7242828856707035 [Eh]

	 ================> DF-SCS-MP2 Energies <==================
	-----------------------------------------------------------
	 SCS Same-Spin Scale       =       0.3333333333333333 [-]
	 SCS Opposite-Spin Scale   =       1.2000000000000000 [-]
	 SCS Same-Spin Energy      =      -0.0836690118395588 [Eh]
	 SCS Opposite-Spin Energy  =      -0.9059407915649190 [Eh]
	 SCS Correlation Energy    =      -0.9896098034044778 [Eh]
	 SCS Total Energy          =    -245.7079349939190820 [Eh]
	-----------------------------------------------------------

  Dipole Moment: [D]
     X:     0.7921      Y:    -1.4118      Z:     0.0001     Total:     1.6189

*** Psi4 exiting successfully. Buy a developer a beer!
