                               Psi4 1.4a3.dev225

  ==> Input File <==

--------------------------------------------------------------------------
#psi4
#
memory 32 gb

molecule  {
0 1
  O       -0.3732950    -1.0875170     0.0000230
  N       -0.3944950     1.1585740    -0.0000440
  C        0.9757244    -0.6409077     0.0000344
  C        0.9194130     0.7048960    -0.0000320
  C       -1.1010560     0.0631240     0.0000150
  H        1.6883170    -1.4215870     0.0000640
  H        1.7555780     1.3888440    -0.0000640
  H       -2.1757640    -0.0455290     0.0000210
units angstrom
no_reorient  #important for SAPT in psi4, default
symmetry c1  #important for SAPT in psi4, default
}

set PROPERTIES_ORIGIN ["COM"]
properties('MP2/aug-cc-pvtz', properties = ['dipole'])
--------------------------------------------------------------------------

    Molecular point group: c1
  Charge       = 0
  Multiplicity = 1
  Basis Set: AUG-CC-PVTZ
    Blend: AUG-CC-PVTZ
  Basis Set: (AUG-CC-PVTZ AUX)
    Blend: AUG-CC-PVTZ-JKFIT

    Orbital Energies [Eh]
    ---------------------

    Doubly Occupied:

       1A    -20.640787     2A    -15.574127     3A    -11.345163
       4A    -11.299933     5A    -11.271980     6A     -1.470590
       7A     -1.233331     8A     -1.037641     9A     -0.836795
      10A     -0.827939    11A     -0.749798    12A     -0.650537
      13A     -0.630882    14A     -0.598635    15A     -0.578389
      16A     -0.469109    17A     -0.456632    18A     -0.353408

  @DF-RHF Final Energy:  -244.71718131441861

   => Energetics <=

    Nuclear Repulsion Energy =            162.0005322987237264
    One-Electron Energy =                -653.3840751154443751
    Two-Electron Energy =                 246.6663615023020384
    Total Energy =                       -244.7171813144186103
  Basis Set: (AUG-CC-PVTZ AUX)
    Blend: AUG-CC-PVTZ-RI
    Molecular point group: c1

    Geometry (in Angstrom), charge = 0, multiplicity = 1:

       Center              X                  Y                   Z               Mass
    ------------   -----------------  -----------------  -----------------  -----------------
         O           -0.363328051615    -1.091505889883     0.000023264960    15.994914619570
         N           -0.384528051615     1.154585110117    -0.000043735040    14.003074004430
         C            0.985691348385    -0.644896589883     0.000034664960    12.000000000000
         C            0.929379948385     0.700907110117    -0.000031735040    12.000000000000
         C           -1.091089051615     0.059135110117     0.000015264960    12.000000000000
         H            1.698283948385    -1.425575889883     0.000064264960     1.007825032230
         H            1.765544948385     1.384855110117    -0.000063735040     1.007825032230
         H           -2.165797051615    -0.049517889883     0.000021264960     1.007825032230

  Basis Set: AUG-CC-PVTZ
    Blend: AUG-CC-PVTZ
  Basis Set: (AUG-CC-PVTZ AUX)
    Blend: AUG-CC-PVTZ-JKFIT
	 Reference Energy          =    -244.7171813144186103 [Eh]
	 Singles Energy            =      -0.0000000000000000 [Eh]
	 Same-Spin Energy          =      -0.2502615672720759 [Eh]
	 Opposite-Spin Energy      =      -0.7547129209221035 [Eh]
	 Correlation Energy        =      -1.0049744881941796 [Eh]
	 Total Energy              =    -245.7221558026128037 [Eh]

	 ================> DF-SCS-MP2 Energies <==================
	-----------------------------------------------------------
	 SCS Same-Spin Scale       =       0.3333333333333333 [-]
	 SCS Opposite-Spin Scale   =       1.2000000000000000 [-]
	 SCS Same-Spin Energy      =      -0.0834205224240253 [Eh]
	 SCS Opposite-Spin Energy  =      -0.9056555051065242 [Eh]
	 SCS Correlation Energy    =      -0.9890760275305495 [Eh]
	 SCS Total Energy          =    -245.7062573419491684 [Eh]
	-----------------------------------------------------------

  Dipole Moment: [D]
     X:     0.8469      Y:    -1.3695      Z:     0.0001     Total:     1.6103

*** Psi4 exiting successfully. Buy a developer a beer!
