                               Psi4 1.3.2 release

  ==> Input File <==

--------------------------------------------------------------------------
#psi4
#
memory 32 gb

molecule  {
0 1
  O       -0.3732950    -1.0875170     0.0000230
  N       -0.3944950     1.1585740    -0.0000440
  C        0.9282580    -0.6566220     0.0000340
  C        0.9027795     0.6593176    -0.0000296
  C       -1.1010560     0.0631240     0.0000150
  H        1.6883170    -1.4215870     0.0000640
  H        1.7555780     1.3888440    -0.0000640
  H       -2.1757640    -0.0455290     0.0000210
units angstrom
no_reorient  #important for SAPT in psi4, default
symmetry c1  #important for SAPT in psi4, default
}

set PROPERTIES_ORIGIN ["COM"]
properties('MP2/aug-cc-pvtz', properties = ['dipole'])
--------------------------------------------------------------------------

    Molecular point group: c1
  Charge       = 0
  Multiplicity = 1
  Basis Set: AUG-CC-PVTZ
    Blend: AUG-CC-PVTZ
  Basis Set: (AUG-CC-PVTZ AUX)
    Blend: AUG-CC-PVTZ-JKFIT

    Orbital Energies [Eh]
    ---------------------

    Doubly Occupied:

       1A    -20.644462     2A    -15.575300     3A    -11.343888
       4A    -11.294025     5A    -11.265365     6A     -1.489525
       7A     -1.237609     8A     -1.042556     9A     -0.843424
      10A     -0.823440    11A     -0.752989    12A     -0.662474
      13A     -0.628564    14A     -0.590989    15A     -0.575467
      16A     -0.474459    17A     -0.458678    18A     -0.355726

  @DF-RHF Final Energy:  -244.71817024341746

   => Energetics <=

    Nuclear Repulsion Energy =            163.4409464024833198
    One-Electron Energy =                -656.2003567311040797
    Two-Electron Energy =                 248.0412400852033272
    Total Energy =                       -244.7181702434174611
  Basis Set: (AUG-CC-PVTZ AUX)
    Blend: AUG-CC-PVTZ-RI
    Molecular point group: c1

    Geometry (in Angstrom), charge = 0, multiplicity = 1:

       Center              X                  Y                   Z               Mass
    ------------   -----------------  -----------------  -----------------  -----------------
         O           -0.352183709572    -1.080849604717     0.000022917242    15.994914619570
         N           -0.373383709572     1.165241395283    -0.000044082758    14.003074004430
         C            0.949369290428    -0.649954604717     0.000033917242    12.000000000000
         C            0.923890790428     0.665984995283    -0.000029682758    12.000000000000
         C           -1.079944709572     0.069791395283     0.000014917242    12.000000000000
         H            1.709428290428    -1.414919604717     0.000063917242     1.007825032230
         H            1.776689290428     1.395511395283    -0.000064082758     1.007825032230
         H           -2.154652709572    -0.038861604717     0.000020917242     1.007825032230

  Basis Set: AUG-CC-PVTZ
    Blend: AUG-CC-PVTZ
  Basis Set: (AUG-CC-PVTZ AUX)
    Blend: AUG-CC-PVTZ-JKFIT
	 Reference Energy          =    -244.7181702434174611 [Eh]
	 Singles Energy            =      -0.0000000000000000 [Eh]
	 Same-Spin Energy          =      -0.2499796124616917 [Eh]
	 Opposite-Spin Energy      =      -0.7530599713452149 [Eh]
	 Correlation Energy        =      -1.0030395838069066 [Eh]
	 Total Energy              =    -245.7212098272243566 [Eh]

	 ================> DF-SCS-MP2 Energies <==================
	-----------------------------------------------------------
	 SCS Same-Spin Scale       =       0.3333333333333333 [-]
	 SCS Opposite-Spin Scale   =       1.2000000000000000 [-]
	 SCS Same-Spin Energy      =      -0.0833265374872306 [Eh]
	 SCS Opposite-Spin Energy  =      -0.9036719656142578 [Eh]
	 SCS Correlation Energy    =      -0.9869985031014883 [Eh]
	 SCS Total Energy          =    -245.7051687465189502 [Eh]
	-----------------------------------------------------------

  Dipole Moment: [D]
     X:     0.7499      Y:    -1.4398      Z:     0.0001     Total:     1.6234

*** Psi4 exiting successfully. Buy a developer a beer!
