                               Psi4 1.3.2 release

  ==> Input File <==

--------------------------------------------------------------------------
#psi4
#
memory 32 gb

molecule  {
0 1
  O       -0.3732950    -1.0875170     0.0000230
  N       -0.3944950     1.1585740    -0.0000440
  C        0.9355799    -0.6794029     0.0000341
  C        0.9194130     0.7048960    -0.0000320
  C       -1.1010560     0.0631240     0.0000150
  H        1.6883170    -1.4215870     0.0000640
  H        1.7555780     1.3888440    -0.0000640
  H       -2.1757640    -0.0455290     0.0000210
units angstrom
no_reorient  #important for SAPT in psi4, default
symmetry c1  #important for SAPT in psi4, default
}

set PROPERTIES_ORIGIN ["COM"]
properties('MP2/aug-cc-pvtz', properties = ['dipole'])
--------------------------------------------------------------------------

    Molecular point group: c1
  Charge       = 0
  Multiplicity = 1
  Basis Set: AUG-CC-PVTZ
    Blend: AUG-CC-PVTZ
  Basis Set: (AUG-CC-PVTZ AUX)
    Blend: AUG-CC-PVTZ-JKFIT

    Orbital Energies [Eh]
    ---------------------

    Doubly Occupied:

       1A    -20.648205     2A    -15.576351     3A    -11.343031
       4A    -11.302674     5A    -11.272685     6A     -1.487513
       7A     -1.235686     8A     -1.032247     9A     -0.842886
      10A     -0.825467    11A     -0.754366    12A     -0.659778
      13A     -0.638255    14A     -0.597368    15A     -0.578267
      16A     -0.469946    17A     -0.457968    18A     -0.343696

  @DF-RHF Final Energy:  -244.71795006292035

   => Energetics <=

    Nuclear Repulsion Energy =            162.3171398178012055
    One-Electron Energy =                -653.9374027444901003
    Two-Electron Energy =                 246.9023128637685431
    Total Energy =                       -244.7179500629203517
  Basis Set: (AUG-CC-PVTZ AUX)
    Blend: AUG-CC-PVTZ-RI
    Molecular point group: c1

    Geometry (in Angstrom), charge = 0, multiplicity = 1:

       Center              X                  Y                   Z               Mass
    ------------   -----------------  -----------------  -----------------  -----------------
         O           -0.356348570537    -1.084813154390     0.000023317117    15.994914619570
         N           -0.377548570537     1.161277845610    -0.000043682883    14.003074004430
         C            0.952526329463    -0.676699054390     0.000034417117    12.000000000000
         C            0.936359429463     0.707599845610    -0.000031682883    12.000000000000
         C           -1.084109570537     0.065827845610     0.000015317117    12.000000000000
         H            1.705263429463    -1.418883154390     0.000064317117     1.007825032230
         H            1.772524429463     1.391547845610    -0.000063682883     1.007825032230
         H           -2.158817570537    -0.042825154390     0.000021317117     1.007825032230

  Basis Set: AUG-CC-PVTZ
    Blend: AUG-CC-PVTZ
  Basis Set: (AUG-CC-PVTZ AUX)
    Blend: AUG-CC-PVTZ-JKFIT
	 Reference Energy          =    -244.7179500629203517 [Eh]
	 Singles Energy            =      -0.0000000000000000 [Eh]
	 Same-Spin Energy          =      -0.2509231172868802 [Eh]
	 Opposite-Spin Energy      =      -0.7549318818878357 [Eh]
	 Correlation Energy        =      -1.0058549991747159 [Eh]
	 Total Energy              =    -245.7238050620950673 [Eh]

	 ================> DF-SCS-MP2 Energies <==================
	-----------------------------------------------------------
	 SCS Same-Spin Scale       =       0.3333333333333333 [-]
	 SCS Opposite-Spin Scale   =       1.2000000000000000 [-]
	 SCS Same-Spin Energy      =      -0.0836410390956267 [Eh]
	 SCS Opposite-Spin Energy  =      -0.9059182582654027 [Eh]
	 SCS Correlation Energy    =      -0.9895592973610294 [Eh]
	 SCS Total Energy          =    -245.7075093602813922 [Eh]
	-----------------------------------------------------------

  Dipole Moment: [D]
     X:     0.7793      Y:    -1.4404      Z:     0.0001     Total:     1.6377

*** Psi4 exiting successfully. Buy a developer a beer!
