                               Psi4 1.3.2 release

  ==> Input File <==

--------------------------------------------------------------------------
#psi4
#
memory 32 gb

molecule  {
0 1
  O       -0.3574641    -1.1326781     0.0000243
  N       -0.3944950     1.1585740    -0.0000440
  C        0.9282580    -0.6566220     0.0000340
  C        0.9194130     0.7048960    -0.0000320
  C       -1.1010560     0.0631240     0.0000150
  H        1.6883170    -1.4215870     0.0000640
  H        1.7555780     1.3888440    -0.0000640
  H       -2.1757640    -0.0455290     0.0000210
units angstrom
no_reorient  #important for SAPT in psi4, default
symmetry c1  #important for SAPT in psi4, default
}

set PROPERTIES_ORIGIN ["COM"]
properties('MP2/aug-cc-pvtz', properties = ['dipole'])
--------------------------------------------------------------------------

    Molecular point group: c1
  Charge       = 0
  Multiplicity = 1
  Basis Set: AUG-CC-PVTZ
    Blend: AUG-CC-PVTZ
  Basis Set: (AUG-CC-PVTZ AUX)
    Blend: AUG-CC-PVTZ-JKFIT

    Orbital Energies [Eh]
    ---------------------

    Doubly Occupied:

       1A    -20.646869     2A    -15.582181     3A    -11.346903
       4A    -11.302803     5A    -11.269433     6A     -1.472673
       7A     -1.240995     8A     -1.028885     9A     -0.837245
      10A     -0.827577    11A     -0.749310    12A     -0.651970
      13A     -0.622601    14A     -0.600849    15A     -0.582346
      16A     -0.473569    17A     -0.463094    18A     -0.345992

  @DF-RHF Final Energy:  -244.71461940360524

   => Energetics <=

    Nuclear Repulsion Energy =            161.6187202811876205
    One-Electron Energy =                -652.5760895707772988
    Two-Electron Energy =                 246.2427498859844377
    Total Energy =                       -244.7146194036052407
  Basis Set: (AUG-CC-PVTZ AUX)
    Blend: AUG-CC-PVTZ-RI
    Molecular point group: c1

    Geometry (in Angstrom), charge = 0, multiplicity = 1:

       Center              X                  Y                   Z               Mass
    ------------   -----------------  -----------------  -----------------  -----------------
         O           -0.342913317992    -1.123469362804     0.000024333243    15.994914619570
         N           -0.379944217992     1.167782737196    -0.000043966757    14.003074004430
         C            0.942808782008    -0.647413262804     0.000034033243    12.000000000000
         C            0.933963782008     0.714104737196    -0.000031966757    12.000000000000
         C           -1.086505217992     0.072332737196     0.000015033243    12.000000000000
         H            1.702867782008    -1.412378262804     0.000064033243     1.007825032230
         H            1.770128782008     1.398052737196    -0.000063966757     1.007825032230
         H           -2.161213217992    -0.036320262804     0.000021033243     1.007825032230

  Basis Set: AUG-CC-PVTZ
    Blend: AUG-CC-PVTZ
  Basis Set: (AUG-CC-PVTZ AUX)
    Blend: AUG-CC-PVTZ-JKFIT
	 Reference Energy          =    -244.7146194036052407 [Eh]
	 Singles Energy            =      -0.0000000000000000 [Eh]
	 Same-Spin Energy          =      -0.2511568827005269 [Eh]
	 Opposite-Spin Energy      =      -0.7565217799348779 [Eh]
	 Correlation Energy        =      -1.0076786626354048 [Eh]
	 Total Energy              =    -245.7222980662406542 [Eh]

	 ================> DF-SCS-MP2 Energies <==================
	-----------------------------------------------------------
	 SCS Same-Spin Scale       =       0.3333333333333333 [-]
	 SCS Opposite-Spin Scale   =       1.2000000000000000 [-]
	 SCS Same-Spin Energy      =      -0.0837189609001756 [Eh]
	 SCS Opposite-Spin Energy  =      -0.9078261359218535 [Eh]
	 SCS Correlation Energy    =      -0.9915450968220291 [Eh]
	 SCS Total Energy          =    -245.7061645004272634 [Eh]
	-----------------------------------------------------------

  Dipole Moment: [D]
     X:     0.7520      Y:    -1.2570      Z:     0.0001     Total:     1.4648

*** Psi4 exiting successfully. Buy a developer a beer!
