                               Psi4 1.3.2 release

  ==> Input File <==

--------------------------------------------------------------------------
#psi4
#
memory 32 gb

molecule  {
0 1
  O       -0.3732950    -1.0875170     0.0000230
  N       -0.3944950     1.1585740    -0.0000440
  C        0.9282580    -0.6566220     0.0000340
  C        0.8956526     0.7045343    -0.0000318
  C       -1.1010560     0.0631240     0.0000150
  H        1.6883170    -1.4215870     0.0000640
  H        1.7555780     1.3888440    -0.0000640
  H       -2.1757640    -0.0455290     0.0000210
units angstrom
no_reorient  #important for SAPT in psi4, default
symmetry c1  #important for SAPT in psi4, default
}

set PROPERTIES_ORIGIN ["COM"]
properties('MP2/aug-cc-pvtz', properties = ['dipole'])
--------------------------------------------------------------------------

    Molecular point group: c1
  Charge       = 0
  Multiplicity = 1
  Basis Set: AUG-CC-PVTZ
    Blend: AUG-CC-PVTZ
  Basis Set: (AUG-CC-PVTZ AUX)
    Blend: AUG-CC-PVTZ-JKFIT

    Orbital Energies [Eh]
    ---------------------

    Doubly Occupied:

       1A    -20.648065     2A    -15.575009     3A    -11.343186
       4A    -11.299625     5A    -11.269117     6A     -1.489594
       7A     -1.243042     8A     -1.033916     9A     -0.841357
      10A     -0.827638    11A     -0.753927    12A     -0.661626
      13A     -0.630369    14A     -0.597684    15A     -0.578874
      16A     -0.471651    17A     -0.462116    18A     -0.345404

  @DF-RHF Final Energy:  -244.71905334074847

   => Energetics <=

    Nuclear Repulsion Energy =            163.0477547662637221
    One-Electron Energy =                -655.3892149650674810
    Two-Electron Energy =                 247.6224068580552853
    Total Energy =                       -244.7190533407484736
  Basis Set: (AUG-CC-PVTZ AUX)
    Blend: AUG-CC-PVTZ-RI
    Molecular point group: c1

    Geometry (in Angstrom), charge = 0, multiplicity = 1:

       Center              X                  Y                   Z               Mass
    ------------   -----------------  -----------------  -----------------  -----------------
         O           -0.350944634140    -1.088710933219     0.000023299731    15.994914619570
         N           -0.372144634140     1.157380066781    -0.000043700269    14.003074004430
         C            0.950608365860    -0.657815933219     0.000034299731    12.000000000000
         C            0.918002965860     0.703340366781    -0.000031500269    12.000000000000
         C           -1.078705634140     0.061930066781     0.000015299731    12.000000000000
         H            1.710667365860    -1.422780933219     0.000064299731     1.007825032230
         H            1.777928365860     1.387650066781    -0.000063700269     1.007825032230
         H           -2.153413634140    -0.046722933219     0.000021299731     1.007825032230

  Basis Set: AUG-CC-PVTZ
    Blend: AUG-CC-PVTZ
  Basis Set: (AUG-CC-PVTZ AUX)
    Blend: AUG-CC-PVTZ-JKFIT
	 Reference Energy          =    -244.7190533407484736 [Eh]
	 Singles Energy            =      -0.0000000000000000 [Eh]
	 Same-Spin Energy          =      -0.2508937196471788 [Eh]
	 Opposite-Spin Energy      =      -0.7542544892002041 [Eh]
	 Correlation Energy        =      -1.0051482088473829 [Eh]
	 Total Energy              =    -245.7242015495958469 [Eh]

	 ================> DF-SCS-MP2 Energies <==================
	-----------------------------------------------------------
	 SCS Same-Spin Scale       =       0.3333333333333333 [-]
	 SCS Opposite-Spin Scale   =       1.2000000000000000 [-]
	 SCS Same-Spin Energy      =      -0.0836312398823929 [Eh]
	 SCS Opposite-Spin Energy  =      -0.9051053870402449 [Eh]
	 SCS Correlation Energy    =      -0.9887366269226379 [Eh]
	 SCS Total Energy          =    -245.7077899676711183 [Eh]
	-----------------------------------------------------------

  Dipole Moment: [D]
     X:     0.7648      Y:    -1.4239      Z:     0.0001     Total:     1.6163

*** Psi4 exiting successfully. Buy a developer a beer!
