                               Psi4 1.3.2 release

  ==> Input File <==

--------------------------------------------------------------------------
#psi4
#
memory 32 gb

molecule  {
0 1
  O       -0.3732950    -1.0875170     0.0000230
  N       -0.3944950     1.1585740    -0.0000440
  C        0.9282580    -0.6566220     0.0000340
  C        0.9194130     0.7048960    -0.0000320
  C       -1.1010560     0.0631240     0.0000150
  H        1.6883170    -1.4215870     0.0000640
  H        1.6007696     1.2622172    -0.0000581
  H       -2.1757640    -0.0455290     0.0000210
units angstrom
no_reorient  #important for SAPT in psi4, default
symmetry c1  #important for SAPT in psi4, default
}

set PROPERTIES_ORIGIN ["COM"]
properties('MP2/aug-cc-pvtz', properties = ['dipole'])
--------------------------------------------------------------------------

    Molecular point group: c1
  Charge       = 0
  Multiplicity = 1
  Basis Set: AUG-CC-PVTZ
    Blend: AUG-CC-PVTZ
  Basis Set: (AUG-CC-PVTZ AUX)
    Blend: AUG-CC-PVTZ-JKFIT

    Orbital Energies [Eh]
    ---------------------

    Doubly Occupied:

       1A    -20.647173     2A    -15.574320     3A    -11.341776
       4A    -11.301280     5A    -11.247009     6A     -1.487824
       7A     -1.236379     8A     -1.042200     9A     -0.868729
      10A     -0.826109    11A     -0.767070    12A     -0.660089
      13A     -0.642006    14A     -0.615183    15A     -0.586083
      16A     -0.469047    17A     -0.457784    18A     -0.347385

  @DF-RHF Final Energy:  -244.68322127642048

   => Energetics <=

    Nuclear Repulsion Energy =            163.7583149271239336
    One-Electron Energy =                -656.6481794818154185
    Two-Electron Energy =                 248.2066432782710024
    Total Energy =                       -244.6832212764204826
  Basis Set: (AUG-CC-PVTZ AUX)
    Blend: AUG-CC-PVTZ-RI
    Molecular point group: c1

    Geometry (in Angstrom), charge = 0, multiplicity = 1:

       Center              X                  Y                   Z               Mass
    ------------   -----------------  -----------------  -----------------  -----------------
         O           -0.352815139521    -1.086924861870     0.000023248354    15.994914619570
         N           -0.374015139521     1.159166138130    -0.000043751646    14.003074004430
         C            0.948737860479    -0.656029861870     0.000034248354    12.000000000000
         C            0.939892860479     0.705488138130    -0.000031751646    12.000000000000
         C           -1.080576139521     0.063716138130     0.000015248354    12.000000000000
         H            1.708796860479    -1.420994861870     0.000064248354     1.007825032230
         H            1.621249460479     1.262809338130    -0.000057851646     1.007825032230
         H           -2.155284139521    -0.044936861870     0.000021248354     1.007825032230

  Basis Set: AUG-CC-PVTZ
    Blend: AUG-CC-PVTZ
  Basis Set: (AUG-CC-PVTZ AUX)
    Blend: AUG-CC-PVTZ-JKFIT
	 Reference Energy          =    -244.6832212764204826 [Eh]
	 Singles Energy            =      -0.0000000000000000 [Eh]
	 Same-Spin Energy          =      -0.2504608261516846 [Eh]
	 Opposite-Spin Energy      =      -0.7541505767871736 [Eh]
	 Correlation Energy        =      -1.0046114029388582 [Eh]
	 Total Energy              =    -245.6878326793593317 [Eh]

	 ================> DF-SCS-MP2 Energies <==================
	-----------------------------------------------------------
	 SCS Same-Spin Scale       =       0.3333333333333333 [-]
	 SCS Opposite-Spin Scale   =       1.2000000000000000 [-]
	 SCS Same-Spin Energy      =      -0.0834869420505615 [Eh]
	 SCS Opposite-Spin Energy  =      -0.9049806921446082 [Eh]
	 SCS Correlation Energy    =      -0.9884676341951697 [Eh]
	 SCS Total Energy          =    -245.6716889106156430 [Eh]
	-----------------------------------------------------------

  Dipole Moment: [D]
     X:     0.7834      Y:    -1.4652      Z:     0.0001     Total:     1.6615

*** Psi4 exiting successfully. Buy a developer a beer!
