                               Psi4 1.3.2 release

  ==> Input File <==

--------------------------------------------------------------------------
#psi4
#
memory 32 gb

molecule  {
0 1
  O       -0.3732950    -1.0875170     0.0000230
  N       -0.3944950     1.1585740    -0.0000440
  C        0.9282580    -0.6566220     0.0000340
  C        0.9194130     0.7048960    -0.0000320
  C       -1.1010560     0.0631240     0.0000150
  H        1.6883170    -1.4215870     0.0000640
  H        1.7555780     1.3888440    -0.0000640
  H       -2.3747496    -0.0656465     0.0000221
units angstrom
no_reorient  #important for SAPT in psi4, default
symmetry c1  #important for SAPT in psi4, default
}

set PROPERTIES_ORIGIN ["COM"]
properties('MP2/aug-cc-pvtz', properties = ['dipole'])
--------------------------------------------------------------------------

    Molecular point group: c1
  Charge       = 0
  Multiplicity = 1
  Basis Set: AUG-CC-PVTZ
    Blend: AUG-CC-PVTZ
  Basis Set: (AUG-CC-PVTZ AUX)
    Blend: AUG-CC-PVTZ-JKFIT

    Orbital Energies [Eh]
    ---------------------

    Doubly Occupied:

       1A    -20.649325     2A    -15.576381     3A    -11.361356
       4A    -11.301701     5A    -11.270444     6A     -1.489431
       7A     -1.237187     8A     -1.029627     9A     -0.841516
      10A     -0.810251    11A     -0.740523    12A     -0.661641
      13A     -0.621907    14A     -0.584003    15A     -0.571054
      16A     -0.468780    17A     -0.459356    18A     -0.347700

  @DF-RHF Final Energy:  -244.69660447071800

   => Energetics <=

    Nuclear Repulsion Energy =            161.7957973460182757
    One-Electron Energy =                -652.9404339494668648
    Two-Electron Energy =                 246.4480321327305887
    Total Energy =                       -244.6966044707180004
  Basis Set: (AUG-CC-PVTZ AUX)
    Blend: AUG-CC-PVTZ-RI
    Molecular point group: c1

    Geometry (in Angstrom), charge = 0, multiplicity = 1:

       Center              X                  Y                   Z               Mass
    ------------   -----------------  -----------------  -----------------  -----------------
         O           -0.352170080932    -1.088480069959     0.000023318441    15.994914619570
         N           -0.373370080932     1.157610930041    -0.000043681559    14.003074004430
         C            0.949382919068    -0.657585069959     0.000034318441    12.000000000000
         C            0.940537919068     0.703932930041    -0.000031681559    12.000000000000
         C           -1.079931080932     0.062160930041     0.000015318441    12.000000000000
         H            1.709441919068    -1.422550069959     0.000064318441     1.007825032230
         H            1.776702919068     1.387880930041    -0.000063681559     1.007825032230
         H           -2.353624680932    -0.066609569959     0.000022418441     1.007825032230

  Basis Set: AUG-CC-PVTZ
    Blend: AUG-CC-PVTZ
  Basis Set: (AUG-CC-PVTZ AUX)
    Blend: AUG-CC-PVTZ-JKFIT
	 Reference Energy          =    -244.6966044707180004 [Eh]
	 Singles Energy            =      -0.0000000000000000 [Eh]
	 Same-Spin Energy          =      -0.2511485661155825 [Eh]
	 Opposite-Spin Energy      =      -0.7562311633097447 [Eh]
	 Correlation Energy        =      -1.0073797294253273 [Eh]
	 Total Energy              =    -245.7039842001433385 [Eh]

	 ================> DF-SCS-MP2 Energies <==================
	-----------------------------------------------------------
	 SCS Same-Spin Scale       =       0.3333333333333333 [-]
	 SCS Opposite-Spin Scale   =       1.2000000000000000 [-]
	 SCS Same-Spin Energy      =      -0.0837161887051942 [Eh]
	 SCS Opposite-Spin Energy  =      -0.9074773959716936 [Eh]
	 SCS Correlation Energy    =      -0.9911935846768878 [Eh]
	 SCS Total Energy          =    -245.6877980553948930 [Eh]
	-----------------------------------------------------------

  Dipole Moment: [D]
     X:     0.7531      Y:    -1.4147      Z:     0.0001     Total:     1.6026

*** Psi4 exiting successfully. Buy a developer a beer!
