                               Psi4 1.4a3.dev225

  ==> Input File <==

--------------------------------------------------------------------------
#psi4
#
memory 32 gb

molecule  {
0 1
  O       -0.3732950    -1.0875170     0.0000230
  N       -0.3944950     1.1585740    -0.0000440
  C        0.9472446    -0.6503363     0.0000342
  C        0.9194130     0.7048960    -0.0000320
  C       -1.1010560     0.0631240     0.0000150
  H        1.6883170    -1.4215870     0.0000640
  H        1.7555780     1.3888440    -0.0000640
  H       -2.1757640    -0.0455290     0.0000210
units angstrom
no_reorient  #important for SAPT in psi4, default
symmetry c1  #important for SAPT in psi4, default
}

set PROPERTIES_ORIGIN ["COM"]
properties('MP2/aug-cc-pvtz', properties = ['dipole'])
--------------------------------------------------------------------------

    Molecular point group: c1
  Charge       = 0
  Multiplicity = 1
  Basis Set: AUG-CC-PVTZ
    Blend: AUG-CC-PVTZ
  Basis Set: (AUG-CC-PVTZ AUX)
    Blend: AUG-CC-PVTZ-JKFIT

    Orbital Energies [Eh]
    ---------------------

    Doubly Occupied:

       1A    -20.644935     2A    -15.574948     3A    -11.343763
       4A    -11.300626     5A    -11.270395     6A     -1.481000
       7A     -1.235011     8A     -1.035880     9A     -0.840628
      10A     -0.825693    11A     -0.752140    12A     -0.656472
      13A     -0.629841    14A     -0.598004    15A     -0.581960
      16A     -0.469239    17A     -0.457639    18A     -0.349849

  @DF-RHF Final Energy:  -244.71936033133551

   => Energetics <=

    Nuclear Repulsion Energy =            162.3944021504212571
    One-Electron Energy =                -654.1314777312552451
    Two-Electron Energy =                 247.0177152494985080
    Total Energy =                       -244.7193603313355084
  Basis Set: (AUG-CC-PVTZ AUX)
    Blend: AUG-CC-PVTZ-RI
    Molecular point group: c1

    Geometry (in Angstrom), charge = 0, multiplicity = 1:

       Center              X                  Y                   Z               Mass
    ------------   -----------------  -----------------  -----------------  -----------------
         O           -0.358376583165    -1.089866643279     0.000023299731    15.994914619570
         N           -0.379576583165     1.156224356721    -0.000043700269    14.003074004430
         C            0.962163016835    -0.652685943279     0.000034499731    12.000000000000
         C            0.934331416835     0.702546356721    -0.000031700269    12.000000000000
         C           -1.086137583165     0.060774356721     0.000015299731    12.000000000000
         H            1.703235416835    -1.423936643279     0.000064299731     1.007825032230
         H            1.770496416835     1.386494356721    -0.000063700269     1.007825032230
         H           -2.160845583165    -0.047878643279     0.000021299731     1.007825032230

  Basis Set: AUG-CC-PVTZ
    Blend: AUG-CC-PVTZ
  Basis Set: (AUG-CC-PVTZ AUX)
    Blend: AUG-CC-PVTZ-JKFIT
	 Reference Energy          =    -244.7193603313355084 [Eh]
	 Singles Energy            =      -0.0000000000000000 [Eh]
	 Same-Spin Energy          =      -0.2504513309622522 [Eh]
	 Opposite-Spin Energy      =      -0.7544593550344715 [Eh]
	 Correlation Energy        =      -1.0049106859967236 [Eh]
	 Total Energy              =    -245.7242710173322280 [Eh]

	 ================> DF-SCS-MP2 Energies <==================
	-----------------------------------------------------------
	 SCS Same-Spin Scale       =       0.3333333333333333 [-]
	 SCS Opposite-Spin Scale   =       1.2000000000000000 [-]
	 SCS Same-Spin Energy      =      -0.0834837769874174 [Eh]
	 SCS Opposite-Spin Energy  =      -0.9053512260413658 [Eh]
	 SCS Correlation Energy    =      -0.9888350030287831 [Eh]
	 SCS Total Energy          =    -245.7081953343642908 [Eh]
	-----------------------------------------------------------

  Dipole Moment: [D]
     X:     0.8098      Y:    -1.3991      Z:     0.0001     Total:     1.6166

*** Psi4 exiting successfully. Buy a developer a beer!
