                               Psi4 1.3.2 release

  ==> Input File <==

--------------------------------------------------------------------------
#psi4
#
memory 32 gb

molecule  {
0 1
  O       -0.3732950    -1.0875170     0.0000230
  N       -0.4726309     1.2051927    -0.0000465
  C        0.9282580    -0.6566220     0.0000340
  C        0.9194130     0.7048960    -0.0000320
  C       -1.1010560     0.0631240     0.0000150
  H        1.6883170    -1.4215870     0.0000640
  H        1.7555780     1.3888440    -0.0000640
  H       -2.1757640    -0.0455290     0.0000210
units angstrom
no_reorient  #important for SAPT in psi4, default
symmetry c1  #important for SAPT in psi4, default
}

set PROPERTIES_ORIGIN ["COM"]
properties('MP2/aug-cc-pvtz', properties = ['dipole'])
--------------------------------------------------------------------------

    Molecular point group: c1
  Charge       = 0
  Multiplicity = 1
  Basis Set: AUG-CC-PVTZ
    Blend: AUG-CC-PVTZ
  Basis Set: (AUG-CC-PVTZ AUX)
    Blend: AUG-CC-PVTZ-JKFIT

    Orbital Energies [Eh]
    ---------------------

    Doubly Occupied:

       1A    -20.647688     2A    -15.585569     3A    -11.345163
       4A    -11.306044     5A    -11.277180     6A     -1.486954
       7A     -1.221772     8A     -1.035599     9A     -0.848762
      10A     -0.811356    11A     -0.751233    12A     -0.660060
      13A     -0.631706    14A     -0.583262    15A     -0.578351
      16A     -0.477898    17A     -0.450361    18A     -0.355174

  @DF-RHF Final Energy:  -244.71227316681990

   => Energetics <=

    Nuclear Repulsion Energy =            161.0085637335898809
    One-Electron Energy =                -651.3334081177824828
    Two-Electron Energy =                 245.6125712173727038
    Total Energy =                       -244.7122731668198981
  Basis Set: (AUG-CC-PVTZ AUX)
    Blend: AUG-CC-PVTZ-RI
    Molecular point group: c1

    Geometry (in Angstrom), charge = 0, multiplicity = 1:

       Center              X                  Y                   Z               Mass
    ------------   -----------------  -----------------  -----------------  -----------------
         O           -0.339223381844    -1.098231819486     0.000023841703    15.994914619570
         N           -0.438559281844     1.194477880514    -0.000045658297    14.003074004430
         C            0.962329618156    -0.667336819486     0.000034841703    12.000000000000
         C            0.953484618156     0.694181180514    -0.000031158297    12.000000000000
         C           -1.066984381844     0.052409180514     0.000015841703    12.000000000000
         H            1.722388618156    -1.432301819486     0.000064841703     1.007825032230
         H            1.789649618156     1.378129180514    -0.000063158297     1.007825032230
         H           -2.141692381844    -0.056243819486     0.000021841703     1.007825032230

  Basis Set: AUG-CC-PVTZ
    Blend: AUG-CC-PVTZ
  Basis Set: (AUG-CC-PVTZ AUX)
    Blend: AUG-CC-PVTZ-JKFIT
	 Reference Energy          =    -244.7122731668198981 [Eh]
	 Singles Energy            =      -0.0000000000000000 [Eh]
	 Same-Spin Energy          =      -0.2498554537338320 [Eh]
	 Opposite-Spin Energy      =      -0.7557670396111531 [Eh]
	 Correlation Energy        =      -1.0056224933449851 [Eh]
	 Total Energy              =    -245.7178956601648849 [Eh]

	 ================> DF-SCS-MP2 Energies <==================
	-----------------------------------------------------------
	 SCS Same-Spin Scale       =       0.3333333333333333 [-]
	 SCS Opposite-Spin Scale   =       1.2000000000000000 [-]
	 SCS Same-Spin Energy      =      -0.0832851512446107 [Eh]
	 SCS Opposite-Spin Energy  =      -0.9069204475333836 [Eh]
	 SCS Correlation Energy    =      -0.9902055987779943 [Eh]
	 SCS Total Energy          =    -245.7024787655979026 [Eh]
	-----------------------------------------------------------

  Dipole Moment: [D]
     X:     0.8947      Y:    -1.4956      Z:     0.0001     Total:     1.7428

*** Psi4 exiting successfully. Buy a developer a beer!
