                               Psi4 1.3.2 release

  ==> Input File <==

--------------------------------------------------------------------------
#psi4
#
memory 32 gb

molecule  {
0 1
  O       -0.4001822    -0.9956756     0.0000204
  N       -0.3944950     1.1585740    -0.0000440
  C        0.9282580    -0.6566220     0.0000340
  C        0.9194130     0.7048960    -0.0000320
  C       -1.1010560     0.0631240     0.0000150
  H        1.6883170    -1.4215870     0.0000640
  H        1.7555780     1.3888440    -0.0000640
  H       -2.1757640    -0.0455290     0.0000210
units angstrom
no_reorient  #important for SAPT in psi4, default
symmetry c1  #important for SAPT in psi4, default
}

set PROPERTIES_ORIGIN ["COM"]
properties('MP2/aug-cc-pvtz', properties = ['dipole'])
--------------------------------------------------------------------------

    Molecular point group: c1
  Charge       = 0
  Multiplicity = 1
  Basis Set: AUG-CC-PVTZ
    Blend: AUG-CC-PVTZ
  Basis Set: (AUG-CC-PVTZ AUX)
    Blend: AUG-CC-PVTZ-JKFIT

    Orbital Energies [Eh]
    ---------------------

    Doubly Occupied:

       1A    -20.648571     2A    -15.561351     3A    -11.334338
       4A    -11.298380     5A    -11.269192     6A     -1.525416
       7A     -1.226370     8A     -1.049902     9A     -0.855442
      10A     -0.817339    11A     -0.765129    12A     -0.681299
      13A     -0.647098    14A     -0.596371    15A     -0.572947
      16A     -0.459506    17A     -0.448952    18A     -0.350061

  @DF-RHF Final Energy:  -244.71811581540069

   => Energetics <=

    Nuclear Repulsion Energy =            164.9290467380987479
    One-Electron Energy =                -659.0789965160015527
    Two-Electron Energy =                 249.4318339625021110
    Total Energy =                       -244.7181158154006937
  Basis Set: (AUG-CC-PVTZ AUX)
    Blend: AUG-CC-PVTZ-RI
    Molecular point group: c1

    Geometry (in Angstrom), charge = 0, multiplicity = 1:

       Center              X                  Y                   Z               Mass
    ------------   -----------------  -----------------  -----------------  -----------------
         O           -0.375731999385    -1.018215585188     0.000021337023    15.994914619570
         N           -0.370044799385     1.136034014812    -0.000043062977    14.003074004430
         C            0.952708200615    -0.679161985188     0.000034937023    12.000000000000
         C            0.943863200615     0.682356014812    -0.000031062977    12.000000000000
         C           -1.076605799385     0.040584014812     0.000015937023    12.000000000000
         H            1.712767200615    -1.444126985188     0.000064937023     1.007825032230
         H            1.780028200615     1.366304014812    -0.000063062977     1.007825032230
         H           -2.151313799385    -0.068068985188     0.000021937023     1.007825032230

  Basis Set: AUG-CC-PVTZ
    Blend: AUG-CC-PVTZ
  Basis Set: (AUG-CC-PVTZ AUX)
    Blend: AUG-CC-PVTZ-JKFIT
	 Reference Energy          =    -244.7181158154006937 [Eh]
	 Singles Energy            =      -0.0000000000000000 [Eh]
	 Same-Spin Energy          =      -0.2497245664495765 [Eh]
	 Opposite-Spin Energy      =      -0.7503543137062425 [Eh]
	 Correlation Energy        =      -1.0000788801558191 [Eh]
	 Total Energy              =    -245.7181946955565195 [Eh]

	 ================> DF-SCS-MP2 Energies <==================
	-----------------------------------------------------------
	 SCS Same-Spin Scale       =       0.3333333333333333 [-]
	 SCS Opposite-Spin Scale   =       1.2000000000000000 [-]
	 SCS Same-Spin Energy      =      -0.0832415221498588 [Eh]
	 SCS Opposite-Spin Energy  =      -0.9004251764474910 [Eh]
	 SCS Correlation Energy    =      -0.9836666985973498 [Eh]
	 SCS Total Energy          =    -245.7017825139980403 [Eh]
	-----------------------------------------------------------

  Dipole Moment: [D]
     X:     0.8214      Y:    -1.7582      Z:     0.0001     Total:     1.9406

*** Psi4 exiting successfully. Buy a developer a beer!
