                               Psi4 1.3.2 release

  ==> Input File <==

--------------------------------------------------------------------------
#psi4
#
memory 32 gb

molecule  {
0 1
  O       -0.3732950    -1.0875170     0.0000230
  N       -0.3944950     1.1585740    -0.0000440
  C        0.8760872    -0.5229332     0.0000334
  C        0.9194130     0.7048960    -0.0000320
  C       -1.1010560     0.0631240     0.0000150
  H        1.6883170    -1.4215870     0.0000640
  H        1.7555780     1.3888440    -0.0000640
  H       -2.1757640    -0.0455290     0.0000210
units angstrom
no_reorient  #important for SAPT in psi4, default
symmetry c1  #important for SAPT in psi4, default
}

set PROPERTIES_ORIGIN ["COM"]
properties('MP2/aug-cc-pvtz', properties = ['dipole'])
--------------------------------------------------------------------------

    Molecular point group: c1
  Charge       = 0
  Multiplicity = 1
  Basis Set: AUG-CC-PVTZ
    Blend: AUG-CC-PVTZ
  Basis Set: (AUG-CC-PVTZ AUX)
    Blend: AUG-CC-PVTZ-JKFIT

    Orbital Energies [Eh]
    ---------------------

    Doubly Occupied:

       1A    -20.646177     2A    -15.572670     3A    -11.342656
       4A    -11.293268     5A    -11.248994     6A     -1.495805
       7A     -1.244391     8A     -1.054880     9A     -0.853447
      10A     -0.814414    11A     -0.750828    12A     -0.668626
      13A     -0.614253    14A     -0.602014    15A     -0.569894
      16A     -0.465264    17A     -0.464002    18A     -0.370094

  @DF-RHF Final Energy:  -244.68847521438755

   => Energetics <=

    Nuclear Repulsion Energy =            164.9886403601346672
    One-Electron Energy =                -659.2108759983919981
    Two-Electron Energy =                 249.5337604238697509
    Total Energy =                       -244.6884752143875517
  Basis Set: (AUG-CC-PVTZ AUX)
    Blend: AUG-CC-PVTZ-RI
    Molecular point group: c1

    Geometry (in Angstrom), charge = 0, multiplicity = 1:

       Center              X                  Y                   Z               Mass
    ------------   -----------------  -----------------  -----------------  -----------------
         O           -0.346005231502    -1.112016813930     0.000023438818    15.994914619570
         N           -0.367205231502     1.134074186070    -0.000043561182    14.003074004430
         C            0.903376968498    -0.547433013930     0.000033838818    12.000000000000
         C            0.946702768498     0.680396186070    -0.000031561182    12.000000000000
         C           -1.073766231502     0.038624186070     0.000015438818    12.000000000000
         H            1.715606768498    -1.446086813930     0.000064438818     1.007825032230
         H            1.782867768498     1.364344186070    -0.000063561182     1.007825032230
         H           -2.148474231502    -0.070028813930     0.000021438818     1.007825032230

  Basis Set: AUG-CC-PVTZ
    Blend: AUG-CC-PVTZ
  Basis Set: (AUG-CC-PVTZ AUX)
    Blend: AUG-CC-PVTZ-JKFIT
	 Reference Energy          =    -244.6884752143875517 [Eh]
	 Singles Energy            =      -0.0000000000000000 [Eh]
	 Same-Spin Energy          =      -0.2496677938458942 [Eh]
	 Opposite-Spin Energy      =      -0.7528534661156644 [Eh]
	 Correlation Energy        =      -1.0025212599615587 [Eh]
	 Total Energy              =    -245.6909964743491059 [Eh]

	 ================> DF-SCS-MP2 Energies <==================
	-----------------------------------------------------------
	 SCS Same-Spin Scale       =       0.3333333333333333 [-]
	 SCS Opposite-Spin Scale   =       1.2000000000000000 [-]
	 SCS Same-Spin Energy      =      -0.0832225979486314 [Eh]
	 SCS Opposite-Spin Energy  =      -0.9034241593387973 [Eh]
	 SCS Correlation Energy    =      -0.9866467572874287 [Eh]
	 SCS Total Energy          =    -245.6751219716749688 [Eh]
	-----------------------------------------------------------

  Dipole Moment: [D]
     X:     0.7451      Y:    -1.2218      Z:     0.0001     Total:     1.4311

*** Psi4 exiting successfully. Buy a developer a beer!
