                               Psi4 1.3.2 release

  ==> Input File <==

--------------------------------------------------------------------------
#psi4
#
memory 32 gb

molecule  {
0 1
  O       -0.3732950    -1.0875170     0.0000230
  N       -0.3944950     1.1585740    -0.0000440
  C        0.9282580    -0.6566220     0.0000340
  C        0.9478594     0.7976547    -0.0000368
  C       -1.1010560     0.0631240     0.0000150
  H        1.6883170    -1.4215870     0.0000640
  H        1.7555780     1.3888440    -0.0000640
  H       -2.1757640    -0.0455290     0.0000210
units angstrom
no_reorient  #important for SAPT in psi4, default
symmetry c1  #important for SAPT in psi4, default
}

set PROPERTIES_ORIGIN ["COM"]
properties('MP2/aug-cc-pvtz', properties = ['dipole'])
--------------------------------------------------------------------------

    Molecular point group: c1
  Charge       = 0
  Multiplicity = 1
  Basis Set: AUG-CC-PVTZ
    Blend: AUG-CC-PVTZ
  Basis Set: (AUG-CC-PVTZ AUX)
    Blend: AUG-CC-PVTZ-JKFIT

    Orbital Energies [Eh]
    ---------------------

    Doubly Occupied:

       1A    -20.654546     2A    -15.577040     3A    -11.340730
       4A    -11.315268     5A    -11.277443     6A     -1.487807
       7A     -1.233450     8A     -1.023357     9A     -0.854808
      10A     -0.817627    11A     -0.754826    12A     -0.658433
      13A     -0.646093    14A     -0.615060    15A     -0.576766
      16A     -0.458587    17A     -0.458129    18A     -0.332194

  @DF-RHF Final Energy:  -244.70081589577657

   => Energetics <=

    Nuclear Repulsion Energy =            161.2464237488465528
    One-Electron Energy =                -651.7301516356483262
    Two-Electron Energy =                 245.7829119910252018
    Total Energy =                       -244.7008158957765716
  Basis Set: (AUG-CC-PVTZ AUX)
    Blend: AUG-CC-PVTZ-RI
    Molecular point group: c1

    Geometry (in Angstrom), charge = 0, multiplicity = 1:

       Center              X                  Y                   Z               Mass
    ------------   -----------------  -----------------  -----------------  -----------------
         O           -0.360021254169    -1.104900749252     0.000024169026    15.994914619570
         N           -0.381221254169     1.141190250748    -0.000042830974    14.003074004430
         C            0.941531745831    -0.674005749252     0.000035169026    12.000000000000
         C            0.961133145831     0.780270950748    -0.000035630974    12.000000000000
         C           -1.087782254169     0.045740250748     0.000016169026    12.000000000000
         H            1.701590745831    -1.438970749252     0.000065169026     1.007825032230
         H            1.768851745831     1.371460250748    -0.000062830974     1.007825032230
         H           -2.162490254169    -0.062912749252     0.000022169026     1.007825032230

  Basis Set: AUG-CC-PVTZ
    Blend: AUG-CC-PVTZ
  Basis Set: (AUG-CC-PVTZ AUX)
    Blend: AUG-CC-PVTZ-JKFIT
	 Reference Energy          =    -244.7008158957765716 [Eh]
	 Singles Energy            =      -0.0000000000000000 [Eh]
	 Same-Spin Energy          =      -0.2523579555370231 [Eh]
	 Opposite-Spin Energy      =      -0.7579616018380325 [Eh]
	 Correlation Energy        =      -1.0103195573750556 [Eh]
	 Total Energy              =    -245.7111354531516270 [Eh]

	 ================> DF-SCS-MP2 Energies <==================
	-----------------------------------------------------------
	 SCS Same-Spin Scale       =       0.3333333333333333 [-]
	 SCS Opposite-Spin Scale   =       1.2000000000000000 [-]
	 SCS Same-Spin Energy      =      -0.0841193185123410 [Eh]
	 SCS Opposite-Spin Energy  =      -0.9095539222056390 [Eh]
	 SCS Correlation Energy    =      -0.9936732407179800 [Eh]
	 SCS Total Energy          =    -245.6944891364945533 [Eh]
	-----------------------------------------------------------

  Dipole Moment: [D]
     X:     0.8233      Y:    -1.3793      Z:     0.0001     Total:     1.6064

*** Psi4 exiting successfully. Buy a developer a beer!
