                               Psi4 1.3.2 release

  ==> Input File <==

--------------------------------------------------------------------------
#psi4
#
memory 32 gb

molecule  {
0 1
  O       -0.3732950    -1.0875170     0.0000230
  N       -0.3944950     1.1585740    -0.0000440
  C        0.9282580    -0.6566220     0.0000340
  C        0.9194130     0.7048960    -0.0000320
  C       -1.2079638     0.2321527     0.0000138
  H        1.6883170    -1.4215870     0.0000640
  H        1.7555780     1.3888440    -0.0000640
  H       -2.1757640    -0.0455290     0.0000210
units angstrom
no_reorient  #important for SAPT in psi4, default
symmetry c1  #important for SAPT in psi4, default
}

set PROPERTIES_ORIGIN ["COM"]
properties('MP2/aug-cc-pvtz', properties = ['dipole'])
--------------------------------------------------------------------------

    Molecular point group: c1
  Charge       = 0
  Multiplicity = 1
  Basis Set: AUG-CC-PVTZ
    Blend: AUG-CC-PVTZ
  Basis Set: (AUG-CC-PVTZ AUX)
    Blend: AUG-CC-PVTZ-JKFIT

    Orbital Energies [Eh]
    ---------------------

    Doubly Occupied:

       1A    -20.608251     2A    -15.586873     3A    -11.342747
       4A    -11.307128     5A    -11.264669     6A     -1.421130
       7A     -1.252691     8A     -1.030731     9A     -0.845003
      10A     -0.826537    11A     -0.734790    12A     -0.645484
      13A     -0.621858    14A     -0.610134    15A     -0.547602
      16A     -0.471755    17A     -0.457357    18A     -0.346407

  @DF-RHF Final Energy:  -244.68604108117736

   => Energetics <=

    Nuclear Repulsion Energy =            160.5434285840593986
    One-Electron Energy =                -650.6166400900851841
    Two-Electron Energy =                 245.3871704248484491
    Total Energy =                       -244.6860410811773647
  Basis Set: (AUG-CC-PVTZ AUX)
    Blend: AUG-CC-PVTZ-RI
    Molecular point group: c1

    Geometry (in Angstrom), charge = 0, multiplicity = 1:

       Center              X                  Y                   Z               Mass
    ------------   -----------------  -----------------  -----------------  -----------------
         O           -0.336488713529    -1.118160972242     0.000023543134    15.994914619570
         N           -0.357688713529     1.127930027758    -0.000043456866    14.003074004430
         C            0.965064286471    -0.687265972242     0.000034543134    12.000000000000
         C            0.956219286471     0.674252027758    -0.000031456866    12.000000000000
         C           -1.171157513529     0.201508727758     0.000014343134    12.000000000000
         H            1.725123286471    -1.452230972242     0.000064543134     1.007825032230
         H            1.792384286471     1.358200027758    -0.000063456866     1.007825032230
         H           -2.138957713529    -0.076172972242     0.000021543134     1.007825032230

  Basis Set: AUG-CC-PVTZ
    Blend: AUG-CC-PVTZ
  Basis Set: (AUG-CC-PVTZ AUX)
    Blend: AUG-CC-PVTZ-JKFIT
	 Reference Energy          =    -244.6860410811773647 [Eh]
	 Singles Energy            =      -0.0000000000000000 [Eh]
	 Same-Spin Energy          =      -0.2516389822414808 [Eh]
	 Opposite-Spin Energy      =      -0.7581648916040806 [Eh]
	 Correlation Energy        =      -1.0098038738455615 [Eh]
	 Total Energy              =    -245.6958449550229204 [Eh]

	 ================> DF-SCS-MP2 Energies <==================
	-----------------------------------------------------------
	 SCS Same-Spin Scale       =       0.3333333333333333 [-]
	 SCS Opposite-Spin Scale   =       1.2000000000000000 [-]
	 SCS Same-Spin Energy      =      -0.0838796607471603 [Eh]
	 SCS Opposite-Spin Energy  =      -0.9097978699248968 [Eh]
	 SCS Correlation Energy    =      -0.9936775306720570 [Eh]
	 SCS Total Energy          =    -245.6797186118494096 [Eh]
	-----------------------------------------------------------

  Dipole Moment: [D]
     X:     0.4879      Y:    -0.7505      Z:     0.0001     Total:     0.8952

*** Psi4 exiting successfully. Buy a developer a beer!
