                               Psi4 1.3.2 release

  ==> Input File <==

--------------------------------------------------------------------------
#psi4
#
memory 32 gb

molecule  {
0 1
  O       -0.3732950    -1.0875170     0.0000230
  N       -0.3944950     1.1585740    -0.0000440
  C        0.9282580    -0.6566220     0.0000340
  C        0.9194130     0.7048960    -0.0000320
  C       -1.1010560     0.0631240     0.0000150
  H        1.6883170    -1.4215870     0.0000640
  H        1.9103864     1.5154708    -0.0000699
  H       -2.1757640    -0.0455290     0.0000210
units angstrom
no_reorient  #important for SAPT in psi4, default
symmetry c1  #important for SAPT in psi4, default
}

set PROPERTIES_ORIGIN ["COM"]
properties('MP2/aug-cc-pvtz', properties = ['dipole'])
--------------------------------------------------------------------------

    Molecular point group: c1
  Charge       = 0
  Multiplicity = 1
  Basis Set: AUG-CC-PVTZ
    Blend: AUG-CC-PVTZ
  Basis Set: (AUG-CC-PVTZ AUX)
    Blend: AUG-CC-PVTZ-JKFIT

    Orbital Energies [Eh]
    ---------------------

    Doubly Occupied:

       1A    -20.649002     2A    -15.577754     3A    -11.344392
       4A    -11.302685     5A    -11.289432     6A     -1.489813
       7A     -1.237372     8A     -1.032478     9A     -0.836351
      10A     -0.821095    11A     -0.743471    12A     -0.662031
      13A     -0.628087    14A     -0.590356    15A     -0.554144
      16A     -0.469376    17A     -0.459790    18A     -0.348360

  @DF-RHF Final Energy:  -244.69675676156763

   => Energetics <=

    Nuclear Repulsion Energy =            161.8257213033685389
    One-Electron Energy =                -652.9729765774560519
    Two-Electron Energy =                 246.4504985125198857
    Total Energy =                       -244.6967567615676273
  Basis Set: (AUG-CC-PVTZ AUX)
    Blend: AUG-CC-PVTZ-RI
    Molecular point group: c1

    Geometry (in Angstrom), charge = 0, multiplicity = 1:

       Center              X                  Y                   Z               Mass
    ------------   -----------------  -----------------  -----------------  -----------------
         O           -0.357336045694    -1.090622774140     0.000023420653    15.994914619570
         N           -0.378536045694     1.155468225860    -0.000043579347    14.003074004430
         C            0.944216954306    -0.659727774140     0.000034420653    12.000000000000
         C            0.935371954306     0.701790225860    -0.000031579347    12.000000000000
         C           -1.085097045694     0.060018225860     0.000015420653    12.000000000000
         H            1.704275954306    -1.424692774140     0.000064420653     1.007825032230
         H            1.926345354306     1.512365025860    -0.000069479347     1.007825032230
         H           -2.159805045694    -0.048634774140     0.000021420653     1.007825032230

  Basis Set: AUG-CC-PVTZ
    Blend: AUG-CC-PVTZ
  Basis Set: (AUG-CC-PVTZ AUX)
    Blend: AUG-CC-PVTZ-JKFIT
	 Reference Energy          =    -244.6967567615676273 [Eh]
	 Singles Energy            =      -0.0000000000000000 [Eh]
	 Same-Spin Energy          =      -0.2510581248191806 [Eh]
	 Opposite-Spin Energy      =      -0.7561855761316996 [Eh]
	 Correlation Energy        =      -1.0072437009508801 [Eh]
	 Total Energy              =    -245.7040004625185077 [Eh]

	 ================> DF-SCS-MP2 Energies <==================
	-----------------------------------------------------------
	 SCS Same-Spin Scale       =       0.3333333333333333 [-]
	 SCS Opposite-Spin Scale   =       1.2000000000000000 [-]
	 SCS Same-Spin Energy      =      -0.0836860416063935 [Eh]
	 SCS Opposite-Spin Energy  =      -0.9074226913580394 [Eh]
	 SCS Correlation Energy    =      -0.9911087329644329 [Eh]
	 SCS Total Energy          =    -245.6878654945320477 [Eh]
	-----------------------------------------------------------

  Dipole Moment: [D]
     X:     0.7515      Y:    -1.3989      Z:     0.0001     Total:     1.5880

*** Psi4 exiting successfully. Buy a developer a beer!
