                               Psi4 1.3.2 release

  ==> Input File <==

--------------------------------------------------------------------------
#psi4
#
memory 32 gb

molecule  {
0 1
  O       -0.3732950    -1.0875170     0.0000230
  N       -0.3944950     1.1585740    -0.0000440
  C        0.9282580    -0.6566220     0.0000340
  C        1.0617788     0.6983620    -0.0000330
  C       -1.1010560     0.0631240     0.0000150
  H        1.6883170    -1.4215870     0.0000640
  H        1.7555780     1.3888440    -0.0000640
  H       -2.1757640    -0.0455290     0.0000210
units angstrom
no_reorient  #important for SAPT in psi4, default
symmetry c1  #important for SAPT in psi4, default
}

set PROPERTIES_ORIGIN ["COM"]
properties('MP2/aug-cc-pvtz', properties = ['dipole'])
--------------------------------------------------------------------------

    Molecular point group: c1
  Charge       = 0
  Multiplicity = 1
  Basis Set: AUG-CC-PVTZ
    Blend: AUG-CC-PVTZ
  Basis Set: (AUG-CC-PVTZ AUX)
    Blend: AUG-CC-PVTZ-JKFIT

    Orbital Energies [Eh]
    ---------------------

    Doubly Occupied:

       1A    -20.646789     2A    -15.577827     3A    -11.341138
       4A    -11.312771     5A    -11.272723     6A     -1.484349
       7A     -1.202752     8A     -1.040751     9A     -0.858502
      10A     -0.810633    11A     -0.756367    12A     -0.657512
      13A     -0.637121    14A     -0.614460    15A     -0.573573
      16A     -0.450512    17A     -0.439773    18A     -0.359782

  @DF-RHF Final Energy:  -244.69678754232945

   => Energetics <=

    Nuclear Repulsion Energy =            160.5800371466703496
    One-Electron Energy =                -650.4789756120295579
    Two-Electron Energy =                 245.2021509230297625
    Total Energy =                       -244.6967875423294458
  Basis Set: (AUG-CC-PVTZ AUX)
    Blend: AUG-CC-PVTZ-RI
    Molecular point group: c1

    Geometry (in Angstrom), charge = 0, multiplicity = 1:

       Center              X                  Y                   Z               Mass
    ------------   -----------------  -----------------  -----------------  -----------------
         O           -0.379827162741    -1.087637823551     0.000023508362    15.994914619570
         N           -0.401027162741     1.158453176449    -0.000043491638    14.003074004430
         C            0.921725837259    -0.656742823551     0.000034508362    12.000000000000
         C            1.055246637259     0.698241176449    -0.000032491638    12.000000000000
         C           -1.107588162741     0.063003176449     0.000015508362    12.000000000000
         H            1.681784837259    -1.421707823551     0.000064508362     1.007825032230
         H            1.749045837259     1.388723176449    -0.000063491638     1.007825032230
         H           -2.182296162741    -0.045649823551     0.000021508362     1.007825032230

  Basis Set: AUG-CC-PVTZ
    Blend: AUG-CC-PVTZ
  Basis Set: (AUG-CC-PVTZ AUX)
    Blend: AUG-CC-PVTZ-JKFIT
	 Reference Energy          =    -244.6967875423294458 [Eh]
	 Singles Energy            =      -0.0000000000000000 [Eh]
	 Same-Spin Energy          =      -0.2495864664159585 [Eh]
	 Opposite-Spin Energy      =      -0.7563837694814382 [Eh]
	 Correlation Energy        =      -1.0059702358973968 [Eh]
	 Total Energy              =    -245.7027577782268395 [Eh]

	 ================> DF-SCS-MP2 Energies <==================
	-----------------------------------------------------------
	 SCS Same-Spin Scale       =       0.3333333333333333 [-]
	 SCS Opposite-Spin Scale   =       1.2000000000000000 [-]
	 SCS Same-Spin Energy      =      -0.0831954888053195 [Eh]
	 SCS Opposite-Spin Energy  =      -0.9076605233777257 [Eh]
	 SCS Correlation Energy    =      -0.9908560121830452 [Eh]
	 SCS Total Energy          =    -245.6876435545125048 [Eh]
	-----------------------------------------------------------

  Dipole Moment: [D]
     X:     0.8484      Y:    -1.4098      Z:     0.0001     Total:     1.6454

*** Psi4 exiting successfully. Buy a developer a beer!
