                               Psi4 1.4a3.dev225

  ==> Input File <==

--------------------------------------------------------------------------
#psi4
#
memory 32 gb

molecule  {
0 1
  O       -0.3732950    -1.0875170     0.0000230
  N       -0.3944950     1.1585740    -0.0000440
  C        0.9282580    -0.6566220     0.0000340
  C        0.9194130     0.7048960    -0.0000320
  C       -1.1118966     0.0463168     0.0000159
  H        1.6883170    -1.4215870     0.0000640
  H        1.7555780     1.3888440    -0.0000640
  H       -2.1757640    -0.0455290     0.0000210
units angstrom
no_reorient  #important for SAPT in psi4, default
symmetry c1  #important for SAPT in psi4, default
}

set PROPERTIES_ORIGIN ["COM"]
properties('MP2/aug-cc-pvtz', properties = ['dipole'])
--------------------------------------------------------------------------

    Molecular point group: c1
  Charge       = 0
  Multiplicity = 1
  Basis Set: AUG-CC-PVTZ
    Blend: AUG-CC-PVTZ
  Basis Set: (AUG-CC-PVTZ AUX)
    Blend: AUG-CC-PVTZ-JKFIT

    Orbital Energies [Eh]
    ---------------------

    Doubly Occupied:

       1A    -20.649989     2A    -15.576177     3A    -11.343972
       4A    -11.300933     5A    -11.269449     6A     -1.491124
       7A     -1.229087     8A     -1.035701     9A     -0.844142
      10A     -0.824880    11A     -0.755409    12A     -0.661654
      13A     -0.633924    14A     -0.596617    15A     -0.583085
      16A     -0.467404    17A     -0.454881    18A     -0.346058

  @DF-RHF Final Energy:  -244.71830607848008

   => Energetics <=

    Nuclear Repulsion Energy =            162.4636144473495563
    One-Electron Energy =                -654.2348672844964312
    Two-Electron Energy =                 247.0529467586668204
    Total Energy =                       -244.7183060784800830
  Basis Set: (AUG-CC-PVTZ AUX)
    Blend: AUG-CC-PVTZ-RI
    Molecular point group: c1

    Geometry (in Angstrom), charge = 0, multiplicity = 1:

       Center              X                  Y                   Z               Mass
    ------------   -----------------  -----------------  -----------------  -----------------
         O           -0.353190857150    -1.085851735668     0.000023178030    15.994914619570
         N           -0.374390857150     1.160239264332    -0.000043821970    14.003074004430
         C            0.948362142850    -0.654956735668     0.000034178030    12.000000000000
         C            0.939517142850     0.706561264332    -0.000031821970    12.000000000000
         C           -1.091792457150     0.047982064332     0.000016078030    12.000000000000
         H            1.708421142850    -1.419921735668     0.000064178030     1.007825032230
         H            1.775682142850     1.390509264332    -0.000063821970     1.007825032230
         H           -2.155659857150    -0.043863735668     0.000021178030     1.007825032230

  Basis Set: AUG-CC-PVTZ
    Blend: AUG-CC-PVTZ
  Basis Set: (AUG-CC-PVTZ AUX)
    Blend: AUG-CC-PVTZ-JKFIT
	 Reference Energy          =    -244.7183060784800830 [Eh]
	 Singles Energy            =      -0.0000000000000000 [Eh]
	 Same-Spin Energy          =      -0.2509638049068130 [Eh]
	 Opposite-Spin Energy      =      -0.7548816298025061 [Eh]
	 Correlation Energy        =      -1.0058454347093191 [Eh]
	 Total Energy              =    -245.7241515131894118 [Eh]

	 ================> DF-SCS-MP2 Energies <==================
	-----------------------------------------------------------
	 SCS Same-Spin Scale       =       0.3333333333333333 [-]
	 SCS Opposite-Spin Scale   =       1.2000000000000000 [-]
	 SCS Same-Spin Energy      =      -0.0836546016356043 [Eh]
	 SCS Opposite-Spin Energy  =      -0.9058579557630072 [Eh]
	 SCS Correlation Energy    =      -0.9895125573986115 [Eh]
	 SCS Total Energy          =    -245.7078186358786809 [Eh]
	-----------------------------------------------------------

  Dipole Moment: [D]
     X:     0.7897      Y:    -1.4773      Z:     0.0001     Total:     1.6751

*** Psi4 exiting successfully. Buy a developer a beer!
