                               Psi4 1.3.2 release

  ==> Input File <==

--------------------------------------------------------------------------
#psi4
#
memory 32 gb

molecule  {
0 1
  O       -0.3732950    -1.0875170     0.0000230
  N       -0.3944950     1.1585740    -0.0000440
  C        0.9282580    -0.6566220     0.0000340
  C        0.9194130     0.7048960    -0.0000320
  C       -1.1010560     0.0631240     0.0000150
  H        1.6883170    -1.4215870     0.0000640
  H        1.7555780     1.3888440    -0.0000640
  H       -1.9767784    -0.0254115     0.0000199
units angstrom
no_reorient  #important for SAPT in psi4, default
symmetry c1  #important for SAPT in psi4, default
}

set PROPERTIES_ORIGIN ["COM"]
properties('MP2/aug-cc-pvtz', properties = ['dipole'])
--------------------------------------------------------------------------

    Molecular point group: c1
  Charge       = 0
  Multiplicity = 1
  Basis Set: AUG-CC-PVTZ
    Blend: AUG-CC-PVTZ
  Basis Set: (AUG-CC-PVTZ AUX)
    Blend: AUG-CC-PVTZ-JKFIT

    Orbital Energies [Eh]
    ---------------------

    Doubly Occupied:

       1A    -20.646941     2A    -15.575790     3A    -11.321497
       4A    -11.301654     5A    -11.268900     6A     -1.488254
       7A     -1.235952     8A     -1.047602     9A     -0.868204
      10A     -0.836724    11A     -0.765738    12A     -0.660399
      13A     -0.646147    14A     -0.607437    15A     -0.582611
      16A     -0.469818    17A     -0.457919    18A     -0.347897

  @DF-RHF Final Energy:  -244.68277937647895

   => Energetics <=

    Nuclear Repulsion Energy =            163.7928735513325762
    One-Electron Energy =                -656.6923380304996272
    Two-Electron Energy =                 248.2166851026880749
    Total Energy =                       -244.6827793764789476
  Basis Set: (AUG-CC-PVTZ AUX)
    Blend: AUG-CC-PVTZ-RI
    Molecular point group: c1

    Geometry (in Angstrom), charge = 0, multiplicity = 1:

       Center              X                  Y                   Z               Mass
    ------------   -----------------  -----------------  -----------------  -----------------
         O           -0.357981104284    -1.089067566051     0.000023350565    15.994914619570
         N           -0.379181104284     1.157023433949    -0.000043649435    14.003074004430
         C            0.943571895716    -0.658172566051     0.000034350565    12.000000000000
         C            0.934726895716     0.703345433949    -0.000031649435    12.000000000000
         C           -1.085742104284     0.061573433949     0.000015350565    12.000000000000
         H            1.703630895716    -1.423137566051     0.000064350565     1.007825032230
         H            1.770891895716     1.387293433949    -0.000063649435     1.007825032230
         H           -1.961464504284    -0.026962066051     0.000020250565     1.007825032230

  Basis Set: AUG-CC-PVTZ
    Blend: AUG-CC-PVTZ
  Basis Set: (AUG-CC-PVTZ AUX)
    Blend: AUG-CC-PVTZ-JKFIT
	 Reference Energy          =    -244.6827793764789476 [Eh]
	 Singles Energy            =      -0.0000000000000000 [Eh]
	 Same-Spin Energy          =      -0.2504527509175930 [Eh]
	 Opposite-Spin Energy      =      -0.7542164599656678 [Eh]
	 Correlation Energy        =      -1.0046692108832609 [Eh]
	 Total Energy              =    -245.6874485873622120 [Eh]

	 ================> DF-SCS-MP2 Energies <==================
	-----------------------------------------------------------
	 SCS Same-Spin Scale       =       0.3333333333333333 [-]
	 SCS Opposite-Spin Scale   =       1.2000000000000000 [-]
	 SCS Same-Spin Energy      =      -0.0834842503058643 [Eh]
	 SCS Opposite-Spin Energy  =      -0.9050597519588013 [Eh]
	 SCS Correlation Energy    =      -0.9885440022646657 [Eh]
	 SCS Total Energy          =    -245.6713233787436081 [Eh]
	-----------------------------------------------------------

  Dipole Moment: [D]
     X:     0.8555      Y:    -1.4216      Z:     0.0001     Total:     1.6592

*** Psi4 exiting successfully. Buy a developer a beer!
