                               Psi4 1.3.2 release

  ==> Input File <==

--------------------------------------------------------------------------
#psi4
#
memory 32 gb

molecule  {
0 1
  O       -0.3211242    -1.2212058     0.0000307
  N       -0.3944950     1.1585740    -0.0000440
  C        0.9282580    -0.6566220     0.0000340
  C        0.9194130     0.7048960    -0.0000320
  C       -1.1010560     0.0631240     0.0000150
  H        1.6883170    -1.4215870     0.0000640
  H        1.7555780     1.3888440    -0.0000640
  H       -2.1757640    -0.0455290     0.0000210
units angstrom
no_reorient  #important for SAPT in psi4, default
symmetry c1  #important for SAPT in psi4, default
}

set PROPERTIES_ORIGIN ["COM"]
properties('MP2/aug-cc-pvtz', properties = ['dipole'])
--------------------------------------------------------------------------

    Molecular point group: c1
  Charge       = 0
  Multiplicity = 1
  Basis Set: AUG-CC-PVTZ
    Blend: AUG-CC-PVTZ
  Basis Set: (AUG-CC-PVTZ AUX)
    Blend: AUG-CC-PVTZ-JKFIT

    Orbital Energies [Eh]
    ---------------------

    Doubly Occupied:

       1A    -20.644459     2A    -15.594675     3A    -11.355021
       4A    -11.305747     5A    -11.269538     6A     -1.445967
       7A     -1.250336     8A     -1.019951     9A     -0.834780
      10A     -0.824498    11A     -0.742154    12A     -0.637182
      13A     -0.616394    14A     -0.604298    15A     -0.572291
      16A     -0.481040    17A     -0.472238    18A     -0.343290

  @DF-RHF Final Energy:  -244.69590243844181

   => Energetics <=

    Nuclear Repulsion Energy =            159.6944155314227487
    One-Electron Energy =                -648.7529184762991008
    Two-Electron Energy =                 244.3626005064345463
    Total Energy =                       -244.6959024384418058
  Basis Set: (AUG-CC-PVTZ AUX)
    Blend: AUG-CC-PVTZ-RI
    Molecular point group: c1

    Geometry (in Angstrom), charge = 0, multiplicity = 1:

       Center              X                  Y                   Z               Mass
    ------------   -----------------  -----------------  -----------------  -----------------
         O           -0.314994763562    -1.191481806728     0.000029250118    15.994914619570
         N           -0.388365563562     1.188297993272    -0.000045449882    14.003074004430
         C            0.934387436438    -0.626898006728     0.000032550118    12.000000000000
         C            0.925542436438     0.734619993272    -0.000033449882    12.000000000000
         C           -1.094926563562     0.092847993272     0.000013550118    12.000000000000
         H            1.694446436438    -1.391863006728     0.000062550118     1.007825032230
         H            1.761707436438     1.418567993272    -0.000065449882     1.007825032230
         H           -2.169634563562    -0.015805006728     0.000019550118     1.007825032230

  Basis Set: AUG-CC-PVTZ
    Blend: AUG-CC-PVTZ
  Basis Set: (AUG-CC-PVTZ AUX)
    Blend: AUG-CC-PVTZ-JKFIT
	 Reference Energy          =    -244.6959024384418058 [Eh]
	 Singles Energy            =      -0.0000000000000000 [Eh]
	 Same-Spin Energy          =      -0.2525308648209025 [Eh]
	 Opposite-Spin Energy      =      -0.7613318708534693 [Eh]
	 Correlation Energy        =      -1.0138627356743717 [Eh]
	 Total Energy              =    -245.7097651741161712 [Eh]

	 ================> DF-SCS-MP2 Energies <==================
	-----------------------------------------------------------
	 SCS Same-Spin Scale       =       0.3333333333333333 [-]
	 SCS Opposite-Spin Scale   =       1.2000000000000000 [-]
	 SCS Same-Spin Energy      =      -0.0841769549403008 [Eh]
	 SCS Opposite-Spin Energy  =      -0.9135982450241631 [Eh]
	 SCS Correlation Energy    =      -0.9977751999644640 [Eh]
	 SCS Total Energy          =    -245.6936776384062568 [Eh]
	-----------------------------------------------------------

  Dipole Moment: [D]
     X:     0.6596      Y:    -0.9405      Z:     0.0001     Total:     1.1488

*** Psi4 exiting successfully. Buy a developer a beer!
