                               Psi4 1.4a3.dev225

  ==> Input File <==

--------------------------------------------------------------------------
#psi4
#
memory 32 gb

molecule  {
0 1
  O       -0.3732950    -1.0875170     0.0000230
  N       -0.3944950     1.1585740    -0.0000440
  C        0.9282580    -0.6566220     0.0000340
  C        0.9194130     0.7048960    -0.0000320
  C       -1.1010560     0.0631240     0.0000150
  H        1.7024136    -1.4357746     0.0000646
  H        1.7555780     1.3888440    -0.0000640
  H       -2.1757640    -0.0455290     0.0000210
units angstrom
no_reorient  #important for SAPT in psi4, default
symmetry c1  #important for SAPT in psi4, default
}

set PROPERTIES_ORIGIN ["COM"]
properties('MP2/aug-cc-pvtz', properties = ['dipole'])
--------------------------------------------------------------------------

    Molecular point group: c1
  Charge       = 0
  Multiplicity = 1
  Basis Set: AUG-CC-PVTZ
    Blend: AUG-CC-PVTZ
  Basis Set: (AUG-CC-PVTZ AUX)
    Blend: AUG-CC-PVTZ-JKFIT

    Orbital Energies [Eh]
    ---------------------

    Doubly Occupied:

       1A    -20.647835     2A    -15.575611     3A    -11.342786
       4A    -11.303422     5A    -11.269410     6A     -1.488551
       7A     -1.236222     8A     -1.034085     9A     -0.843154
      10A     -0.822789    11A     -0.752587    12A     -0.660778
      13A     -0.627127    14A     -0.597498    15A     -0.582342
      16A     -0.469253    17A     -0.458434    18A     -0.347393

  @DF-RHF Final Energy:  -244.71923001753285

   => Energetics <=

    Nuclear Repulsion Energy =            162.5685569678156241
    One-Electron Energy =                -654.4570188208028867
    Two-Electron Energy =                 247.1692318354543829
    Total Energy =                       -244.7192300175328512
  Basis Set: (AUG-CC-PVTZ AUX)
    Blend: AUG-CC-PVTZ-RI
    Molecular point group: c1

    Geometry (in Angstrom), charge = 0, multiplicity = 1:

       Center              X                  Y                   Z               Mass
    ------------   -----------------  -----------------  -----------------  -----------------
         O           -0.355281425773    -1.088566656093     0.000023325742    15.994914619570
         N           -0.376481425773     1.157524343907    -0.000043674258    14.003074004430
         C            0.946271574227    -0.657671656093     0.000034325742    12.000000000000
         C            0.937426574227     0.703846343907    -0.000031674258    12.000000000000
         C           -1.083042425773     0.062074343907     0.000015325742    12.000000000000
         H            1.720427174227    -1.436824256093     0.000064925742     1.007825032230
         H            1.773591574227     1.387794343907    -0.000063674258     1.007825032230
         H           -2.157750425773    -0.046578656093     0.000021325742     1.007825032230

  Basis Set: AUG-CC-PVTZ
    Blend: AUG-CC-PVTZ
  Basis Set: (AUG-CC-PVTZ AUX)
    Blend: AUG-CC-PVTZ-JKFIT
	 Reference Energy          =    -244.7192300175328512 [Eh]
	 Singles Energy            =      -0.0000000000000000 [Eh]
	 Same-Spin Energy          =      -0.2506438650481773 [Eh]
	 Opposite-Spin Energy      =      -0.7544565625694735 [Eh]
	 Correlation Energy        =      -1.0051004276176507 [Eh]
	 Total Energy              =    -245.7243304451505139 [Eh]

	 ================> DF-SCS-MP2 Energies <==================
	-----------------------------------------------------------
	 SCS Same-Spin Scale       =       0.3333333333333333 [-]
	 SCS Opposite-Spin Scale   =       1.2000000000000000 [-]
	 SCS Same-Spin Energy      =      -0.0835479550160591 [Eh]
	 SCS Opposite-Spin Energy  =      -0.9053478750833681 [Eh]
	 SCS Correlation Energy    =      -0.9888958300994272 [Eh]
	 SCS Total Energy          =    -245.7081258476322887 [Eh]
	-----------------------------------------------------------

  Dipole Moment: [D]
     X:     0.7867      Y:    -1.4240      Z:     0.0001     Total:     1.6268

*** Psi4 exiting successfully. Buy a developer a beer!
