                               Psi4 1.3.2 release

  ==> Input File <==

--------------------------------------------------------------------------
#psi4
#
memory 32 gb

molecule  {
0 1
  O       -0.3732950    -1.0875170     0.0000230
  N       -0.3944950     1.1585740    -0.0000440
  C        0.9551452    -0.7484634     0.0000344
  C        0.9194130     0.7048960    -0.0000320
  C       -1.1010560     0.0631240     0.0000150
  H        1.6883170    -1.4215870     0.0000640
  H        1.7555780     1.3888440    -0.0000640
  H       -2.1757640    -0.0455290     0.0000210
units angstrom
no_reorient  #important for SAPT in psi4, default
symmetry c1  #important for SAPT in psi4, default
}

set PROPERTIES_ORIGIN ["COM"]
properties('MP2/aug-cc-pvtz', properties = ['dipole'])
--------------------------------------------------------------------------

    Molecular point group: c1
  Charge       = 0
  Multiplicity = 1
  Basis Set: AUG-CC-PVTZ
    Blend: AUG-CC-PVTZ
  Basis Set: (AUG-CC-PVTZ AUX)
    Blend: AUG-CC-PVTZ-JKFIT

    Orbital Energies [Eh]
    ---------------------

    Doubly Occupied:

       1A    -20.650151     2A    -15.579200     3A    -11.344227
       4A    -11.306670     5A    -11.282192     6A     -1.485117
       7A     -1.235300     8A     -1.026286     9A     -0.846510
      10A     -0.826121    11A     -0.755309    12A     -0.660761
      13A     -0.657609    14A     -0.597090    15A     -0.563536
      16A     -0.471544    17A     -0.457665    18A     -0.333014

  @DF-RHF Final Energy:  -244.70096228255602

   => Energetics <=

    Nuclear Repulsion Energy =            161.3468934938261725
    One-Electron Energy =                -651.9391040755336917
    Two-Electron Energy =                 245.8912482991514707
    Total Energy =                       -244.7009622825560200
  Basis Set: (AUG-CC-PVTZ AUX)
    Blend: AUG-CC-PVTZ-RI
    Molecular point group: c1

    Geometry (in Angstrom), charge = 0, multiplicity = 1:

       Center              X                  Y                   Z               Mass
    ------------   -----------------  -----------------  -----------------  -----------------
         O           -0.359750173276    -1.072806367583     0.000023264960    15.994914619570
         N           -0.380950173276     1.173284632417    -0.000043735040    14.003074004430
         C            0.968690026724    -0.733752767583     0.000034664960    12.000000000000
         C            0.932957826724     0.719606632417    -0.000031735040    12.000000000000
         C           -1.087511173276     0.077834632417     0.000015264960    12.000000000000
         H            1.701861826724    -1.406876367583     0.000064264960     1.007825032230
         H            1.769122826724     1.403554632417    -0.000063735040     1.007825032230
         H           -2.162219173276    -0.030818367583     0.000021264960     1.007825032230

  Basis Set: AUG-CC-PVTZ
    Blend: AUG-CC-PVTZ
  Basis Set: (AUG-CC-PVTZ AUX)
    Blend: AUG-CC-PVTZ-JKFIT
	 Reference Energy          =    -244.7009622825560200 [Eh]
	 Singles Energy            =      -0.0000000000000000 [Eh]
	 Same-Spin Energy          =      -0.2521571923590821 [Eh]
	 Opposite-Spin Energy      =      -0.7574090738953100 [Eh]
	 Correlation Energy        =      -1.0095662662543921 [Eh]
	 Total Energy              =    -245.7105285488104016 [Eh]

	 ================> DF-SCS-MP2 Energies <==================
	-----------------------------------------------------------
	 SCS Same-Spin Scale       =       0.3333333333333333 [-]
	 SCS Opposite-Spin Scale   =       1.2000000000000000 [-]
	 SCS Same-Spin Energy      =      -0.0840523974530274 [Eh]
	 SCS Opposite-Spin Energy  =      -0.9088908886743720 [Eh]
	 SCS Correlation Energy    =      -0.9929432861273993 [Eh]
	 SCS Total Energy          =    -245.6939055686834195 [Eh]
	-----------------------------------------------------------

  Dipole Moment: [D]
     X:     0.7477      Y:    -1.4885      Z:     0.0001     Total:     1.6658

*** Psi4 exiting successfully. Buy a developer a beer!
