                               Psi4 1.3.2 release

  ==> Input File <==

--------------------------------------------------------------------------
#psi4
#
memory 32 gb

molecule  {
0 1
  O       -0.3732950    -1.0875170     0.0000230
  N       -0.3944950     1.1585740    -0.0000440
  C        0.9282580    -0.6566220     0.0000340
  C        0.9344457     0.7510271    -0.0000344
  C       -1.1010560     0.0631240     0.0000150
  H        1.6883170    -1.4215870     0.0000640
  H        1.7555780     1.3888440    -0.0000640
  H       -2.1757640    -0.0455290     0.0000210
units angstrom
no_reorient  #important for SAPT in psi4, default
symmetry c1  #important for SAPT in psi4, default
}

set PROPERTIES_ORIGIN ["COM"]
properties('MP2/aug-cc-pvtz', properties = ['dipole'])
--------------------------------------------------------------------------

    Molecular point group: c1
  Charge       = 0
  Multiplicity = 1
  Basis Set: AUG-CC-PVTZ
    Blend: AUG-CC-PVTZ
  Basis Set: (AUG-CC-PVTZ AUX)
    Blend: AUG-CC-PVTZ-JKFIT

    Orbital Energies [Eh]
    ---------------------

    Doubly Occupied:

       1A    -20.651069     2A    -15.576111     3A    -11.341707
       4A    -11.308424     5A    -11.273411     6A     -1.487908
       7A     -1.234778     8A     -1.028424     9A     -0.847914
      10A     -0.821509    11A     -0.754509    12A     -0.659371
      13A     -0.635637    14A     -0.608695    15A     -0.580692
      16A     -0.463838    17A     -0.458345    18A     -0.339544

  @DF-RHF Final Energy:  -244.71391110215896

   => Energetics <=

    Nuclear Repulsion Energy =            161.9323402218028036
    One-Electron Energy =                -653.1487300389912889
    Two-Electron Energy =                 246.5024787150295253
    Total Energy =                       -244.7139111021589599
  Basis Set: (AUG-CC-PVTZ AUX)
    Blend: AUG-CC-PVTZ-RI
    Molecular point group: c1

    Geometry (in Angstrom), charge = 0, multiplicity = 1:

       Center              X                  Y                   Z               Mass
    ------------   -----------------  -----------------  -----------------  -----------------
         O           -0.357689162217    -1.096794123142     0.000023751765    15.994914619570
         N           -0.378889162217     1.149296876858    -0.000043248235    14.003074004430
         C            0.943863837783    -0.665899123142     0.000034751765    12.000000000000
         C            0.950051537783     0.741749976858    -0.000033648235    12.000000000000
         C           -1.085450162217     0.053846876858     0.000015751765    12.000000000000
         H            1.703922837783    -1.430864123142     0.000064751765     1.007825032230
         H            1.771183837783     1.379566876858    -0.000063248235     1.007825032230
         H           -2.160158162217    -0.054806123142     0.000021751765     1.007825032230

  Basis Set: AUG-CC-PVTZ
    Blend: AUG-CC-PVTZ
  Basis Set: (AUG-CC-PVTZ AUX)
    Blend: AUG-CC-PVTZ-JKFIT
	 Reference Energy          =    -244.7139111021589599 [Eh]
	 Singles Energy            =      -0.0000000000000000 [Eh]
	 Same-Spin Energy          =      -0.2513971960248427 [Eh]
	 Opposite-Spin Energy      =      -0.7559601370480336 [Eh]
	 Correlation Energy        =      -1.0073573330728762 [Eh]
	 Total Energy              =    -245.7212684352318490 [Eh]

	 ================> DF-SCS-MP2 Energies <==================
	-----------------------------------------------------------
	 SCS Same-Spin Scale       =       0.3333333333333333 [-]
	 SCS Opposite-Spin Scale   =       1.2000000000000000 [-]
	 SCS Same-Spin Energy      =      -0.0837990653416142 [Eh]
	 SCS Opposite-Spin Energy  =      -0.9071521644576402 [Eh]
	 SCS Correlation Energy    =      -0.9909512297992544 [Eh]
	 SCS Total Energy          =    -245.7048623319582248 [Eh]
	-----------------------------------------------------------

  Dipole Moment: [D]
     X:     0.8094      Y:    -1.4005      Z:     0.0001     Total:     1.6176

*** Psi4 exiting successfully. Buy a developer a beer!
