                               Psi4 1.3.2 release

  ==> Input File <==

--------------------------------------------------------------------------
#psi4
#
memory 32 gb

molecule  {
0 1
  O       -0.3732950    -1.0875170     0.0000230
  N       -0.3944950     1.1585740    -0.0000440
  C        0.8950298    -0.5668799     0.0000336
  C        0.9194130     0.7048960    -0.0000320
  C       -1.1010560     0.0631240     0.0000150
  H        1.6883170    -1.4215870     0.0000640
  H        1.7555780     1.3888440    -0.0000640
  H       -2.1757640    -0.0455290     0.0000210
units angstrom
no_reorient  #important for SAPT in psi4, default
symmetry c1  #important for SAPT in psi4, default
}

set PROPERTIES_ORIGIN ["COM"]
properties('MP2/aug-cc-pvtz', properties = ['dipole'])
--------------------------------------------------------------------------

    Molecular point group: c1
  Charge       = 0
  Multiplicity = 1
  Basis Set: AUG-CC-PVTZ
    Blend: AUG-CC-PVTZ
  Basis Set: (AUG-CC-PVTZ AUX)
    Blend: AUG-CC-PVTZ-JKFIT

    Orbital Energies [Eh]
    ---------------------

    Doubly Occupied:

       1A    -20.646355     2A    -15.573139     3A    -11.342327
       4A    -11.295823     5A    -11.255751     6A     -1.492978
       7A     -1.240448     8A     -1.047517     9A     -0.849762
      10A     -0.817426    11A     -0.751690    12A     -0.665445
      13A     -0.608297    14A     -0.600275    15A     -0.586281
      16A     -0.466030    17A     -0.461954    18A     -0.362536

  @DF-RHF Final Energy:  -244.70762246180263

   => Energetics <=

    Nuclear Repulsion Energy =            164.1652774037920324
    One-Electron Energy =                -657.6177350155527392
    Two-Electron Energy =                 248.7448351499580497
    Total Energy =                       -244.7076224618026288
  Basis Set: (AUG-CC-PVTZ AUX)
    Blend: AUG-CC-PVTZ-RI
    Molecular point group: c1

    Geometry (in Angstrom), charge = 0, multiplicity = 1:

       Center              X                  Y                   Z               Mass
    ------------   -----------------  -----------------  -----------------  -----------------
         O           -0.349298572265    -1.104376286309     0.000023404047    15.994914619570
         N           -0.370498572265     1.141714713691    -0.000043595953    14.003074004430
         C            0.919026227735    -0.583739186309     0.000034004047    12.000000000000
         C            0.943409427735     0.688036713691    -0.000031595953    12.000000000000
         C           -1.077059572265     0.046264713691     0.000015404047    12.000000000000
         H            1.712313427735    -1.438446286309     0.000064404047     1.007825032230
         H            1.779574427735     1.371984713691    -0.000063595953     1.007825032230
         H           -2.151767572265    -0.062388286309     0.000021404047     1.007825032230

  Basis Set: AUG-CC-PVTZ
    Blend: AUG-CC-PVTZ
  Basis Set: (AUG-CC-PVTZ AUX)
    Blend: AUG-CC-PVTZ-JKFIT
	 Reference Energy          =    -244.7076224618026288 [Eh]
	 Singles Energy            =      -0.0000000000000000 [Eh]
	 Same-Spin Energy          =      -0.2497805595988314 [Eh]
	 Opposite-Spin Energy      =      -0.7529319643703561 [Eh]
	 Correlation Energy        =      -1.0027125239691874 [Eh]
	 Total Energy              =    -245.7103349857718229 [Eh]

	 ================> DF-SCS-MP2 Energies <==================
	-----------------------------------------------------------
	 SCS Same-Spin Scale       =       0.3333333333333333 [-]
	 SCS Opposite-Spin Scale   =       1.2000000000000000 [-]
	 SCS Same-Spin Energy      =      -0.0832601865329438 [Eh]
	 SCS Opposite-Spin Energy  =      -0.9035183572444273 [Eh]
	 SCS Correlation Energy    =      -0.9867785437773711 [Eh]
	 SCS Total Energy          =    -245.6944010055800049 [Eh]
	-----------------------------------------------------------

  Dipole Moment: [D]
     X:     0.7746      Y:    -1.3047      Z:     0.0001     Total:     1.5173

*** Psi4 exiting successfully. Buy a developer a beer!
