                               Psi4 1.3.2 release

  ==> Input File <==

--------------------------------------------------------------------------
#psi4
#
memory 32 gb

molecule  {
0 1
  O       -0.3732950    -1.0875170     0.0000230
  N       -0.3566948     1.1332481    -0.0000426
  C        0.9282580    -0.6566220     0.0000340
  C        0.9194130     0.7048960    -0.0000320
  C       -1.1010560     0.0631240     0.0000150
  H        1.6883170    -1.4215870     0.0000640
  H        1.7555780     1.3888440    -0.0000640
  H       -2.1757640    -0.0455290     0.0000210
units angstrom
no_reorient  #important for SAPT in psi4, default
symmetry c1  #important for SAPT in psi4, default
}

set PROPERTIES_ORIGIN ["COM"]
properties('MP2/aug-cc-pvtz', properties = ['dipole'])
--------------------------------------------------------------------------

    Molecular point group: c1
  Charge       = 0
  Multiplicity = 1
  Basis Set: AUG-CC-PVTZ
    Blend: AUG-CC-PVTZ
  Basis Set: (AUG-CC-PVTZ AUX)
    Blend: AUG-CC-PVTZ-JKFIT

    Orbital Energies [Eh]
    ---------------------

    Doubly Occupied:

       1A    -20.647822     2A    -15.570112     3A    -11.341380
       4A    -11.299030     5A    -11.265076     6A     -1.489635
       7A     -1.244815     8A     -1.034526     9A     -0.841146
      10A     -0.830899    11A     -0.755256    12A     -0.661357
      13A     -0.629483    14A     -0.607325    15A     -0.583030
      16A     -0.463314    17A     -0.462905    18A     -0.343226

  @DF-RHF Final Energy:  -244.71875288237115

   => Energetics <=

    Nuclear Repulsion Energy =            163.5563083598619016
    One-Electron Energy =                -656.4094483649026870
    Two-Electron Energy =                 248.1343871226696649
    Total Energy =                       -244.7187528823711489
  Basis Set: (AUG-CC-PVTZ AUX)
    Blend: AUG-CC-PVTZ-RI
    Molecular point group: c1

    Geometry (in Angstrom), charge = 0, multiplicity = 1:

       Center              X                  Y                   Z               Mass
    ------------   -----------------  -----------------  -----------------  -----------------
         O           -0.362744496880    -1.083635699617     0.000023050471    15.994914619570
         N           -0.346144296880     1.137129400383    -0.000042549529    14.003074004430
         C            0.938808503120    -0.652740699617     0.000034050471    12.000000000000
         C            0.929963503120     0.708777300383    -0.000031949529    12.000000000000
         C           -1.090505496880     0.067005300383     0.000015050471    12.000000000000
         H            1.698867503120    -1.417705699617     0.000064050471     1.007825032230
         H            1.766128503120     1.392725300383    -0.000063949529     1.007825032230
         H           -2.165213496880    -0.041647699617     0.000021050471     1.007825032230

  Basis Set: AUG-CC-PVTZ
    Blend: AUG-CC-PVTZ
  Basis Set: (AUG-CC-PVTZ AUX)
    Blend: AUG-CC-PVTZ-JKFIT
	 Reference Energy          =    -244.7187528823711489 [Eh]
	 Singles Energy            =      -0.0000000000000000 [Eh]
	 Same-Spin Energy          =      -0.2511805331098106 [Eh]
	 Opposite-Spin Energy      =      -0.7539749372542962 [Eh]
	 Correlation Energy        =      -1.0051554703641068 [Eh]
	 Total Energy              =    -245.7239083527352648 [Eh]

	 ================> DF-SCS-MP2 Energies <==================
	-----------------------------------------------------------
	 SCS Same-Spin Scale       =       0.3333333333333333 [-]
	 SCS Opposite-Spin Scale   =       1.2000000000000000 [-]
	 SCS Same-Spin Energy      =      -0.0837268443699369 [Eh]
	 SCS Opposite-Spin Energy  =      -0.9047699247051554 [Eh]
	 SCS Correlation Energy    =      -0.9884967690750922 [Eh]
	 SCS Total Energy          =    -245.7072496514462330 [Eh]
	-----------------------------------------------------------

  Dipole Moment: [D]
     X:     0.7309      Y:    -1.3689      Z:     0.0001     Total:     1.5518

*** Psi4 exiting successfully. Buy a developer a beer!
