                               Psi4 1.3.2 release

  ==> Input File <==

--------------------------------------------------------------------------
#psi4
#
memory 32 gb

molecule  {
0 1
  O       -0.3655766    -1.1101666     0.0000236
  N       -0.3944950     1.1585740    -0.0000440
  C        0.9282580    -0.6566220     0.0000340
  C        0.9194130     0.7048960    -0.0000320
  C       -1.1010560     0.0631240     0.0000150
  H        1.6883170    -1.4215870     0.0000640
  H        1.7555780     1.3888440    -0.0000640
  H       -2.1757640    -0.0455290     0.0000210
units angstrom
no_reorient  #important for SAPT in psi4, default
symmetry c1  #important for SAPT in psi4, default
}

set PROPERTIES_ORIGIN ["COM"]
properties('MP2/aug-cc-pvtz', properties = ['dipole'])
--------------------------------------------------------------------------

    Molecular point group: c1
  Charge       = 0
  Multiplicity = 1
  Basis Set: AUG-CC-PVTZ
    Blend: AUG-CC-PVTZ
  Basis Set: (AUG-CC-PVTZ AUX)
    Blend: AUG-CC-PVTZ-JKFIT

    Orbital Energies [Eh]
    ---------------------

    Doubly Occupied:

       1A    -20.647311     2A    -15.578890     3A    -11.344831
       4A    -11.302055     5A    -11.269402     6A     -1.480344
       7A     -1.238590     8A     -1.031718     9A     -0.840345
      10A     -0.825903    11A     -0.751497    12A     -0.656208
      13A     -0.626263    14A     -0.599003    15A     -0.583094
      16A     -0.471466    17A     -0.460736    18A     -0.346693

  @DF-RHF Final Energy:  -244.71767401561857

   => Energetics <=

    Nuclear Repulsion Energy =            162.1338193122254552
    One-Electron Energy =                -653.5942845548607920
    Two-Electron Energy =                 246.7427912270167667
    Total Energy =                       -244.7176740156185701
  Basis Set: (AUG-CC-PVTZ AUX)
    Blend: AUG-CC-PVTZ-RI
    Molecular point group: c1

    Geometry (in Angstrom), charge = 0, multiplicity = 1:

       Center              X                  Y                   Z               Mass
    ------------   -----------------  -----------------  -----------------  -----------------
         O           -0.349145841274    -1.106174638877     0.000023795460    15.994914619570
         N           -0.378064241274     1.162565961123    -0.000043804540    14.003074004430
         C            0.944688758726    -0.652630038877     0.000034195460    12.000000000000
         C            0.935843758726     0.708887961123    -0.000031804540    12.000000000000
         C           -1.084625241274     0.067115961123     0.000015195460    12.000000000000
         H            1.704747758726    -1.417595038877     0.000064195460     1.007825032230
         H            1.772008758726     1.392835961123    -0.000063804540     1.007825032230
         H           -2.159333241274    -0.041537038877     0.000021195460     1.007825032230

  Basis Set: AUG-CC-PVTZ
    Blend: AUG-CC-PVTZ
  Basis Set: (AUG-CC-PVTZ AUX)
    Blend: AUG-CC-PVTZ-JKFIT
	 Reference Energy          =    -244.7176740156185701 [Eh]
	 Singles Energy            =      -0.0000000000000000 [Eh]
	 Same-Spin Energy          =      -0.2508681588467906 [Eh]
	 Opposite-Spin Energy      =      -0.7554026077968558 [Eh]
	 Correlation Energy        =      -1.0062707666436463 [Eh]
	 Total Energy              =    -245.7239447822622083 [Eh]

	 ================> DF-SCS-MP2 Energies <==================
	-----------------------------------------------------------
	 SCS Same-Spin Scale       =       0.3333333333333333 [-]
	 SCS Opposite-Spin Scale   =       1.2000000000000000 [-]
	 SCS Same-Spin Energy      =      -0.0836227196155969 [Eh]
	 SCS Opposite-Spin Energy  =      -0.9064831293562269 [Eh]
	 SCS Correlation Energy    =      -0.9901058489718237 [Eh]
	 SCS Total Energy          =    -245.7077798645904068 [Eh]
	-----------------------------------------------------------

  Dipole Moment: [D]
     X:     0.7696      Y:    -1.3379      Z:     0.0001     Total:     1.5435

*** Psi4 exiting successfully. Buy a developer a beer!
