                               Psi4 1.3.2 release

  ==> Input File <==

--------------------------------------------------------------------------
#psi4
#
memory 32 gb

molecule  {
0 1
  O       -0.3732950    -1.0875170     0.0000230
  N       -0.5128713     1.2264287    -0.0000476
  C        0.9282580    -0.6566220     0.0000340
  C        0.9194130     0.7048960    -0.0000320
  C       -1.1010560     0.0631240     0.0000150
  H        1.6883170    -1.4215870     0.0000640
  H        1.7555780     1.3888440    -0.0000640
  H       -2.1757640    -0.0455290     0.0000210
units angstrom
no_reorient  #important for SAPT in psi4, default
symmetry c1  #important for SAPT in psi4, default
}

set PROPERTIES_ORIGIN ["COM"]
properties('MP2/aug-cc-pvtz', properties = ['dipole'])
--------------------------------------------------------------------------

    Molecular point group: c1
  Charge       = 0
  Multiplicity = 1
  Basis Set: AUG-CC-PVTZ
    Blend: AUG-CC-PVTZ
  Basis Set: (AUG-CC-PVTZ AUX)
    Blend: AUG-CC-PVTZ-JKFIT

    Orbital Energies [Eh]
    ---------------------

    Doubly Occupied:

       1A    -20.647826     2A    -15.590226     3A    -11.346289
       4A    -11.308422     5A    -11.280645     6A     -1.486563
       7A     -1.215984     8A     -1.036082     9A     -0.851421
      10A     -0.805614    11A     -0.750049    12A     -0.660017
      13A     -0.632410    14A     -0.583657    15A     -0.569806
      16A     -0.479770    17A     -0.447276    18A     -0.358721

  @DF-RHF Final Energy:  -244.70473198819937

   => Energetics <=

    Nuclear Repulsion Energy =            160.2436741434594580
    One-Electron Energy =                -649.7952548186585773
    Two-Electron Energy =                 244.8468486869997776
    Total Energy =                       -244.7047319881993701
  Basis Set: (AUG-CC-PVTZ AUX)
    Blend: AUG-CC-PVTZ-RI
    Molecular point group: c1

    Geometry (in Angstrom), charge = 0, multiplicity = 1:

       Center              X                  Y                   Z               Mass
    ------------   -----------------  -----------------  -----------------  -----------------
         O           -0.331059409816    -1.102540178995     0.000024064871    15.994914619570
         N           -0.470635709816     1.211405521005    -0.000046535129    14.003074004430
         C            0.970493590184    -0.671645178995     0.000035064871    12.000000000000
         C            0.961648590184     0.689872821005    -0.000030935129    12.000000000000
         C           -1.058820409816     0.048100821005     0.000016064871    12.000000000000
         H            1.730552590184    -1.436610178995     0.000065064871     1.007825032230
         H            1.797813590184     1.373820821005    -0.000062935129     1.007825032230
         H           -2.133528409816    -0.060552178995     0.000022064871     1.007825032230

  Basis Set: AUG-CC-PVTZ
    Blend: AUG-CC-PVTZ
  Basis Set: (AUG-CC-PVTZ AUX)
    Blend: AUG-CC-PVTZ-JKFIT
	 Reference Energy          =    -244.7047319881993701 [Eh]
	 Singles Energy            =      -0.0000000000000000 [Eh]
	 Same-Spin Energy          =      -0.2496904579288135 [Eh]
	 Opposite-Spin Energy      =      -0.7568405590205353 [Eh]
	 Correlation Energy        =      -1.0065310169493489 [Eh]
	 Total Energy              =    -245.7112630051487088 [Eh]

	 ================> DF-SCS-MP2 Energies <==================
	-----------------------------------------------------------
	 SCS Same-Spin Scale       =       0.3333333333333333 [-]
	 SCS Opposite-Spin Scale   =       1.2000000000000000 [-]
	 SCS Same-Spin Energy      =      -0.0832301526429378 [Eh]
	 SCS Opposite-Spin Energy  =      -0.9082086708246423 [Eh]
	 SCS Correlation Energy    =      -0.9914388234675802 [Eh]
	 SCS Total Energy          =    -245.6961708116669456 [Eh]
	-----------------------------------------------------------

  Dipole Moment: [D]
     X:     0.9510      Y:    -1.5225      Z:     0.0001     Total:     1.7951

*** Psi4 exiting successfully. Buy a developer a beer!
