                               Psi4 1.4a3.dev225

  ==> Input File <==

--------------------------------------------------------------------------
#psi4
#
memory 32 gb

molecule  {
0 1
  O       -0.3732950    -1.0875170     0.0000230
  N       -0.3944950     1.1585740    -0.0000440
  C        0.9282580    -0.6566220     0.0000340
  C        0.8721511     0.7212150    -0.0000324
  C       -1.1010560     0.0631240     0.0000150
  H        1.6883170    -1.4215870     0.0000640
  H        1.7555780     1.3888440    -0.0000640
  H       -2.1757640    -0.0455290     0.0000210
units angstrom
no_reorient  #important for SAPT in psi4, default
symmetry c1  #important for SAPT in psi4, default
}

set PROPERTIES_ORIGIN ["COM"]
properties('MP2/aug-cc-pvtz', properties = ['dipole'])
--------------------------------------------------------------------------

    Molecular point group: c1
  Charge       = 0
  Multiplicity = 1
  Basis Set: AUG-CC-PVTZ
    Blend: AUG-CC-PVTZ
  Basis Set: (AUG-CC-PVTZ AUX)
    Blend: AUG-CC-PVTZ-JKFIT

    Orbital Energies [Eh]
    ---------------------

    Doubly Occupied:

       1A    -20.649888     2A    -15.574432     3A    -11.343287
       4A    -11.300168     5A    -11.270356     6A     -1.490760
       7A     -1.251588     8A     -1.030254     9A     -0.839544
      10A     -0.831663    11A     -0.754387    12A     -0.662276
      13A     -0.631726    14A     -0.601625    15A     -0.574736
      16A     -0.471961    17A     -0.467057    18A     -0.339903

  @DF-RHF Final Energy:  -244.71587154905367

   => Energetics <=

    Nuclear Repulsion Energy =            163.2499328525909448
    One-Electron Energy =                -655.7603861671686900
    Two-Electron Energy =                 247.7945817655240432
    Total Energy =                       -244.7158715490536736
  Basis Set: (AUG-CC-PVTZ AUX)
    Blend: AUG-CC-PVTZ-RI
    Molecular point group: c1

    Geometry (in Angstrom), charge = 0, multiplicity = 1:

       Center              X                  Y                   Z               Mass
    ------------   -----------------  -----------------  -----------------  -----------------
         O           -0.346858687758    -1.091611022397     0.000023404047    15.994914619570
         N           -0.368058687758     1.154479977603    -0.000043595953    14.003074004430
         C            0.954694312242    -0.660716022397     0.000034404047    12.000000000000
         C            0.898587412242     0.717120977603    -0.000031995953    12.000000000000
         C           -1.074619687758     0.059029977603     0.000015404047    12.000000000000
         H            1.714753312242    -1.425681022397     0.000064404047     1.007825032230
         H            1.782014312242     1.384749977603    -0.000063595953     1.007825032230
         H           -2.149327687758    -0.049623022397     0.000021404047     1.007825032230

  Basis Set: AUG-CC-PVTZ
    Blend: AUG-CC-PVTZ
  Basis Set: (AUG-CC-PVTZ AUX)
    Blend: AUG-CC-PVTZ-JKFIT
	 Reference Energy          =    -244.7158715490536736 [Eh]
	 Singles Energy            =      -0.0000000000000000 [Eh]
	 Same-Spin Energy          =      -0.2515734754602315 [Eh]
	 Opposite-Spin Energy      =      -0.7548006076006573 [Eh]
	 Correlation Energy        =      -1.0063740830608887 [Eh]
	 Total Energy              =    -245.7222456321145501 [Eh]

	 ================> DF-SCS-MP2 Energies <==================
	-----------------------------------------------------------
	 SCS Same-Spin Scale       =       0.3333333333333333 [-]
	 SCS Opposite-Spin Scale   =       1.2000000000000000 [-]
	 SCS Same-Spin Energy      =      -0.0838578251534105 [Eh]
	 SCS Opposite-Spin Energy  =      -0.9057607291207886 [Eh]
	 SCS Correlation Energy    =      -0.9896185542741991 [Eh]
	 SCS Total Energy          =    -245.7054901033278611 [Eh]
	-----------------------------------------------------------

  Dipole Moment: [D]
     X:     0.7511      Y:    -1.4185      Z:     0.0001     Total:     1.6051

*** Psi4 exiting successfully. Buy a developer a beer!
