                               Psi4 1.3.2 release

  ==> Input File <==

--------------------------------------------------------------------------
#psi4
#
memory 32 gb

molecule  {
0 1
  O       -0.3732950    -1.0875170     0.0000230
  N       -0.3944950     1.1585740    -0.0000440
  C        0.9282580    -0.6566220     0.0000340
  C        1.0144092     0.7021964    -0.0000328
  C       -1.1010560     0.0631240     0.0000150
  H        1.6883170    -1.4215870     0.0000640
  H        1.7555780     1.3888440    -0.0000640
  H       -2.1757640    -0.0455290     0.0000210
units angstrom
no_reorient  #important for SAPT in psi4, default
symmetry c1  #important for SAPT in psi4, default
}

set PROPERTIES_ORIGIN ["COM"]
properties('MP2/aug-cc-pvtz', properties = ['dipole'])
--------------------------------------------------------------------------

    Molecular point group: c1
  Charge       = 0
  Multiplicity = 1
  Basis Set: AUG-CC-PVTZ
    Blend: AUG-CC-PVTZ
  Basis Set: (AUG-CC-PVTZ AUX)
    Blend: AUG-CC-PVTZ-JKFIT

    Orbital Energies [Eh]
    ---------------------

    Doubly Occupied:

       1A    -20.646863     2A    -15.577283     3A    -11.341547
       4A    -11.308702     5A    -11.271235     6A     -1.485272
       7A     -1.212476     8A     -1.038682     9A     -0.853115
      10A     -0.813609    11A     -0.755116    12A     -0.658184
      13A     -0.632950    14A     -0.609682    15A     -0.579470
      16A     -0.457419    17A     -0.445280    18A     -0.355599

  @DF-RHF Final Energy:  -244.70935289537169

   => Energetics <=

    Nuclear Repulsion Energy =            161.2339448039249987
    One-Electron Energy =                -651.8016278540006851
    Two-Electron Energy =                 245.8583301547039923
    Total Energy =                       -244.7093528953716941
  Basis Set: (AUG-CC-PVTZ AUX)
    Blend: AUG-CC-PVTZ-RI
    Molecular point group: c1

    Geometry (in Angstrom), charge = 0, multiplicity = 1:

       Center              X                  Y                   Z               Mass
    ------------   -----------------  -----------------  -----------------  -----------------
         O           -0.371591533281    -1.088304468353     0.000023473590    15.994914619570
         N           -0.392791533281     1.157786531647    -0.000043526410    14.003074004430
         C            0.929961466719    -0.657409468353     0.000034473590    12.000000000000
         C            1.016112666719     0.701408931647    -0.000032326410    12.000000000000
         C           -1.099352533281     0.062336531647     0.000015473590    12.000000000000
         H            1.690020466719    -1.422374468353     0.000064473590     1.007825032230
         H            1.757281466719     1.388056531647    -0.000063526410     1.007825032230
         H           -2.174060533281    -0.046316468353     0.000021473590     1.007825032230

  Basis Set: AUG-CC-PVTZ
    Blend: AUG-CC-PVTZ
  Basis Set: (AUG-CC-PVTZ AUX)
    Blend: AUG-CC-PVTZ-JKFIT
	 Reference Energy          =    -244.7093528953716941 [Eh]
	 Singles Energy            =      -0.0000000000000000 [Eh]
	 Same-Spin Energy          =      -0.2497742989479113 [Eh]
	 Opposite-Spin Energy      =      -0.7553848245976291 [Eh]
	 Correlation Energy        =      -1.0051591235455404 [Eh]
	 Total Energy              =    -245.7145120189172474 [Eh]

	 ================> DF-SCS-MP2 Energies <==================
	-----------------------------------------------------------
	 SCS Same-Spin Scale       =       0.3333333333333333 [-]
	 SCS Opposite-Spin Scale   =       1.2000000000000000 [-]
	 SCS Same-Spin Energy      =      -0.0832580996493038 [Eh]
	 SCS Opposite-Spin Energy  =      -0.9064617895171549 [Eh]
	 SCS Correlation Energy    =      -0.9897198891664587 [Eh]
	 SCS Total Energy          =    -245.6990727845381457 [Eh]
	-----------------------------------------------------------

  Dipole Moment: [D]
     X:     0.8363      Y:    -1.4113      Z:     0.0001     Total:     1.6405

*** Psi4 exiting successfully. Buy a developer a beer!
