                               Psi4 1.3.2 release

  ==> Input File <==

--------------------------------------------------------------------------
#psi4
#
memory 32 gb

molecule  {
0 1
  O       -0.3732950    -1.0875170     0.0000230
  N       -0.3944950     1.1585740    -0.0000440
  C        0.9282580    -0.6566220     0.0000340
  C        0.7303653     0.7701721    -0.0000337
  C       -1.1010560     0.0631240     0.0000150
  H        1.6883170    -1.4215870     0.0000640
  H        1.7555780     1.3888440    -0.0000640
  H       -2.1757640    -0.0455290     0.0000210
units angstrom
no_reorient  #important for SAPT in psi4, default
symmetry c1  #important for SAPT in psi4, default
}

set PROPERTIES_ORIGIN ["COM"]
properties('MP2/aug-cc-pvtz', properties = ['dipole'])
--------------------------------------------------------------------------

    Molecular point group: c1
  Charge       = 0
  Multiplicity = 1
  Basis Set: AUG-CC-PVTZ
    Blend: AUG-CC-PVTZ
  Basis Set: (AUG-CC-PVTZ AUX)
    Blend: AUG-CC-PVTZ-JKFIT

    Orbital Energies [Eh]
    ---------------------

    Doubly Occupied:

       1A    -20.659696     2A    -15.570354     3A    -11.345451
       4A    -11.297358     5A    -11.274602     6A     -1.501319
       7A     -1.310531     8A     -1.018084     9A     -0.861908
      10A     -0.825470    11A     -0.758573    12A     -0.670843
      13A     -0.638684    14A     -0.611256    15A     -0.560406
      16A     -0.501421    17A     -0.460322    18A     -0.317444

  @DF-RHF Final Energy:  -244.65795181246037

   => Energetics <=

    Nuclear Repulsion Energy =            165.2535632845977034
    One-Electron Energy =                -659.4555849375103662
    Two-Electron Energy =                 249.5440698404522948
    Total Energy =                       -244.6579518124603680
  Basis Set: (AUG-CC-PVTZ AUX)
    Blend: AUG-CC-PVTZ-RI
    Molecular point group: c1

    Geometry (in Angstrom), charge = 0, multiplicity = 1:

       Center              X                  Y                   Z               Mass
    ------------   -----------------  -----------------  -----------------  -----------------
         O           -0.322207955822    -1.100122652959     0.000023630063    15.994914619570
         N           -0.343407955822     1.145968347041    -0.000043369937    14.003074004430
         C            0.979345044178    -0.669227652959     0.000034630063    12.000000000000
         C            0.781452344178     0.757566447041    -0.000033069937    12.000000000000
         C           -1.049968955822     0.050518347041     0.000015630063    12.000000000000
         H            1.739404044178    -1.434192652959     0.000064630063     1.007825032230
         H            1.806665044178     1.376238347041    -0.000063369937     1.007825032230
         H           -2.124676955822    -0.058134652959     0.000021630063     1.007825032230

  Basis Set: AUG-CC-PVTZ
    Blend: AUG-CC-PVTZ
  Basis Set: (AUG-CC-PVTZ AUX)
    Blend: AUG-CC-PVTZ-JKFIT
	 Reference Energy          =    -244.6579518124603680 [Eh]
	 Singles Energy            =      -0.0000000000000000 [Eh]
	 Same-Spin Energy          =      -0.2553543189145863 [Eh]
	 Opposite-Spin Energy      =      -0.7585482787721340 [Eh]
	 Correlation Energy        =      -1.0139025976867204 [Eh]
	 Total Energy              =    -245.6718544101470911 [Eh]

	 ================> DF-SCS-MP2 Energies <==================
	-----------------------------------------------------------
	 SCS Same-Spin Scale       =       0.3333333333333333 [-]
	 SCS Opposite-Spin Scale   =       1.2000000000000000 [-]
	 SCS Same-Spin Energy      =      -0.0851181063048621 [Eh]
	 SCS Opposite-Spin Energy  =      -0.9102579345265608 [Eh]
	 SCS Correlation Energy    =      -0.9953760408314229 [Eh]
	 SCS Total Energy          =    -245.6533278532917848 [Eh]
	-----------------------------------------------------------

  Dipole Moment: [D]
     X:     0.5940      Y:    -1.3832      Z:     0.0001     Total:     1.5054

*** Psi4 exiting successfully. Buy a developer a beer!
