                               Psi4 1.4a3.dev225

  ==> Input File <==

--------------------------------------------------------------------------
#psi4
#
memory 32 gb

molecule  {
0 1
  O       -0.3732950    -1.0875170     0.0000230
  N       -0.3944950     1.1585740    -0.0000440
  C        0.9282580    -0.6566220     0.0000340
  C        0.9194130     0.7048960    -0.0000320
  C       -1.1010560     0.0631240     0.0000150
  H        1.6883170    -1.4215870     0.0000640
  H        1.7942801     1.4205007    -0.0000655
  H       -2.1757640    -0.0455290     0.0000210
units angstrom
no_reorient  #important for SAPT in psi4, default
symmetry c1  #important for SAPT in psi4, default
}

set PROPERTIES_ORIGIN ["COM"]
properties('MP2/aug-cc-pvtz', properties = ['dipole'])
--------------------------------------------------------------------------

    Molecular point group: c1
  Charge       = 0
  Multiplicity = 1
  Basis Set: AUG-CC-PVTZ
    Blend: AUG-CC-PVTZ
  Basis Set: (AUG-CC-PVTZ AUX)
    Blend: AUG-CC-PVTZ-JKFIT

    Orbital Energies [Eh]
    ---------------------

    Doubly Occupied:

       1A    -20.647944     2A    -15.575998     3A    -11.343094
       4A    -11.301533     5A    -11.274740     6A     -1.488721
       7A     -1.236354     8A     -1.033890     9A     -0.840446
      10A     -0.823442    11A     -0.750802    12A     -0.660956
      13A     -0.629188    14A     -0.593267    15A     -0.578833
      16A     -0.469343    17A     -0.458645    18A     -0.347549

  @DF-RHF Final Energy:  -244.71736840097947

   => Energetics <=

    Nuclear Repulsion Energy =            162.4342394292789038
    One-Electron Energy =                -654.1937287101144420
    Two-Electron Energy =                 247.0421208798560428
    Total Energy =                       -244.7173684009794670
  Basis Set: (AUG-CC-PVTZ AUX)
    Blend: AUG-CC-PVTZ-RI
    Molecular point group: c1

    Geometry (in Angstrom), charge = 0, multiplicity = 1:

       Center              X                  Y                   Z               Mass
    ------------   -----------------  -----------------  -----------------  -----------------
         O           -0.355640705879    -1.089236057039     0.000023356406    15.994914619570
         N           -0.376840705879     1.156854942961    -0.000043643594    14.003074004430
         C            0.945912294121    -0.658341057039     0.000034356406    12.000000000000
         C            0.937067294121     0.703176942961    -0.000031643594    12.000000000000
         C           -1.083401705879     0.061404942961     0.000015356406    12.000000000000
         H            1.705971294121    -1.423306057039     0.000064356406     1.007825032230
         H            1.811934394121     1.418781642961    -0.000065143594     1.007825032230
         H           -2.158109705879    -0.047248057039     0.000021356406     1.007825032230

  Basis Set: AUG-CC-PVTZ
    Blend: AUG-CC-PVTZ
  Basis Set: (AUG-CC-PVTZ AUX)
    Blend: AUG-CC-PVTZ-JKFIT
	 Reference Energy          =    -244.7173684009794670 [Eh]
	 Singles Energy            =      -0.0000000000000000 [Eh]
	 Same-Spin Energy          =      -0.2506945187758287 [Eh]
	 Opposite-Spin Energy      =      -0.7546330415472082 [Eh]
	 Correlation Energy        =      -1.0053275603230369 [Eh]
	 Total Energy              =    -245.7226959613024917 [Eh]

	 ================> DF-SCS-MP2 Energies <==================
	-----------------------------------------------------------
	 SCS Same-Spin Scale       =       0.3333333333333333 [-]
	 SCS Opposite-Spin Scale   =       1.2000000000000000 [-]
	 SCS Same-Spin Energy      =      -0.0835648395919429 [Eh]
	 SCS Opposite-Spin Energy  =      -0.9055596498566498 [Eh]
	 SCS Correlation Energy    =      -0.9891244894485927 [Eh]
	 SCS Total Energy          =    -245.7064928904280521 [Eh]
	-----------------------------------------------------------

  Dipole Moment: [D]
     X:     0.7798      Y:    -1.4123      Z:     0.0001     Total:     1.6132

*** Psi4 exiting successfully. Buy a developer a beer!
