                               Psi4 1.4a3.dev225

  ==> Input File <==

--------------------------------------------------------------------------
#psi4
#
memory 32 gb

molecule  {
0 1
  O       -0.3732950    -1.0875170     0.0000230
  N       -0.3944950     1.1585740    -0.0000440
  C        0.9282580    -0.6566220     0.0000340
  C        0.9194130     0.7048960    -0.0000320
  C       -1.1010560     0.0631240     0.0000150
  H        1.6883170    -1.4215870     0.0000640
  H        1.7710588     1.4015067    -0.0000646
  H       -2.1757640    -0.0455290     0.0000210
units angstrom
no_reorient  #important for SAPT in psi4, default
symmetry c1  #important for SAPT in psi4, default
}

set PROPERTIES_ORIGIN ["COM"]
properties('MP2/aug-cc-pvtz', properties = ['dipole'])
--------------------------------------------------------------------------

    Molecular point group: c1
  Charge       = 0
  Multiplicity = 1
  Basis Set: AUG-CC-PVTZ
    Blend: AUG-CC-PVTZ
  Basis Set: (AUG-CC-PVTZ AUX)
    Blend: AUG-CC-PVTZ-JKFIT

    Orbital Energies [Eh]
    ---------------------

    Doubly Occupied:

       1A    -20.647785     2A    -15.575708     3A    -11.342880
       4A    -11.301388     5A    -11.271542     6A     -1.488551
       7A     -1.236230     8A     -1.034411     9A     -0.842126
      10A     -0.823903    11A     -0.752605    12A     -0.660790
      13A     -0.629754    14A     -0.595550    15A     -0.581622
      16A     -0.469299    17A     -0.458470    18A     -0.347449

  @DF-RHF Final Energy:  -244.71924284740570

   => Energetics <=

    Nuclear Repulsion Energy =            162.5698150490086391
    One-Electron Energy =                -654.4579897970090769
    Two-Electron Energy =                 247.1689319005947425
    Total Energy =                       -244.7192428474056953
  Basis Set: (AUG-CC-PVTZ AUX)
    Blend: AUG-CC-PVTZ-RI
    Molecular point group: c1

    Geometry (in Angstrom), charge = 0, multiplicity = 1:

       Center              X                  Y                   Z               Mass
    ------------   -----------------  -----------------  -----------------  -----------------
         O           -0.355301637332    -1.088958713911     0.000023343264    15.994914619570
         N           -0.376501637332     1.157132286089    -0.000043656736    14.003074004430
         C            0.946251362668    -0.658063713911     0.000034343264    12.000000000000
         C            0.937406362668     0.703454286089    -0.000031656736    12.000000000000
         C           -1.083062637332     0.061682286089     0.000015343264    12.000000000000
         H            1.706310362668    -1.423028713911     0.000064343264     1.007825032230
         H            1.789052162668     1.400064986089    -0.000064256736     1.007825032230
         H           -2.157770637332    -0.046970713911     0.000021343264     1.007825032230

  Basis Set: AUG-CC-PVTZ
    Blend: AUG-CC-PVTZ
  Basis Set: (AUG-CC-PVTZ AUX)
    Blend: AUG-CC-PVTZ-JKFIT
	 Reference Energy          =    -244.7192428474056953 [Eh]
	 Singles Energy            =      -0.0000000000000000 [Eh]
	 Same-Spin Energy          =      -0.2506359844501420 [Eh]
	 Opposite-Spin Energy      =      -0.7544311660651641 [Eh]
	 Correlation Energy        =      -1.0050671505153062 [Eh]
	 Total Energy              =    -245.7243099979210115 [Eh]

	 ================> DF-SCS-MP2 Energies <==================
	-----------------------------------------------------------
	 SCS Same-Spin Scale       =       0.3333333333333333 [-]
	 SCS Opposite-Spin Scale   =       1.2000000000000000 [-]
	 SCS Same-Spin Energy      =      -0.0835453281500473 [Eh]
	 SCS Opposite-Spin Energy  =      -0.9053173992781969 [Eh]
	 SCS Correlation Energy    =      -0.9888627274282442 [Eh]
	 SCS Total Energy          =    -245.7081055748339509 [Eh]
	-----------------------------------------------------------

  Dipole Moment: [D]
     X:     0.7831      Y:    -1.4166      Z:     0.0001     Total:     1.6186

*** Psi4 exiting successfully. Buy a developer a beer!
