                               Psi4 1.3.2 release

  ==> Input File <==

--------------------------------------------------------------------------
#psi4
#
memory 32 gb

molecule  {
0 1
  O       -0.3732950    -1.0875170     0.0000230
  N       -0.3944950     1.1585740    -0.0000440
  C        0.9282580    -0.6566220     0.0000340
  C        0.9194130     0.7048960    -0.0000320
  C       -1.1010560     0.0631240     0.0000150
  H        1.7587998    -1.4925248     0.0000668
  H        1.7555780     1.3888440    -0.0000640
  H       -2.1757640    -0.0455290     0.0000210
units angstrom
no_reorient  #important for SAPT in psi4, default
symmetry c1  #important for SAPT in psi4, default
}

set PROPERTIES_ORIGIN ["COM"]
properties('MP2/aug-cc-pvtz', properties = ['dipole'])
--------------------------------------------------------------------------

    Molecular point group: c1
  Charge       = 0
  Multiplicity = 1
  Basis Set: AUG-CC-PVTZ
    Blend: AUG-CC-PVTZ
  Basis Set: (AUG-CC-PVTZ AUX)
    Blend: AUG-CC-PVTZ-JKFIT

    Orbital Energies [Eh]
    ---------------------

    Doubly Occupied:

       1A    -20.648491     2A    -15.576006     3A    -11.343016
       4A    -11.311497     5A    -11.269680     6A     -1.489027
       7A     -1.236522     8A     -1.031773     9A     -0.842524
      10A     -0.818145    11A     -0.747895    12A     -0.661197
      13A     -0.615402    14A     -0.597434    15A     -0.578821
      16A     -0.469184    17A     -0.458763    18A     -0.347481

  @DF-RHF Final Energy:  -244.71212484833103

   => Energetics <=

    Nuclear Repulsion Energy =            162.2131835676149194
    One-Electron Energy =                -653.7648988530573888
    Two-Electron Energy =                 246.8395904371114398
    Total Energy =                       -244.7121248483310296
  Basis Set: (AUG-CC-PVTZ AUX)
    Blend: AUG-CC-PVTZ-RI
    Molecular point group: c1

    Geometry (in Angstrom), charge = 0, multiplicity = 1:

       Center              X                  Y                   Z               Mass
    ------------   -----------------  -----------------  -----------------  -----------------
         O           -0.356104755514    -1.087738011363     0.000023293619    15.994914619570
         N           -0.377304755514     1.158352988637    -0.000043706381    14.003074004430
         C            0.945448244486    -0.656843011363     0.000034293619    12.000000000000
         C            0.936603244486     0.704674988637    -0.000031706381    12.000000000000
         C           -1.083865755514     0.062902988637     0.000015293619    12.000000000000
         H            1.775990044486    -1.492745811363     0.000067093619     1.007825032230
         H            1.772768244486     1.388622988637    -0.000063706381     1.007825032230
         H           -2.158573755514    -0.045750011363     0.000021293619     1.007825032230

  Basis Set: AUG-CC-PVTZ
    Blend: AUG-CC-PVTZ
  Basis Set: (AUG-CC-PVTZ AUX)
    Blend: AUG-CC-PVTZ-JKFIT
	 Reference Energy          =    -244.7121248483310296 [Eh]
	 Singles Energy            =      -0.0000000000000000 [Eh]
	 Same-Spin Energy          =      -0.2508455476096354 [Eh]
	 Opposite-Spin Energy      =      -0.7551862451178386 [Eh]
	 Correlation Energy        =      -1.0060317927274740 [Eh]
	 Total Energy              =    -245.7181566410584992 [Eh]

	 ================> DF-SCS-MP2 Energies <==================
	-----------------------------------------------------------
	 SCS Same-Spin Scale       =       0.3333333333333333 [-]
	 SCS Opposite-Spin Scale   =       1.2000000000000000 [-]
	 SCS Same-Spin Energy      =      -0.0836151825365451 [Eh]
	 SCS Opposite-Spin Energy  =      -0.9062234941414062 [Eh]
	 SCS Correlation Energy    =      -0.9898386766779513 [Eh]
	 SCS Total Energy          =    -245.7019635250089777 [Eh]
	-----------------------------------------------------------

  Dipole Moment: [D]
     X:     0.7918      Y:    -1.4386      Z:     0.0001     Total:     1.6421

*** Psi4 exiting successfully. Buy a developer a beer!
