                               Psi4 1.3.2 release

  ==> Input File <==

--------------------------------------------------------------------------
#psi4
#
memory 32 gb

molecule  {
0 1
  O       -0.3732950    -1.0875170     0.0000230
  N       -0.2838599     1.0787173    -0.0000397
  C        0.9282580    -0.6566220     0.0000340
  C        0.9194130     0.7048960    -0.0000320
  C       -1.1010560     0.0631240     0.0000150
  H        1.6883170    -1.4215870     0.0000640
  H        1.7555780     1.3888440    -0.0000640
  H       -2.1757640    -0.0455290     0.0000210
units angstrom
no_reorient  #important for SAPT in psi4, default
symmetry c1  #important for SAPT in psi4, default
}

set PROPERTIES_ORIGIN ["COM"]
properties('MP2/aug-cc-pvtz', properties = ['dipole'])
--------------------------------------------------------------------------

    Molecular point group: c1
  Charge       = 0
  Multiplicity = 1
  Basis Set: AUG-CC-PVTZ
    Blend: AUG-CC-PVTZ
  Basis Set: (AUG-CC-PVTZ AUX)
    Blend: AUG-CC-PVTZ-JKFIT

    Orbital Energies [Eh]
    ---------------------

    Doubly Occupied:

       1A    -20.648310     2A    -15.558544     3A    -11.338165
       4A    -11.294897     5A    -11.255960     6A     -1.493172
       7A     -1.264929     8A     -1.034179     9A     -0.847842
      10A     -0.833830    11A     -0.758145    12A     -0.663713
      13A     -0.628157    14A     -0.626421    15A     -0.583776
      16A     -0.475128    17A     -0.446662    18A     -0.334546

  @DF-RHF Final Energy:  -244.70272269955021

   => Energetics <=

    Nuclear Repulsion Energy =            165.4818444355309168
    One-Electron Energy =                -660.1963831538937484
    Two-Electron Energy =                 250.0118160188126524
    Total Energy =                       -244.7027226995502076
  Basis Set: (AUG-CC-PVTZ AUX)
    Blend: AUG-CC-PVTZ-RI
    Molecular point group: c1

    Geometry (in Angstrom), charge = 0, multiplicity = 1:

       Center              X                  Y                   Z               Mass
    ------------   -----------------  -----------------  -----------------  -----------------
         O           -0.377521240806    -1.072572491352     0.000022462119    15.994914619570
         N           -0.288086140806     1.093661808648    -0.000040237881    14.003074004430
         C            0.924031759194    -0.641677491352     0.000033462119    12.000000000000
         C            0.915186759194     0.719840508648    -0.000032537881    12.000000000000
         C           -1.105282240806     0.078068508648     0.000014462119    12.000000000000
         H            1.684090759194    -1.406642491352     0.000063462119     1.007825032230
         H            1.751351759194     1.403788508648    -0.000064537881     1.007825032230
         H           -2.179990240806    -0.030584491352     0.000020462119     1.007825032230

  Basis Set: AUG-CC-PVTZ
    Blend: AUG-CC-PVTZ
  Basis Set: (AUG-CC-PVTZ AUX)
    Blend: AUG-CC-PVTZ-JKFIT
	 Reference Energy          =    -244.7027226995502076 [Eh]
	 Singles Energy            =      -0.0000000000000000 [Eh]
	 Same-Spin Energy          =      -0.2527256845379976 [Eh]
	 Opposite-Spin Energy      =      -0.7540952476802807 [Eh]
	 Correlation Energy        =      -1.0068209322182784 [Eh]
	 Total Energy              =    -245.7095436317684971 [Eh]

	 ================> DF-SCS-MP2 Energies <==================
	-----------------------------------------------------------
	 SCS Same-Spin Scale       =       0.3333333333333333 [-]
	 SCS Opposite-Spin Scale   =       1.2000000000000000 [-]
	 SCS Same-Spin Energy      =      -0.0842418948459992 [Eh]
	 SCS Opposite-Spin Energy  =      -0.9049142972163368 [Eh]
	 SCS Correlation Energy    =      -0.9891561920623360 [Eh]
	 SCS Total Energy          =    -245.6918788916125322 [Eh]
	-----------------------------------------------------------

  Dipole Moment: [D]
     X:     0.6207      Y:    -1.2360      Z:     0.0001     Total:     1.3831

*** Psi4 exiting successfully. Buy a developer a beer!
