                               Psi4 1.3.2 release

  ==> Input File <==

--------------------------------------------------------------------------
#psi4
#
memory 32 gb

molecule  {
0 1
  O       -0.3732950    -1.0875170     0.0000230
  N       -0.3944950     1.1585740    -0.0000440
  C        1.0231908    -0.6251933     0.0000348
  C        0.9194130     0.7048960    -0.0000320
  C       -1.1010560     0.0631240     0.0000150
  H        1.6883170    -1.4215870     0.0000640
  H        1.7555780     1.3888440    -0.0000640
  H       -2.1757640    -0.0455290     0.0000210
units angstrom
no_reorient  #important for SAPT in psi4, default
symmetry c1  #important for SAPT in psi4, default
}

set PROPERTIES_ORIGIN ["COM"]
properties('MP2/aug-cc-pvtz', properties = ['dipole'])
--------------------------------------------------------------------------

    Molecular point group: c1
  Charge       = 0
  Multiplicity = 1
  Basis Set: AUG-CC-PVTZ
    Blend: AUG-CC-PVTZ
  Basis Set: (AUG-CC-PVTZ AUX)
    Blend: AUG-CC-PVTZ-JKFIT

    Orbital Energies [Eh]
    ---------------------

    Doubly Occupied:

       1A    -20.633753     2A    -15.572872     3A    -11.347167
       4A    -11.299640     5A    -11.274787     6A     -1.455029
       7A     -1.230654     8A     -1.040926     9A     -0.832729
      10A     -0.830497    11A     -0.746497    12A     -0.641530
      13A     -0.635175    14A     -0.599401    15A     -0.568364
      16A     -0.468683    17A     -0.455144    18A     -0.358998

  @DF-RHF Final Energy:  -244.71039853425430

   => Energetics <=

    Nuclear Repulsion Energy =            161.3650669554232309
    One-Electron Energy =                -652.1672414625843430
    Two-Electron Energy =                 246.0917759729068166
    Total Energy =                       -244.7103985342542956
  Basis Set: (AUG-CC-PVTZ AUX)
    Blend: AUG-CC-PVTZ-RI
    Molecular point group: c1

    Geometry (in Angstrom), charge = 0, multiplicity = 1:

       Center              X                  Y                   Z               Mass
    ------------   -----------------  -----------------  -----------------  -----------------
         O           -0.371580510623    -1.094237979147     0.000023195416    15.994914619570
         N           -0.392780510623     1.151853020853    -0.000043804584    14.003074004430
         C            1.024905289377    -0.631914279147     0.000034995416    12.000000000000
         C            0.921127489377     0.698175020853    -0.000031804584    12.000000000000
         C           -1.099341510623     0.056403020853     0.000015195416    12.000000000000
         H            1.690031489377    -1.428307979147     0.000064195416     1.007825032230
         H            1.757292489377     1.382123020853    -0.000063804584     1.007825032230
         H           -2.174049510623    -0.052249979147     0.000021195416     1.007825032230

  Basis Set: AUG-CC-PVTZ
    Blend: AUG-CC-PVTZ
  Basis Set: (AUG-CC-PVTZ AUX)
    Blend: AUG-CC-PVTZ-JKFIT
	 Reference Energy          =    -244.7103985342542956 [Eh]
	 Singles Energy            =      -0.0000000000000000 [Eh]
	 Same-Spin Energy          =      -0.2500386734137470 [Eh]
	 Opposite-Spin Energy      =      -0.7552429542534729 [Eh]
	 Correlation Energy        =      -1.0052816276672198 [Eh]
	 Total Energy              =    -245.7156801619215116 [Eh]

	 ================> DF-SCS-MP2 Energies <==================
	-----------------------------------------------------------
	 SCS Same-Spin Scale       =       0.3333333333333333 [-]
	 SCS Opposite-Spin Scale   =       1.2000000000000000 [-]
	 SCS Same-Spin Energy      =      -0.0833462244712490 [Eh]
	 SCS Opposite-Spin Energy  =      -0.9062915451041674 [Eh]
	 SCS Correlation Energy    =      -0.9896377695754164 [Eh]
	 SCS Total Energy          =    -245.7000363038297053 [Eh]
	-----------------------------------------------------------

  Dipole Moment: [D]
     X:     0.9087      Y:    -1.3238      Z:     0.0001     Total:     1.6056

*** Psi4 exiting successfully. Buy a developer a beer!
