                               Psi4 1.4a3.dev225

  ==> Input File <==

--------------------------------------------------------------------------
#psi4
#
memory 32 gb

molecule  {
0 1
  O       -0.3732950    -1.0875170     0.0000230
  N       -0.3944950     1.1585740    -0.0000440
  C        0.9282580    -0.6566220     0.0000340
  C        0.9666749     0.6885770    -0.0000316
  C       -1.1010560     0.0631240     0.0000150
  H        1.6883170    -1.4215870     0.0000640
  H        1.7555780     1.3888440    -0.0000640
  H       -2.1757640    -0.0455290     0.0000210
units angstrom
no_reorient  #important for SAPT in psi4, default
symmetry c1  #important for SAPT in psi4, default
}

set PROPERTIES_ORIGIN ["COM"]
properties('MP2/aug-cc-pvtz', properties = ['dipole'])
--------------------------------------------------------------------------

    Molecular point group: c1
  Charge       = 0
  Multiplicity = 1
  Basis Set: AUG-CC-PVTZ
    Blend: AUG-CC-PVTZ
  Basis Set: (AUG-CC-PVTZ AUX)
    Blend: AUG-CC-PVTZ-JKFIT

    Orbital Energies [Eh]
    ---------------------

    Doubly Occupied:

       1A    -20.645950     2A    -15.576398     3A    -11.342262
       4A    -11.302608     5A    -11.268772     6A     -1.486549
       7A     -1.222749     8A     -1.039434     9A     -0.847366
      10A     -0.817961    11A     -0.753876    12A     -0.659492
      13A     -0.629453    14A     -0.599007    15A     -0.584458
      16A     -0.464719    17A     -0.450834    18A     -0.354712

  @DF-RHF Final Energy:  -244.71825325612122

   => Energetics <=

    Nuclear Repulsion Energy =            162.1047520698317328
    One-Electron Energy =                -653.5528099129843440
    Two-Electron Energy =                 246.7298045870313672
    Total Energy =                       -244.7182532561212156
  Basis Set: (AUG-CC-PVTZ AUX)
    Blend: AUG-CC-PVTZ-RI
    Molecular point group: c1

    Geometry (in Angstrom), charge = 0, multiplicity = 1:

       Center              X                  Y                   Z               Mass
    ------------   -----------------  -----------------  -----------------  -----------------
         O           -0.363292497458    -1.085936613613     0.000023264960    15.994914619570
         N           -0.384492497458     1.160154386387    -0.000043735040    14.003074004430
         C            0.938260502542    -0.655041613613     0.000034264960    12.000000000000
         C            0.976677402542     0.690157386387    -0.000031335040    12.000000000000
         C           -1.091053497458     0.064704386387     0.000015264960    12.000000000000
         H            1.698319502542    -1.420006613613     0.000064264960     1.007825032230
         H            1.765580502542     1.390424386387    -0.000063735040     1.007825032230
         H           -2.165761497458    -0.043948613613     0.000021264960     1.007825032230

  Basis Set: AUG-CC-PVTZ
    Blend: AUG-CC-PVTZ
  Basis Set: (AUG-CC-PVTZ AUX)
    Blend: AUG-CC-PVTZ-JKFIT
	 Reference Energy          =    -244.7182532561212156 [Eh]
	 Singles Energy            =      -0.0000000000000000 [Eh]
	 Same-Spin Energy          =      -0.2498293392288120 [Eh]
	 Opposite-Spin Energy      =      -0.7542132811117755 [Eh]
	 Correlation Energy        =      -1.0040426203405874 [Eh]
	 Total Energy              =    -245.7222958764617999 [Eh]

	 ================> DF-SCS-MP2 Energies <==================
	-----------------------------------------------------------
	 SCS Same-Spin Scale       =       0.3333333333333333 [-]
	 SCS Opposite-Spin Scale   =       1.2000000000000000 [-]
	 SCS Same-Spin Energy      =      -0.0832764464096040 [Eh]
	 SCS Opposite-Spin Energy  =      -0.9050559373341306 [Eh]
	 SCS Correlation Energy    =      -0.9883323837437346 [Eh]
	 SCS Total Energy          =    -245.7065856398649544 [Eh]
	-----------------------------------------------------------

  Dipole Moment: [D]
     X:     0.8120      Y:    -1.4164      Z:     0.0001     Total:     1.6326

*** Psi4 exiting successfully. Buy a developer a beer!
