                               Psi4 1.4a3.dev225

  ==> Input File <==

--------------------------------------------------------------------------
#psi4
#
memory 32 gb

molecule  {
0 1
  O       -0.3732950    -1.0875170     0.0000230
  N       -0.3944950     1.1585740    -0.0000440
  C        0.9282580    -0.6566220     0.0000340
  C        0.9194130     0.7048960    -0.0000320
  C       -1.1010560     0.0631240     0.0000150
  H        1.6530756    -1.3861181     0.0000626
  H        1.7555780     1.3888440    -0.0000640
  H       -2.1757640    -0.0455290     0.0000210
units angstrom
no_reorient  #important for SAPT in psi4, default
symmetry c1  #important for SAPT in psi4, default
}

set PROPERTIES_ORIGIN ["COM"]
properties('MP2/aug-cc-pvtz', properties = ['dipole'])
--------------------------------------------------------------------------

    Molecular point group: c1
  Charge       = 0
  Multiplicity = 1
  Basis Set: AUG-CC-PVTZ
    Blend: AUG-CC-PVTZ
  Basis Set: (AUG-CC-PVTZ AUX)
    Blend: AUG-CC-PVTZ-JKFIT

    Orbital Energies [Eh]
    ---------------------

    Doubly Occupied:

       1A    -20.647355     2A    -15.575343     3A    -11.342682
       4A    -11.295884     5A    -11.269309     6A     -1.488217
       7A     -1.236045     8A     -1.036950     9A     -0.844766
      10A     -0.827996    11A     -0.757130    12A     -0.660488
      13A     -0.637951    14A     -0.597541    15A     -0.583884
      16A     -0.469314    17A     -0.458215    18A     -0.347442

  @DF-RHF Final Energy:  -244.71899619706005

   => Energetics <=

    Nuclear Repulsion Energy =            162.9110051003048056
    One-Electron Energy =                -655.1069760006512297
    Two-Electron Energy =                 247.4769747032863734
    Total Energy =                       -244.7189961970600507
  Basis Set: (AUG-CC-PVTZ AUX)
    Blend: AUG-CC-PVTZ-RI
    Molecular point group: c1

    Geometry (in Angstrom), charge = 0, multiplicity = 1:

       Center              X                  Y                   Z               Mass
    ------------   -----------------  -----------------  -----------------  -----------------
         O           -0.354561011155    -1.089291721326     0.000023354945    15.994914619570
         N           -0.375761011155     1.156799278674    -0.000043645055    14.003074004430
         C            0.946991988845    -0.658396721326     0.000034354945    12.000000000000
         C            0.938146988845     0.703121278674    -0.000031645055    12.000000000000
         C           -1.082322011155     0.061349278674     0.000015354945    12.000000000000
         H            1.671809588845    -1.387892821326     0.000062954945     1.007825032230
         H            1.774311988845     1.387069278674    -0.000063645055     1.007825032230
         H           -2.157030011155    -0.047303721326     0.000021354945     1.007825032230

  Basis Set: AUG-CC-PVTZ
    Blend: AUG-CC-PVTZ
  Basis Set: (AUG-CC-PVTZ AUX)
    Blend: AUG-CC-PVTZ-JKFIT
	 Reference Energy          =    -244.7189961970600507 [Eh]
	 Singles Energy            =      -0.0000000000000000 [Eh]
	 Same-Spin Energy          =      -0.2505079272429607 [Eh]
	 Opposite-Spin Energy      =      -0.7540595186952116 [Eh]
	 Correlation Energy        =      -1.0045674459381724 [Eh]
	 Total Energy              =    -245.7235636429982151 [Eh]

	 ================> DF-SCS-MP2 Energies <==================
	-----------------------------------------------------------
	 SCS Same-Spin Scale       =       0.3333333333333333 [-]
	 SCS Opposite-Spin Scale   =       1.2000000000000000 [-]
	 SCS Same-Spin Energy      =      -0.0835026424143202 [Eh]
	 SCS Opposite-Spin Energy  =      -0.9048714224342539 [Eh]
	 SCS Correlation Energy    =      -0.9883740648485742 [Eh]
	 SCS Total Energy          =    -245.7073702619086362 [Eh]
	-----------------------------------------------------------

  Dipole Moment: [D]
     X:     0.7791      Y:    -1.4083      Z:     0.0001     Total:     1.6094

*** Psi4 exiting successfully. Buy a developer a beer!
