                               Psi4 1.3.2 release

  ==> Input File <==

--------------------------------------------------------------------------
#psi4
#
memory 32 gb

molecule  {
0 1
  O       -0.3732950    -1.0875170     0.0000230
  N       -0.3944950     1.1585740    -0.0000440
  C        0.9661687    -0.7950318     0.0000345
  C        0.9194130     0.7048960    -0.0000320
  C       -1.1010560     0.0631240     0.0000150
  H        1.6883170    -1.4215870     0.0000640
  H        1.7555780     1.3888440    -0.0000640
  H       -2.1757640    -0.0455290     0.0000210
units angstrom
no_reorient  #important for SAPT in psi4, default
symmetry c1  #important for SAPT in psi4, default
}

set PROPERTIES_ORIGIN ["COM"]
properties('MP2/aug-cc-pvtz', properties = ['dipole'])
--------------------------------------------------------------------------

    Molecular point group: c1
  Charge       = 0
  Multiplicity = 1
  Basis Set: AUG-CC-PVTZ
    Blend: AUG-CC-PVTZ
  Basis Set: (AUG-CC-PVTZ AUX)
    Blend: AUG-CC-PVTZ-JKFIT

    Orbital Energies [Eh]
    ---------------------

    Doubly Occupied:

       1A    -20.651761     2A    -15.581324     3A    -11.345279
       4A    -11.309256     5A    -11.288054     6A     -1.483823
       7A     -1.235722     8A     -1.023787     9A     -0.852659
      10A     -0.825147    11A     -0.755085    12A     -0.673813
      13A     -0.656578    14A     -0.597102    15A     -0.553388
      16A     -0.472051    17A     -0.458045    18A     -0.326331

  @DF-RHF Final Energy:  -244.68077783992169

   => Energetics <=

    Nuclear Repulsion Energy =            160.7540006311377851
    One-Electron Energy =                -650.6911439547770897
    Two-Electron Energy =                 245.2563654837176159
    Total Energy =                       -244.6807778399216886
  Basis Set: (AUG-CC-PVTZ AUX)
    Blend: AUG-CC-PVTZ-RI
    Molecular point group: c1

    Geometry (in Angstrom), charge = 0, multiplicity = 1:

       Center              X                  Y                   Z               Mass
    ------------   -----------------  -----------------  -----------------  -----------------
         O           -0.361666707537    -1.064710033923     0.000023247574    15.994914619570
         N           -0.382866707537     1.181380966077    -0.000043752426    14.003074004430
         C            0.977796992463    -0.772224833923     0.000034747574    12.000000000000
         C            0.931041292463     0.727702966077    -0.000031752426    12.000000000000
         C           -1.089427707537     0.085930966077     0.000015247574    12.000000000000
         H            1.699945292463    -1.398780033923     0.000064247574     1.007825032230
         H            1.767206292463     1.411650966077    -0.000063752426     1.007825032230
         H           -2.164135707537    -0.022722033923     0.000021247574     1.007825032230

  Basis Set: AUG-CC-PVTZ
    Blend: AUG-CC-PVTZ
  Basis Set: (AUG-CC-PVTZ AUX)
    Blend: AUG-CC-PVTZ-JKFIT
	 Reference Energy          =    -244.6807778399216886 [Eh]
	 Singles Energy            =      -0.0000000000000000 [Eh]
	 Same-Spin Energy          =      -0.2531930339895993 [Eh]
	 Opposite-Spin Energy      =      -0.7595711547232046 [Eh]
	 Correlation Energy        =      -1.0127641887128038 [Eh]
	 Total Energy              =    -245.6935420286344822 [Eh]

	 ================> DF-SCS-MP2 Energies <==================
	-----------------------------------------------------------
	 SCS Same-Spin Scale       =       0.3333333333333333 [-]
	 SCS Opposite-Spin Scale   =       1.2000000000000000 [-]
	 SCS Same-Spin Energy      =      -0.0843976779965331 [Eh]
	 SCS Opposite-Spin Energy  =      -0.9114853856678454 [Eh]
	 SCS Correlation Energy    =      -0.9958830636643785 [Eh]
	 SCS Total Energy          =    -245.6766609035860540 [Eh]
	-----------------------------------------------------------

  Dipole Moment: [D]
     X:     0.7163      Y:    -1.5127      Z:     0.0001     Total:     1.6737

*** Psi4 exiting successfully. Buy a developer a beer!
