                               Psi4 1.3.2 release

  ==> Input File <==

--------------------------------------------------------------------------
#psi4
#
memory 32 gb

molecule  {
0 1
  O       -0.3875401    -1.0418310     0.0000217
  N       -0.3944950     1.1585740    -0.0000440
  C        0.9282580    -0.6566220     0.0000340
  C        0.9194130     0.7048960    -0.0000320
  C       -1.1010560     0.0631240     0.0000150
  H        1.6883170    -1.4215870     0.0000640
  H        1.7555780     1.3888440    -0.0000640
  H       -2.1757640    -0.0455290     0.0000210
units angstrom
no_reorient  #important for SAPT in psi4, default
symmetry c1  #important for SAPT in psi4, default
}

set PROPERTIES_ORIGIN ["COM"]
properties('MP2/aug-cc-pvtz', properties = ['dipole'])
--------------------------------------------------------------------------

    Molecular point group: c1
  Charge       = 0
  Multiplicity = 1
  Basis Set: AUG-CC-PVTZ
    Blend: AUG-CC-PVTZ
  Basis Set: (AUG-CC-PVTZ AUX)
    Blend: AUG-CC-PVTZ-JKFIT

    Orbital Energies [Eh]
    ---------------------

    Doubly Occupied:

       1A    -20.648254     2A    -15.568582     3A    -11.338548
       4A    -11.299823     5A    -11.269289     6A     -1.506002
       7A     -1.231269     8A     -1.041815     9A     -0.849610
      10A     -0.820739    11A     -0.759119    12A     -0.670428
      13A     -0.638624    14A     -0.596201    15A     -0.579376
      16A     -0.464588    17A     -0.453620    18A     -0.348771

  @DF-RHF Final Energy:  -244.72139218567580

   => Energetics <=

    Nuclear Repulsion Energy =            163.7658296044535007
    One-Electron Energy =                -656.8051296516695174
    Two-Electron Energy =                 248.3179078615401920
    Total Energy =                       -244.7213921856757963
  Basis Set: (AUG-CC-PVTZ AUX)
    Blend: AUG-CC-PVTZ-RI
    Molecular point group: c1

    Geometry (in Angstrom), charge = 0, multiplicity = 1:

       Center              X                  Y                   Z               Mass
    ------------   -----------------  -----------------  -----------------  -----------------
         O           -0.366019557773    -1.053675012624     0.000022335763    15.994914619570
         N           -0.372974457773     1.146729987376    -0.000043364237    14.003074004430
         C            0.949778542227    -0.668466012624     0.000034635763    12.000000000000
         C            0.940933542227     0.693051987376    -0.000031364237    12.000000000000
         C           -1.079535457773     0.051279987376     0.000015635763    12.000000000000
         H            1.709837542227    -1.433431012624     0.000064635763     1.007825032230
         H            1.777098542227     1.376999987376    -0.000063364237     1.007825032230
         H           -2.154243457773    -0.057373012624     0.000021635763     1.007825032230

  Basis Set: AUG-CC-PVTZ
    Blend: AUG-CC-PVTZ
  Basis Set: (AUG-CC-PVTZ AUX)
    Blend: AUG-CC-PVTZ-JKFIT
	 Reference Energy          =    -244.7213921856757963 [Eh]
	 Singles Energy            =      -0.0000000000000000 [Eh]
	 Same-Spin Energy          =      -0.2501255282510599 [Eh]
	 Opposite-Spin Energy      =      -0.7522610196239045 [Eh]
	 Correlation Energy        =      -1.0023865478749645 [Eh]
	 Total Energy              =    -245.7237787335507733 [Eh]

	 ================> DF-SCS-MP2 Energies <==================
	-----------------------------------------------------------
	 SCS Same-Spin Scale       =       0.3333333333333333 [-]
	 SCS Opposite-Spin Scale   =       1.2000000000000000 [-]
	 SCS Same-Spin Energy      =      -0.0833751760836866 [Eh]
	 SCS Opposite-Spin Energy  =      -0.9027132235486853 [Eh]
	 SCS Correlation Energy    =      -0.9860883996323719 [Eh]
	 SCS Total Energy          =    -245.7074805853081614 [Eh]
	-----------------------------------------------------------

  Dipole Moment: [D]
     X:     0.8080      Y:    -1.5865      Z:     0.0001     Total:     1.7804

*** Psi4 exiting successfully. Buy a developer a beer!
