                               Psi4 1.3.2 release

  ==> Input File <==

--------------------------------------------------------------------------
#psi4
#
memory 32 gb

molecule  {
0 1
  O       -0.3533244    -1.0746406     0.0000228
  N       -0.3944950     1.1585740    -0.0000440
  C        0.9282580    -0.6566220     0.0000340
  C        0.9194130     0.7048960    -0.0000320
  C       -1.1010560     0.0631240     0.0000150
  H        1.6883170    -1.4215870     0.0000640
  H        1.7555780     1.3888440    -0.0000640
  H       -2.1757640    -0.0455290     0.0000210
units angstrom
no_reorient  #important for SAPT in psi4, default
symmetry c1  #important for SAPT in psi4, default
}

set PROPERTIES_ORIGIN ["COM"]
properties('MP2/aug-cc-pvtz', properties = ['dipole'])
--------------------------------------------------------------------------

    Molecular point group: c1
  Charge       = 0
  Multiplicity = 1
  Basis Set: AUG-CC-PVTZ
    Blend: AUG-CC-PVTZ
  Basis Set: (AUG-CC-PVTZ AUX)
    Blend: AUG-CC-PVTZ-JKFIT

    Orbital Energies [Eh]
    ---------------------

    Doubly Occupied:

       1A    -20.647780     2A    -15.575534     3A    -11.341593
       4A    -11.300021     5A    -11.266626     6A     -1.496094
       7A     -1.235633     8A     -1.036416     9A     -0.846776
      10A     -0.822812    11A     -0.756405    12A     -0.664872
      13A     -0.634903    14A     -0.596876    15A     -0.579724
      16A     -0.469186    17A     -0.457656    18A     -0.346057

  @DF-RHF Final Energy:  -244.72041491245292

   => Energetics <=

    Nuclear Repulsion Energy =            163.1853955902030009
    One-Electron Energy =                -655.6616930240197689
    Two-Electron Energy =                 247.7558825213638158
    Total Energy =                       -244.7204149124529238
  Basis Set: (AUG-CC-PVTZ AUX)
    Blend: AUG-CC-PVTZ-RI
    Molecular point group: c1

    Geometry (in Angstrom), charge = 0, multiplicity = 1:

       Center              X                  Y                   Z               Mass
    ------------   -----------------  -----------------  -----------------  -----------------
         O           -0.339732944909    -1.078881372670     0.000023180851    15.994914619570
         N           -0.380903544909     1.154333227330    -0.000043619149    14.003074004430
         C            0.941849455091    -0.660862772670     0.000034380851    12.000000000000
         C            0.933004455091     0.700655227330    -0.000031619149    12.000000000000
         C           -1.087464544909     0.058883227330     0.000015380851    12.000000000000
         H            1.701908455091    -1.425827772670     0.000064380851     1.007825032230
         H            1.769169455091     1.384603227330    -0.000063619149     1.007825032230
         H           -2.162172544909    -0.049769772670     0.000021380851     1.007825032230

  Basis Set: AUG-CC-PVTZ
    Blend: AUG-CC-PVTZ
  Basis Set: (AUG-CC-PVTZ AUX)
    Blend: AUG-CC-PVTZ-JKFIT
	 Reference Energy          =    -244.7204149124529238 [Eh]
	 Singles Energy            =      -0.0000000000000000 [Eh]
	 Same-Spin Energy          =      -0.2506374136350006 [Eh]
	 Opposite-Spin Energy      =      -0.7536990193546664 [Eh]
	 Correlation Energy        =      -1.0043364329896671 [Eh]
	 Total Energy              =    -245.7247513454425984 [Eh]

	 ================> DF-SCS-MP2 Energies <==================
	-----------------------------------------------------------
	 SCS Same-Spin Scale       =       0.3333333333333333 [-]
	 SCS Opposite-Spin Scale   =       1.2000000000000000 [-]
	 SCS Same-Spin Energy      =      -0.0835458045450002 [Eh]
	 SCS Opposite-Spin Energy  =      -0.9044388232255997 [Eh]
	 SCS Correlation Energy    =      -0.9879846277705999 [Eh]
	 SCS Total Energy          =    -245.7083995402235246 [Eh]
	-----------------------------------------------------------

  Dipole Moment: [D]
     X:     0.7394      Y:    -1.4782      Z:     0.0001     Total:     1.6528

*** Psi4 exiting successfully. Buy a developer a beer!
