                               Psi4 1.3.2 release

  ==> Input File <==

--------------------------------------------------------------------------
#psi4
#
memory 32 gb

molecule  {
0 1
  O       -0.3732950    -1.0875170     0.0000230
  N       -0.3944950     1.1585740    -0.0000440
  C        0.9282580    -0.6566220     0.0000340
  C        0.9194130     0.7048960    -0.0000320
  C       -1.0476021    -0.0213904     0.0000156
  H        1.6883170    -1.4215870     0.0000640
  H        1.7555780     1.3888440    -0.0000640
  H       -2.1757640    -0.0455290     0.0000210
units angstrom
no_reorient  #important for SAPT in psi4, default
symmetry c1  #important for SAPT in psi4, default
}

set PROPERTIES_ORIGIN ["COM"]
properties('MP2/aug-cc-pvtz', properties = ['dipole'])
--------------------------------------------------------------------------

    Molecular point group: c1
  Charge       = 0
  Multiplicity = 1
  Basis Set: AUG-CC-PVTZ
    Blend: AUG-CC-PVTZ
  Basis Set: (AUG-CC-PVTZ AUX)
    Blend: AUG-CC-PVTZ-JKFIT

    Orbital Energies [Eh]
    ---------------------

    Doubly Occupied:

       1A    -20.665268     2A    -15.570207     3A    -11.347184
       4A    -11.296557     5A    -11.272402     6A     -1.537461
       7A     -1.226989     8A     -1.040811     9A     -0.859036
      10A     -0.815988    11A     -0.765916    12A     -0.688379
      13A     -0.635638    14A     -0.600404    15A     -0.565551
      16A     -0.469831    17A     -0.453394    18A     -0.344604

  @DF-RHF Final Energy:  -244.70955303423594

   => Energetics <=

    Nuclear Repulsion Energy =            163.9085769468678393
    One-Electron Energy =                -656.9250216724421989
    Two-Electron Energy =                 248.3068916913384498
    Total Energy =                       -244.7095530342359382
  Basis Set: (AUG-CC-PVTZ AUX)
    Blend: AUG-CC-PVTZ-RI
    Molecular point group: c1

    Geometry (in Angstrom), charge = 0, multiplicity = 1:

       Center              X                  Y                   Z               Mass
    ------------   -----------------  -----------------  -----------------  -----------------
         O           -0.364369032147    -1.074080232194     0.000023230188    15.994914619570
         N           -0.385569032147     1.172010767806    -0.000043769812    14.003074004430
         C            0.937183967853    -0.643185232194     0.000034230188    12.000000000000
         C            0.928338967853     0.718332767806    -0.000031769812    12.000000000000
         C           -1.038676132147    -0.007953632194     0.000015830188    12.000000000000
         H            1.697242967853    -1.408150232194     0.000064230188     1.007825032230
         H            1.764503967853     1.402280767806    -0.000063769812     1.007825032230
         H           -2.166838032147    -0.032092232194     0.000021230188     1.007825032230

  Basis Set: AUG-CC-PVTZ
    Blend: AUG-CC-PVTZ
  Basis Set: (AUG-CC-PVTZ AUX)
    Blend: AUG-CC-PVTZ-JKFIT
	 Reference Energy          =    -244.7095530342359382 [Eh]
	 Singles Energy            =      -0.0000000000000000 [Eh]
	 Same-Spin Energy          =      -0.2507704661434308 [Eh]
	 Opposite-Spin Energy      =      -0.7531628920875992 [Eh]
	 Correlation Energy        =      -1.0039333582310301 [Eh]
	 Total Energy              =    -245.7134863924669617 [Eh]

	 ================> DF-SCS-MP2 Energies <==================
	-----------------------------------------------------------
	 SCS Same-Spin Scale       =       0.3333333333333333 [-]
	 SCS Opposite-Spin Scale   =       1.2000000000000000 [-]
	 SCS Same-Spin Energy      =      -0.0835901553811436 [Eh]
	 SCS Opposite-Spin Energy  =      -0.9037954705051190 [Eh]
	 SCS Correlation Energy    =      -0.9873856258862626 [Eh]
	 SCS Total Energy          =    -245.6969386601222141 [Eh]
	-----------------------------------------------------------

  Dipole Moment: [D]
     X:     0.8939      Y:    -1.7013      Z:     0.0001     Total:     1.9219

*** Psi4 exiting successfully. Buy a developer a beer!
