                               Psi4 1.4a3.dev225

  ==> Input File <==

--------------------------------------------------------------------------
#psi4
#
memory 32 gb

molecule  {
0 1
  O       -0.3732950    -1.0875170     0.0000230
  N       -0.3944950     1.1585740    -0.0000440
  C        0.9282580    -0.6566220     0.0000340
  C        0.9194130     0.7048960    -0.0000320
  C       -1.1010560     0.0631240     0.0000150
  H        1.6742204    -1.4073994     0.0000634
  H        1.7555780     1.3888440    -0.0000640
  H       -2.1757640    -0.0455290     0.0000210
units angstrom
no_reorient  #important for SAPT in psi4, default
symmetry c1  #important for SAPT in psi4, default
}

set PROPERTIES_ORIGIN ["COM"]
properties('MP2/aug-cc-pvtz', properties = ['dipole'])
--------------------------------------------------------------------------

    Molecular point group: c1
  Charge       = 0
  Multiplicity = 1
  Basis Set: AUG-CC-PVTZ
    Blend: AUG-CC-PVTZ
  Basis Set: (AUG-CC-PVTZ AUX)
    Blend: AUG-CC-PVTZ-JKFIT

    Orbital Energies [Eh]
    ---------------------

    Doubly Occupied:

       1A    -20.647549     2A    -15.575449     3A    -11.342715
       4A    -11.299159     5A    -11.269336     6A     -1.488350
       7A     -1.236111     8A     -1.035611     9A     -0.843879
      10A     -0.825674    11A     -0.755154    12A     -0.660603
      13A     -0.633344    14A     -0.597521    15A     -0.583334
      16A     -0.469286    17A     -0.458301    18A     -0.347406

  @DF-RHF Final Energy:  -244.72000738806912

   => Energetics <=

    Nuclear Repulsion Energy =            162.7602980144117453
    One-Electron Energy =                -654.8230446067777848
    Two-Electron Energy =                 247.3427392042968904
    Total Energy =                       -244.7200073880691207
  Basis Set: (AUG-CC-PVTZ AUX)
    Blend: AUG-CC-PVTZ-RI
    Molecular point group: c1

    Geometry (in Angstrom), charge = 0, multiplicity = 1:

       Center              X                  Y                   Z               Mass
    ------------   -----------------  -----------------  -----------------  -----------------
         O           -0.354869759442    -1.088980979918     0.000023343264    15.994914619570
         N           -0.376069759442     1.157110020082    -0.000043656736    14.003074004430
         C            0.946683240558    -0.658085979918     0.000034343264    12.000000000000
         C            0.937838240558     0.703432020082    -0.000031656736    12.000000000000
         C           -1.082630759442     0.061660020082     0.000015343264    12.000000000000
         H            1.692645640558    -1.408863379918     0.000063743264     1.007825032230
         H            1.774003240558     1.387380020082    -0.000063656736     1.007825032230
         H           -2.157338759442    -0.046992979918     0.000021343264     1.007825032230

  Basis Set: AUG-CC-PVTZ
    Blend: AUG-CC-PVTZ
  Basis Set: (AUG-CC-PVTZ AUX)
    Blend: AUG-CC-PVTZ-JKFIT
	 Reference Energy          =    -244.7200073880691207 [Eh]
	 Singles Energy            =      -0.0000000000000000 [Eh]
	 Same-Spin Energy          =      -0.2505606379118639 [Eh]
	 Opposite-Spin Energy      =      -0.7542004303672345 [Eh]
	 Correlation Energy        =      -1.0047610682790984 [Eh]
	 Total Energy              =    -245.7247684563482153 [Eh]

	 ================> DF-SCS-MP2 Energies <==================
	-----------------------------------------------------------
	 SCS Same-Spin Scale       =       0.3333333333333333 [-]
	 SCS Opposite-Spin Scale   =       1.2000000000000000 [-]
	 SCS Same-Spin Energy      =      -0.0835202126372880 [Eh]
	 SCS Opposite-Spin Energy  =      -0.9050405164406814 [Eh]
	 SCS Correlation Energy    =      -0.9885607290779693 [Eh]
	 SCS Total Energy          =    -245.7085681171470810 [Eh]
	-----------------------------------------------------------

  Dipole Moment: [D]
     X:     0.7827      Y:    -1.4153      Z:     0.0001     Total:     1.6174

*** Psi4 exiting successfully. Buy a developer a beer!
