                               Psi4 1.3.2 release

  ==> Input File <==

--------------------------------------------------------------------------
#psi4
#
memory 32 gb

molecule  {
0 1
  O       -0.3732950    -1.0875170     0.0000230
  N       -0.3944950     1.1585740    -0.0000440
  C        0.9425031    -0.7023080     0.0000342
  C        0.9194130     0.7048960    -0.0000320
  C       -1.1010560     0.0631240     0.0000150
  H        1.6883170    -1.4215870     0.0000640
  H        1.7555780     1.3888440    -0.0000640
  H       -2.1757640    -0.0455290     0.0000210
units angstrom
no_reorient  #important for SAPT in psi4, default
symmetry c1  #important for SAPT in psi4, default
}

set PROPERTIES_ORIGIN ["COM"]
properties('MP2/aug-cc-pvtz', properties = ['dipole'])
--------------------------------------------------------------------------

    Molecular point group: c1
  Charge       = 0
  Multiplicity = 1
  Basis Set: AUG-CC-PVTZ
    Blend: AUG-CC-PVTZ
  Basis Set: (AUG-CC-PVTZ AUX)
    Blend: AUG-CC-PVTZ-JKFIT

    Orbital Energies [Eh]
    ---------------------

    Doubly Occupied:

       1A    -20.648789     2A    -15.577244     3A    -11.343375
       4A    -11.304025     5A    -11.275935     6A     -1.486650
       7A     -1.235397     8A     -1.029965     9A     -0.843152
      10A     -0.826224    11A     -0.754802    12A     -0.658965
      13A     -0.646082    14A     -0.597241    15A     -0.573467
      16A     -0.470561    17A     -0.457730    18A     -0.340059

  @DF-RHF Final Energy:  -244.71411513116229

   => Energetics <=

    Nuclear Repulsion Energy =            161.9825740648574026
    One-Electron Energy =                -653.2540474838276623
    Two-Electron Energy =                 246.5573582878079435
    Total Energy =                       -244.7141151311622878
  Basis Set: (AUG-CC-PVTZ AUX)
    Blend: AUG-CC-PVTZ-RI
    Molecular point group: c1

    Geometry (in Angstrom), charge = 0, multiplicity = 1:

       Center              X                  Y                   Z               Mass
    ------------   -----------------  -----------------  -----------------  -----------------
         O           -0.357552230899    -1.080830897493     0.000023299731    15.994914619570
         N           -0.378752230899     1.165260102507    -0.000043700269    14.003074004430
         C            0.958245869101    -0.695621897493     0.000034499731    12.000000000000
         C            0.935155769101     0.711582102507    -0.000031700269    12.000000000000
         C           -1.085313230899     0.069810102507     0.000015299731    12.000000000000
         H            1.704059769101    -1.414900897493     0.000064299731     1.007825032230
         H            1.771320769101     1.395530102507    -0.000063700269     1.007825032230
         H           -2.160021230899    -0.038842897493     0.000021299731     1.007825032230

  Basis Set: AUG-CC-PVTZ
    Blend: AUG-CC-PVTZ
  Basis Set: (AUG-CC-PVTZ AUX)
    Blend: AUG-CC-PVTZ-JKFIT
	 Reference Energy          =    -244.7141151311622878 [Eh]
	 Singles Energy            =      -0.0000000000000000 [Eh]
	 Same-Spin Energy          =      -0.2512907063837655 [Eh]
	 Opposite-Spin Energy      =      -0.7556521751698813 [Eh]
	 Correlation Energy        =      -1.0069428815536468 [Eh]
	 Total Energy              =    -245.7210580127159290 [Eh]

	 ================> DF-SCS-MP2 Energies <==================
	-----------------------------------------------------------
	 SCS Same-Spin Scale       =       0.3333333333333333 [-]
	 SCS Opposite-Spin Scale   =       1.2000000000000000 [-]
	 SCS Same-Spin Energy      =      -0.0837635687945885 [Eh]
	 SCS Opposite-Spin Energy  =      -0.9067826102038574 [Eh]
	 SCS Correlation Energy    =      -0.9905461789984459 [Eh]
	 SCS Total Energy          =    -245.7046613101607306 [Eh]
	-----------------------------------------------------------

  Dipole Moment: [D]
     X:     0.7712      Y:    -1.4585      Z:     0.0001     Total:     1.6498

*** Psi4 exiting successfully. Buy a developer a beer!
