                               Psi4 1.3.2 release

  ==> Input File <==

--------------------------------------------------------------------------
#psi4
#
memory 32 gb

molecule  {
0 1
  O       -0.3732950    -1.0875170     0.0000230
  N       -0.3944950     1.1585740    -0.0000440
  C        0.9282580    -0.6566220     0.0000340
  C        0.9187634     0.8048939    -0.0000368
  C       -1.1010560     0.0631240     0.0000150
  H        1.6883170    -1.4215870     0.0000640
  H        1.7555780     1.3888440    -0.0000640
  H       -2.1757640    -0.0455290     0.0000210
units angstrom
no_reorient  #important for SAPT in psi4, default
symmetry c1  #important for SAPT in psi4, default
}

set PROPERTIES_ORIGIN ["COM"]
properties('MP2/aug-cc-pvtz', properties = ['dipole'])
--------------------------------------------------------------------------

    Molecular point group: c1
  Charge       = 0
  Multiplicity = 1
  Basis Set: AUG-CC-PVTZ
    Blend: AUG-CC-PVTZ
  Basis Set: (AUG-CC-PVTZ AUX)
    Blend: AUG-CC-PVTZ-JKFIT

    Orbital Energies [Eh]
    ---------------------

    Doubly Occupied:

       1A    -20.655524     2A    -15.576234     3A    -11.340695
       4A    -11.313476     5A    -11.277550     6A     -1.488681
       7A     -1.242294     8A     -1.021503     9A     -0.852061
      10A     -0.820815    11A     -0.754629    12A     -0.659052
      13A     -0.645790    14A     -0.614909    15A     -0.575362
      16A     -0.463723    17A     -0.459711    18A     -0.328442

  @DF-RHF Final Energy:  -244.70191236129276

   => Energetics <=

    Nuclear Repulsion Energy =            161.6252901876165708
    One-Electron Energy =                -652.4734971585079393
    Two-Electron Energy =                 246.1462946095986410
    Total Energy =                       -244.7019123612927558
  Basis Set: (AUG-CC-PVTZ AUX)
    Blend: AUG-CC-PVTZ-RI
    Molecular point group: c1

    Geometry (in Angstrom), charge = 0, multiplicity = 1:

       Center              X                  Y                   Z               Mass
    ------------   -----------------  -----------------  -----------------  -----------------
         O           -0.354962653826    -1.106159349046     0.000024169026    15.994914619570
         N           -0.376162653826     1.139931650954    -0.000042830974    14.003074004430
         C            0.946590346174    -0.675264349046     0.000035169026    12.000000000000
         C            0.937095746174     0.786251550954    -0.000035630974    12.000000000000
         C           -1.082723653826     0.044481650954     0.000016169026    12.000000000000
         H            1.706649346174    -1.440229349046     0.000065169026     1.007825032230
         H            1.773910346174     1.370201650954    -0.000062830974     1.007825032230
         H           -2.157431653826    -0.064171349046     0.000022169026     1.007825032230

  Basis Set: AUG-CC-PVTZ
    Blend: AUG-CC-PVTZ
  Basis Set: (AUG-CC-PVTZ AUX)
    Blend: AUG-CC-PVTZ-JKFIT
	 Reference Energy          =    -244.7019123612927558 [Eh]
	 Singles Energy            =      -0.0000000000000000 [Eh]
	 Same-Spin Energy          =      -0.2528822436355821 [Eh]
	 Opposite-Spin Energy      =      -0.7580072908713450 [Eh]
	 Correlation Energy        =      -1.0108895345069271 [Eh]
	 Total Energy              =    -245.7128018957996858 [Eh]

	 ================> DF-SCS-MP2 Energies <==================
	-----------------------------------------------------------
	 SCS Same-Spin Scale       =       0.3333333333333333 [-]
	 SCS Opposite-Spin Scale   =       1.2000000000000000 [-]
	 SCS Same-Spin Energy      =      -0.0842940812118607 [Eh]
	 SCS Opposite-Spin Energy  =      -0.9096087490456140 [Eh]
	 SCS Correlation Energy    =      -0.9939028302574746 [Eh]
	 SCS Total Energy          =    -245.6958151915502242 [Eh]
	-----------------------------------------------------------

  Dipole Moment: [D]
     X:     0.8140      Y:    -1.3653      Z:     0.0001     Total:     1.5896

*** Psi4 exiting successfully. Buy a developer a beer!
