                               Psi4 1.4a3.dev225

  ==> Input File <==

--------------------------------------------------------------------------
#psi4
#
memory 32 gb

molecule  {
0 1
  O       -0.3732950    -1.0875170     0.0000230
  N       -0.3944950     1.1585740    -0.0000440
  C        0.8807916    -0.6723363     0.0000336
  C        0.9194130     0.7048960    -0.0000320
  C       -1.1010560     0.0631240     0.0000150
  H        1.6883170    -1.4215870     0.0000640
  H        1.7555780     1.3888440    -0.0000640
  H       -2.1757640    -0.0455290     0.0000210
units angstrom
no_reorient  #important for SAPT in psi4, default
symmetry c1  #important for SAPT in psi4, default
}

set PROPERTIES_ORIGIN ["COM"]
properties('MP2/aug-cc-pvtz', properties = ['dipole'])
--------------------------------------------------------------------------

    Molecular point group: c1
  Charge       = 0
  Multiplicity = 1
  Basis Set: AUG-CC-PVTZ
    Blend: AUG-CC-PVTZ
  Basis Set: (AUG-CC-PVTZ AUX)
    Blend: AUG-CC-PVTZ-JKFIT

    Orbital Energies [Eh]
    ---------------------

    Doubly Occupied:

       1A    -20.654608     2A    -15.577104     3A    -11.339909
       4A    -11.303777     5A    -11.266854     6A     -1.509060
       7A     -1.239171     8A     -1.032614     9A     -0.851382
      10A     -0.820547    11A     -0.758687    12A     -0.672278
      13A     -0.635198    14A     -0.596207    15A     -0.579773
      16A     -0.469115    17A     -0.460395    18A     -0.340993

  @DF-RHF Final Energy:  -244.71751404839719

   => Energetics <=

    Nuclear Repulsion Energy =            163.3602240294214312
    One-Electron Energy =                -655.9401364849472884
    Two-Electron Energy =                 247.8623984071286657
    Total Energy =                       -244.7175140483971916
  Basis Set: (AUG-CC-PVTZ AUX)
    Blend: AUG-CC-PVTZ-RI
    Molecular point group: c1

    Geometry (in Angstrom), charge = 0, multiplicity = 1:

       Center              X                  Y                   Z               Mass
    ------------   -----------------  -----------------  -----------------  -----------------
         O           -0.346823133600    -1.086041746127     0.000023404047    15.994914619570
         N           -0.368023133600     1.160049253873    -0.000043595953    14.003074004430
         C            0.907263466400    -0.670861046127     0.000034004047    12.000000000000
         C            0.945884866400     0.706371253873    -0.000031595953    12.000000000000
         C           -1.074584133600     0.064599253873     0.000015404047    12.000000000000
         H            1.714788866400    -1.420111746127     0.000064404047     1.007825032230
         H            1.782049866400     1.390319253873    -0.000063595953     1.007825032230
         H           -2.149292133600    -0.044053746127     0.000021404047     1.007825032230

  Basis Set: AUG-CC-PVTZ
    Blend: AUG-CC-PVTZ
  Basis Set: (AUG-CC-PVTZ AUX)
    Blend: AUG-CC-PVTZ-JKFIT
	 Reference Energy          =    -244.7175140483971916 [Eh]
	 Singles Energy            =      -0.0000000000000000 [Eh]
	 Same-Spin Energy          =      -0.2510444697032466 [Eh]
	 Opposite-Spin Energy      =      -0.7540652224814330 [Eh]
	 Correlation Energy        =      -1.0051096921846796 [Eh]
	 Total Energy              =    -245.7226237405818665 [Eh]

	 ================> DF-SCS-MP2 Energies <==================
	-----------------------------------------------------------
	 SCS Same-Spin Scale       =       0.3333333333333333 [-]
	 SCS Opposite-Spin Scale   =       1.2000000000000000 [-]
	 SCS Same-Spin Energy      =      -0.0836814899010822 [Eh]
	 SCS Opposite-Spin Energy  =      -0.9048782669777196 [Eh]
	 SCS Correlation Energy    =      -0.9885597568788017 [Eh]
	 SCS Total Energy          =    -245.7060738052759916 [Eh]
	-----------------------------------------------------------

  Dipole Moment: [D]
     X:     0.7209      Y:    -1.4751      Z:     0.0001     Total:     1.6418

*** Psi4 exiting successfully. Buy a developer a beer!
