                               Psi4 1.4a3.dev225

  ==> Input File <==

--------------------------------------------------------------------------
#psi4
#
memory 32 gb

molecule  {
0 1
  O       -0.3732950    -1.0875170     0.0000230
  N       -0.3944950     1.1585740    -0.0000440
  C        0.9282580    -0.6566220     0.0000340
  C        0.9194130     0.7048960    -0.0000320
  C       -1.1010560     0.0631240     0.0000150
  H        1.6883170    -1.4215870     0.0000640
  H        1.7168759     1.3571873    -0.0000625
  H       -2.1757640    -0.0455290     0.0000210
units angstrom
no_reorient  #important for SAPT in psi4, default
symmetry c1  #important for SAPT in psi4, default
}

set PROPERTIES_ORIGIN ["COM"]
properties('MP2/aug-cc-pvtz', properties = ['dipole'])
--------------------------------------------------------------------------

    Molecular point group: c1
  Charge       = 0
  Multiplicity = 1
  Basis Set: AUG-CC-PVTZ
    Blend: AUG-CC-PVTZ
  Basis Set: (AUG-CC-PVTZ AUX)
    Blend: AUG-CC-PVTZ-JKFIT

    Orbital Energies [Eh]
    ---------------------

    Doubly Occupied:

       1A    -20.647483     2A    -15.575120     3A    -11.342441
       4A    -11.301164     5A    -11.263813     6A     -1.488220
       7A     -1.236061     8A     -1.036037     9A     -0.847681
      10A     -0.824828    11A     -0.757124    12A     -0.660466
      13A     -0.631906    14A     -0.603085    15A     -0.584616
      16A     -0.469193    17A     -0.458138    18A     -0.347300

  @DF-RHF Final Energy:  -244.71900392159023

   => Energetics <=

    Nuclear Repulsion Energy =            162.9077747182569453
    One-Electron Energy =                -655.1042093053201825
    Two-Electron Energy =                 247.4774306654729799
    Total Energy =                       -244.7190039215902289
  Basis Set: (AUG-CC-PVTZ AUX)
    Blend: AUG-CC-PVTZ-RI
    Molecular point group: c1

    Geometry (in Angstrom), charge = 0, multiplicity = 1:

       Center              X                  Y                   Z               Mass
    ------------   -----------------  -----------------  -----------------  -----------------
         O           -0.354510479336    -1.088311578972     0.000023312601    15.994914619570
         N           -0.375710479336     1.157779421028    -0.000043687399    14.003074004430
         C            0.947042520664    -0.657416578972     0.000034312601    12.000000000000
         C            0.938197520664     0.704101421028    -0.000031687399    12.000000000000
         C           -1.082271479336     0.062329421028     0.000015312601    12.000000000000
         H            1.707101520664    -1.422381578972     0.000064312601     1.007825032230
         H            1.735660420664     1.356392721028    -0.000062187399     1.007825032230
         H           -2.156979479336    -0.046323578972     0.000021312601     1.007825032230

  Basis Set: AUG-CC-PVTZ
    Blend: AUG-CC-PVTZ
  Basis Set: (AUG-CC-PVTZ AUX)
    Blend: AUG-CC-PVTZ-JKFIT
	 Reference Energy          =    -244.7190039215902289 [Eh]
	 Singles Energy            =      -0.0000000000000000 [Eh]
	 Same-Spin Energy          =      -0.2505264670271509 [Eh]
	 Opposite-Spin Energy      =      -0.7541170712413860 [Eh]
	 Correlation Energy        =      -1.0046435382685370 [Eh]
	 Total Energy              =    -245.7236474598587677 [Eh]

	 ================> DF-SCS-MP2 Energies <==================
	-----------------------------------------------------------
	 SCS Same-Spin Scale       =       0.3333333333333333 [-]
	 SCS Opposite-Spin Scale   =       1.2000000000000000 [-]
	 SCS Same-Spin Energy      =      -0.0835088223423836 [Eh]
	 SCS Opposite-Spin Energy  =      -0.9049404854896632 [Eh]
	 SCS Correlation Energy    =      -0.9884493078320469 [Eh]
	 SCS Total Energy          =    -245.7074532294222706 [Eh]
	-----------------------------------------------------------

  Dipole Moment: [D]
     X:     0.7878      Y:    -1.4288      Z:     0.0001     Total:     1.6316

*** Psi4 exiting successfully. Buy a developer a beer!
