                               Psi4 1.3.2 release

  ==> Input File <==

--------------------------------------------------------------------------
#psi4
#
memory 32 gb

molecule  {
0 1
  O       -0.3732950    -1.0875170     0.0000230
  N       -0.3944950     1.1585740    -0.0000440
  C        0.9282580    -0.6566220     0.0000340
  C        0.8845654     0.6143475    -0.0000273
  C       -1.1010560     0.0631240     0.0000150
  H        1.6883170    -1.4215870     0.0000640
  H        1.7555780     1.3888440    -0.0000640
  H       -2.1757640    -0.0455290     0.0000210
units angstrom
no_reorient  #important for SAPT in psi4, default
symmetry c1  #important for SAPT in psi4, default
}

set PROPERTIES_ORIGIN ["COM"]
properties('MP2/aug-cc-pvtz', properties = ['dipole'])
--------------------------------------------------------------------------

    Molecular point group: c1
  Charge       = 0
  Multiplicity = 1
  Basis Set: AUG-CC-PVTZ
    Blend: AUG-CC-PVTZ
  Basis Set: (AUG-CC-PVTZ AUX)
    Blend: AUG-CC-PVTZ-JKFIT

    Orbital Energies [Eh]
    ---------------------

    Doubly Occupied:

       1A    -20.641458     2A    -15.575445     3A    -11.345177
       4A    -11.286715     5A    -11.261491     6A     -1.491255
       7A     -1.239119     8A     -1.051608     9A     -0.846891
      10A     -0.819928    11A     -0.752000    12A     -0.664832
      13A     -0.628709    14A     -0.592080    15A     -0.557725
      16A     -0.479439    17A     -0.459328    18A     -0.364502

  @DF-RHF Final Energy:  -244.70809506721022

   => Energetics <=

    Nuclear Repulsion Energy =            164.2671468693022518
    One-Electron Energy =                -657.8350811146731303
    Two-Electron Energy =                 248.8598391781606836
    Total Energy =                       -244.7080950672102233
  Basis Set: (AUG-CC-PVTZ AUX)
    Blend: AUG-CC-PVTZ-RI
    Molecular point group: c1

    Geometry (in Angstrom), charge = 0, multiplicity = 1:

       Center              X                  Y                   Z               Mass
    ------------   -----------------  -----------------  -----------------  -----------------
         O           -0.349017025063    -1.073031149835     0.000022517366    15.994914619570
         N           -0.370217025063     1.173059850165    -0.000044482634    14.003074004430
         C            0.952535974937    -0.642136149835     0.000033517366    12.000000000000
         C            0.908843374937     0.628833350165    -0.000027782634    12.000000000000
         C           -1.076778025063     0.077609850165     0.000014517366    12.000000000000
         H            1.712594974937    -1.407101149835     0.000063517366     1.007825032230
         H            1.779855974937     1.403329850165    -0.000064482634     1.007825032230
         H           -2.151486025063    -0.031043149835     0.000020517366     1.007825032230

  Basis Set: AUG-CC-PVTZ
    Blend: AUG-CC-PVTZ
  Basis Set: (AUG-CC-PVTZ AUX)
    Blend: AUG-CC-PVTZ-JKFIT
	 Reference Energy          =    -244.7080950672102233 [Eh]
	 Singles Energy            =      -0.0000000000000000 [Eh]
	 Same-Spin Energy          =      -0.2495446547057808 [Eh]
	 Opposite-Spin Energy      =      -0.7521953363256172 [Eh]
	 Correlation Energy        =      -1.0017399910313980 [Eh]
	 Total Energy              =    -245.7098350582416231 [Eh]

	 ================> DF-SCS-MP2 Energies <==================
	-----------------------------------------------------------
	 SCS Same-Spin Scale       =       0.3333333333333333 [-]
	 SCS Opposite-Spin Scale   =       1.2000000000000000 [-]
	 SCS Same-Spin Energy      =      -0.0831815515685936 [Eh]
	 SCS Opposite-Spin Energy  =      -0.9026344035907405 [Eh]
	 SCS Correlation Energy    =      -0.9858159551593342 [Eh]
	 SCS Total Energy          =    -245.6939110223695479 [Eh]
	-----------------------------------------------------------

  Dipole Moment: [D]
     X:     0.7044      Y:    -1.4632      Z:     0.0001     Total:     1.6239

*** Psi4 exiting successfully. Buy a developer a beer!
