                               Psi4 1.3.2 release

  ==> Input File <==

--------------------------------------------------------------------------
#psi4
#
memory 32 gb

molecule  {
0 1
  O       -0.3732950    -1.0875170     0.0000230
  N       -0.4347195     1.0187479    -0.0000381
  C        0.9282580    -0.6566220     0.0000340
  C        0.9194130     0.7048960    -0.0000320
  C       -1.1010560     0.0631240     0.0000150
  H        1.6883170    -1.4215870     0.0000640
  H        1.7555780     1.3888440    -0.0000640
  H       -2.1757640    -0.0455290     0.0000210
units angstrom
no_reorient  #important for SAPT in psi4, default
symmetry c1  #important for SAPT in psi4, default
}

set PROPERTIES_ORIGIN ["COM"]
properties('MP2/aug-cc-pvtz', properties = ['dipole'])
--------------------------------------------------------------------------

    Molecular point group: c1
  Charge       = 0
  Multiplicity = 1
  Basis Set: AUG-CC-PVTZ
    Blend: AUG-CC-PVTZ
  Basis Set: (AUG-CC-PVTZ AUX)
    Blend: AUG-CC-PVTZ-JKFIT

    Orbital Energies [Eh]
    ---------------------

    Doubly Occupied:

       1A    -20.627155     2A    -15.549335     3A    -11.313156
       4A    -11.303448     5A    -11.268934     6A     -1.489776
       7A     -1.267065     8A     -1.045471     9A     -0.850371
      10A     -0.814561    11A     -0.753621    12A     -0.664928
      13A     -0.630286    14A     -0.623615    15A     -0.574341
      16A     -0.471988    17A     -0.446052    18A     -0.357464

  @DF-RHF Final Energy:  -244.70369191082344

   => Energetics <=

    Nuclear Repulsion Energy =            166.0316222697754540
    One-Electron Energy =                -661.3674956494537582
    Two-Electron Energy =                 250.6321814688548955
    Total Energy =                       -244.7036919108234372
  Basis Set: (AUG-CC-PVTZ AUX)
    Blend: AUG-CC-PVTZ-RI
    Molecular point group: c1

    Geometry (in Angstrom), charge = 0, multiplicity = 1:

       Center              X                  Y                   Z               Mass
    ------------   -----------------  -----------------  -----------------  -----------------
         O           -0.346914846371    -1.060405899962     0.000022137511    15.994914619570
         N           -0.408339346371     1.045859000038    -0.000038962489    14.003074004430
         C            0.954638153629    -0.629510899962     0.000033137511    12.000000000000
         C            0.945793153629     0.732007100038    -0.000032862489    12.000000000000
         C           -1.074675846371     0.090235100038     0.000014137511    12.000000000000
         H            1.714697153629    -1.394475899962     0.000063137511     1.007825032230
         H            1.781958153629     1.415955100038    -0.000064862489     1.007825032230
         H           -2.149383846371    -0.018417899962     0.000020137511     1.007825032230

  Basis Set: AUG-CC-PVTZ
    Blend: AUG-CC-PVTZ
  Basis Set: (AUG-CC-PVTZ AUX)
    Blend: AUG-CC-PVTZ-JKFIT
	 Reference Energy          =    -244.7036919108234372 [Eh]
	 Singles Energy            =      -0.0000000000000000 [Eh]
	 Same-Spin Energy          =      -0.2479367218200307 [Eh]
	 Opposite-Spin Energy      =      -0.7479522131707917 [Eh]
	 Correlation Energy        =      -0.9958889349908224 [Eh]
	 Total Energy              =    -245.6995808458142676 [Eh]

	 ================> DF-SCS-MP2 Energies <==================
	-----------------------------------------------------------
	 SCS Same-Spin Scale       =       0.3333333333333333 [-]
	 SCS Opposite-Spin Scale   =       1.2000000000000000 [-]
	 SCS Same-Spin Energy      =      -0.0826455739400102 [Eh]
	 SCS Opposite-Spin Energy  =      -0.8975426558049501 [Eh]
	 SCS Correlation Energy    =      -0.9801882297449603 [Eh]
	 SCS Total Energy          =    -245.6838801405683910 [Eh]
	-----------------------------------------------------------

  Dipole Moment: [D]
     X:     0.8478      Y:    -1.0054      Z:     0.0001     Total:     1.3151

*** Psi4 exiting successfully. Buy a developer a beer!
