                               Psi4 1.3.2 release

  ==> Input File <==

--------------------------------------------------------------------------
#psi4
#
memory 32 gb

molecule  {
0 1
  F       -2.3906030    -0.3590020    -0.0066210
  O        2.4327490    -0.2858150    -0.0983620
  C       -0.0144610    -0.3473430    -0.0304030
  C        1.2902158     0.5673631    -0.0992073
  C       -1.2767230     0.4877420     0.0169350
  H       -0.0325250    -1.0483020     0.8127700
  H       -0.0047840    -0.9400090    -0.9495720
  H        1.2695770     1.0976100     0.9528610
  H        1.2812900     1.1998280    -0.8120650
  H       -1.3458030     1.1584320    -0.8458890
  H       -1.3305600     1.0866320     0.9324260
  H        2.4617370    -0.8846700     0.6667060
units angstrom
no_reorient  #important for SAPT in psi4, default
symmetry c1  #important for SAPT in psi4, default
}

set PROPERTIES_ORIGIN ["COM"]
properties('MP2/aug-cc-pvtz', properties = ['dipole'])
--------------------------------------------------------------------------

    Molecular point group: c1
  Charge       = 0
  Multiplicity = 1
  Basis Set: AUG-CC-PVTZ
    Blend: AUG-CC-PVTZ
  Basis Set: (AUG-CC-PVTZ AUX)
    Blend: AUG-CC-PVTZ-JKFIT

    Orbital Energies [Eh]
    ---------------------

    Doubly Occupied:

       1A    -26.276596     2A    -20.565566     3A    -11.313607
       4A    -11.292688     5A    -11.239156     6A     -1.582732
       7A     -1.361948     8A     -1.061377     9A     -0.933127
      10A     -0.846434    11A     -0.710930    12A     -0.699205
      13A     -0.673565    14A     -0.665804    15A     -0.644429
      16A     -0.591274    17A     -0.562270    18A     -0.525903
      19A     -0.502155    20A     -0.491154    21A     -0.431430

  @DF-RHF Final Energy:  -292.05315993452592

   => Energetics <=

    Nuclear Repulsion Energy =            181.6578545319535181
    One-Electron Energy =                -761.4793303921221650
    Two-Electron Energy =                 287.7683159256427530
    Total Energy =                       -292.0531599345259224
  Basis Set: (AUG-CC-PVTZ AUX)
    Blend: AUG-CC-PVTZ-RI
    Molecular point group: c1

    Geometry (in Angstrom), charge = 0, multiplicity = 1:

       Center              X                  Y                   Z               Mass
    ------------   -----------------  -----------------  -----------------  -----------------
         F           -2.336780746678    -0.343417749934     0.022694532604    18.998403162730
         O            2.486571253322    -0.270230749934    -0.069046467396    15.994914619570
         C            0.039361253322    -0.331758749934    -0.001087467396    12.000000000000
         C            1.344038053322     0.582947350066    -0.069891767396    12.000000000000
         C           -1.222900746678     0.503326250066     0.046250532604    12.000000000000
         H            0.021297253322    -1.032717749934     0.842085532604     1.007825032230
         H            0.049038253322    -0.924424749934    -0.920256467396     1.007825032230
         H            1.323399253322     1.113194250066     0.982176532604     1.007825032230
         H            1.335112253322     1.215412250066    -0.782749467396     1.007825032230
         H           -1.291980746678     1.174016250066    -0.816573467396     1.007825032230
         H           -1.276737746678     1.102216250066     0.961741532604     1.007825032230
         H            2.515559253322    -0.869085749934     0.696021532604     1.007825032230

  Basis Set: AUG-CC-PVTZ
    Blend: AUG-CC-PVTZ
  Basis Set: (AUG-CC-PVTZ AUX)
    Blend: AUG-CC-PVTZ-JKFIT
	 Reference Energy          =    -292.0531599345259224 [Eh]
	 Singles Energy            =      -0.0000000000000000 [Eh]
	 Same-Spin Energy          =      -0.2614319680475084 [Eh]
	 Opposite-Spin Energy      =      -0.8594845536646962 [Eh]
	 Correlation Energy        =      -1.1209165217122046 [Eh]
	 Total Energy              =    -293.1740764562381401 [Eh]

	 ================> DF-SCS-MP2 Energies <==================
	-----------------------------------------------------------
	 SCS Same-Spin Scale       =       0.3333333333333333 [-]
	 SCS Opposite-Spin Scale   =       1.2000000000000000 [-]
	 SCS Same-Spin Energy      =      -0.0871439893491695 [Eh]
	 SCS Opposite-Spin Energy  =      -1.0313814643976353 [Eh]
	 SCS Correlation Energy    =      -1.1185254537468048 [Eh]
	 SCS Total Energy          =    -293.1716853882727492 [Eh]
	-----------------------------------------------------------

  Dipole Moment: [D]
     X:     0.5456      Y:     0.9366      Z:     1.0452     Total:     1.5057

*** Psi4 exiting successfully. Buy a developer a beer!
