                               Psi4 1.3.2 release

  ==> Input File <==

--------------------------------------------------------------------------
#psi4
#
memory 32 gb

molecule  {
0 1
  F       -2.3906030    -0.3590020    -0.0066210
  O        2.4853743    -0.2017215    -0.0903076
  C       -0.0144610    -0.3473430    -0.0304030
  C        1.2502680     0.5009380     0.0283430
  C       -1.2767230     0.4877420     0.0169350
  H       -0.0325250    -1.0483020     0.8127700
  H       -0.0047840    -0.9400090    -0.9495720
  H        1.2695770     1.0976100     0.9528610
  H        1.2812900     1.1998280    -0.8120650
  H       -1.3458030     1.1584320    -0.8458890
  H       -1.3305600     1.0866320     0.9324260
  H        2.4617370    -0.8846700     0.6667060
units angstrom
no_reorient  #important for SAPT in psi4, default
symmetry c1  #important for SAPT in psi4, default
}

set PROPERTIES_ORIGIN ["COM"]
properties('MP2/aug-cc-pvtz', properties = ['dipole'])
--------------------------------------------------------------------------

    Molecular point group: c1
  Charge       = 0
  Multiplicity = 1
  Basis Set: AUG-CC-PVTZ
    Blend: AUG-CC-PVTZ
  Basis Set: (AUG-CC-PVTZ AUX)
    Blend: AUG-CC-PVTZ-JKFIT

    Orbital Energies [Eh]
    ---------------------

    Doubly Occupied:

       1A    -26.279902     2A    -20.574804     3A    -11.317789
       4A    -11.288875     5A    -11.239637     6A     -1.585780
       7A     -1.358141     8A     -1.071031     9A     -0.923592
      10A     -0.838759    11A     -0.715914    12A     -0.698356
      13A     -0.676000    14A     -0.667906    15A     -0.616353
      16A     -0.592822    17A     -0.570881    18A     -0.516178
      19A     -0.508475    20A     -0.489871    21A     -0.454037

  @DF-RHF Final Energy:  -292.07486619535916

   => Energetics <=

    Nuclear Repulsion Energy =            181.7604841940131450
    One-Electron Energy =                -761.7004958177376466
    Two-Electron Energy =                 287.8651454283653948
    Total Energy =                       -292.0748661953591636
  Basis Set: (AUG-CC-PVTZ AUX)
    Blend: AUG-CC-PVTZ-RI
    Molecular point group: c1

    Geometry (in Angstrom), charge = 0, multiplicity = 1:

       Center              X                  Y                   Z               Mass
    ------------   -----------------  -----------------  -----------------  -----------------
         F           -2.341423570946    -0.350438640919     0.001432859495    18.998403162730
         O            2.534553729054    -0.193158140919    -0.082253740505    15.994914619570
         C            0.034718429054    -0.338779640919    -0.022349140505    12.000000000000
         C            1.299447429054     0.509501359081     0.036396859495    12.000000000000
         C           -1.227543570946     0.496305359081     0.024988859495    12.000000000000
         H            0.016654429054    -1.039738640919     0.820823859495     1.007825032230
         H            0.044395429054    -0.931445640919    -0.941518140505     1.007825032230
         H            1.318756429054     1.106173359081     0.960914859495     1.007825032230
         H            1.330469429054     1.208391359081    -0.804011140505     1.007825032230
         H           -1.296623570946     1.166995359081    -0.837835140505     1.007825032230
         H           -1.281380570946     1.095195359081     0.940479859495     1.007825032230
         H            2.510916429054    -0.876106640919     0.674759859495     1.007825032230

  Basis Set: AUG-CC-PVTZ
    Blend: AUG-CC-PVTZ
  Basis Set: (AUG-CC-PVTZ AUX)
    Blend: AUG-CC-PVTZ-JKFIT
	 Reference Energy          =    -292.0748661953591636 [Eh]
	 Singles Energy            =      -0.0000000000000000 [Eh]
	 Same-Spin Energy          =      -0.2624325171267173 [Eh]
	 Opposite-Spin Energy      =      -0.8611758095956905 [Eh]
	 Correlation Energy        =      -1.1236083267224077 [Eh]
	 Total Energy              =    -293.1984745220815967 [Eh]

	 ================> DF-SCS-MP2 Energies <==================
	-----------------------------------------------------------
	 SCS Same-Spin Scale       =       0.3333333333333333 [-]
	 SCS Opposite-Spin Scale   =       1.2000000000000000 [-]
	 SCS Same-Spin Energy      =      -0.0874775057089058 [Eh]
	 SCS Opposite-Spin Energy  =      -1.0334109715148285 [Eh]
	 SCS Correlation Energy    =      -1.1208884772237342 [Eh]
	 SCS Total Energy          =    -293.1957546725828934 [Eh]
	-----------------------------------------------------------

  Dipole Moment: [D]
     X:     0.3287      Y:     0.7193      Z:     1.1328     Total:     1.3815

*** Psi4 exiting successfully. Buy a developer a beer!
