                               Psi4 1.3.2 release

  ==> Input File <==

--------------------------------------------------------------------------
#psi4
#
memory 32 gb

molecule  {
0 1
  F       -2.3906030    -0.3590020    -0.0066210
  O        2.4327490    -0.2858150    -0.0983620
  C       -0.0144610    -0.3473430    -0.0304030
  C        1.2502680     0.5009380     0.0283430
  C       -1.1175266     0.6087592     0.0203016
  H       -0.0325250    -1.0483020     0.8127700
  H       -0.0047840    -0.9400090    -0.9495720
  H        1.2695770     1.0976100     0.9528610
  H        1.2812900     1.1998280    -0.8120650
  H       -1.3458030     1.1584320    -0.8458890
  H       -1.3305600     1.0866320     0.9324260
  H        2.4617370    -0.8846700     0.6667060
units angstrom
no_reorient  #important for SAPT in psi4, default
symmetry c1  #important for SAPT in psi4, default
}

set PROPERTIES_ORIGIN ["COM"]
properties('MP2/aug-cc-pvtz', properties = ['dipole'])
--------------------------------------------------------------------------

    Molecular point group: c1
  Charge       = 0
  Multiplicity = 1
  Basis Set: AUG-CC-PVTZ
    Blend: AUG-CC-PVTZ
  Basis Set: (AUG-CC-PVTZ AUX)
    Blend: AUG-CC-PVTZ-JKFIT

    Orbital Energies [Eh]
    ---------------------

    Doubly Occupied:

       1A    -26.230265     2A    -20.573102     3A    -11.323167
       4A    -11.296378     5A    -11.244241     6A     -1.500193
       7A     -1.370949     8A     -1.095780     9A     -0.930939
      10A     -0.847879    11A     -0.719995    12A     -0.686198
      13A     -0.651946    14A     -0.634045    15A     -0.585596
      16A     -0.580471    17A     -0.560080    18A     -0.545912
      19A     -0.527709    20A     -0.497182    21A     -0.456070

  @DF-RHF Final Energy:  -292.05078829849185

   => Energetics <=

    Nuclear Repulsion Energy =            181.4352725514965243
    One-Electron Energy =                -761.2559290660956322
    Two-Electron Energy =                 287.7698682161072838
    Total Energy =                       -292.0507882984918524
  Basis Set: (AUG-CC-PVTZ AUX)
    Blend: AUG-CC-PVTZ-RI
    Molecular point group: c1

    Geometry (in Angstrom), charge = 0, multiplicity = 1:

       Center              X                  Y                   Z               Mass
    ------------   -----------------  -----------------  -----------------  -----------------
         F           -2.355115380425    -0.351811359243     0.002565881929    18.998403162730
         O            2.468236619575    -0.278624359243    -0.089175118071    15.994914619570
         C            0.021026619575    -0.340152359243    -0.021216118071    12.000000000000
         C            1.285755619575     0.508128640757     0.037529881929    12.000000000000
         C           -1.082038980425     0.615949840757     0.029488481929    12.000000000000
         H            0.002962619575    -1.041111359243     0.821956881929     1.007825032230
         H            0.030703619575    -0.932818359243    -0.940385118071     1.007825032230
         H            1.305064619575     1.104800640757     0.962047881929     1.007825032230
         H            1.316777619575     1.207018640757    -0.802878118071     1.007825032230
         H           -1.310315380425     1.165622640757    -0.836702118071     1.007825032230
         H           -1.295072380425     1.093822640757     0.941612881929     1.007825032230
         H            2.497224619575    -0.877479359243     0.675892881929     1.007825032230

  Basis Set: AUG-CC-PVTZ
    Blend: AUG-CC-PVTZ
  Basis Set: (AUG-CC-PVTZ AUX)
    Blend: AUG-CC-PVTZ-JKFIT
	 Reference Energy          =    -292.0507882984918524 [Eh]
	 Singles Energy            =      -0.0000000000000000 [Eh]
	 Same-Spin Energy          =      -0.2633399480447979 [Eh]
	 Opposite-Spin Energy      =      -0.8641427240732078 [Eh]
	 Correlation Energy        =      -1.1274826721180058 [Eh]
	 Total Energy              =    -293.1782709706098444 [Eh]

	 ================> DF-SCS-MP2 Energies <==================
	-----------------------------------------------------------
	 SCS Same-Spin Scale       =       0.3333333333333333 [-]
	 SCS Opposite-Spin Scale   =       1.2000000000000000 [-]
	 SCS Same-Spin Energy      =      -0.0877799826815993 [Eh]
	 SCS Opposite-Spin Energy  =      -1.0369712688878494 [Eh]
	 SCS Correlation Energy    =      -1.1247512515694487 [Eh]
	 SCS Total Energy          =    -293.1755395500612735 [Eh]
	-----------------------------------------------------------

  Dipole Moment: [D]
     X:     1.2586      Y:     1.2951      Z:     1.2110     Total:     2.1744

*** Psi4 exiting successfully. Buy a developer a beer!
