                               Psi4 1.3.2 release

  ==> Input File <==

--------------------------------------------------------------------------
#psi4
#
memory 32 gb

molecule  {
0 1
  F       -2.3906030    -0.3590020    -0.0066210
  O        2.3884964    -0.3579670     0.0245730
  C       -0.0144610    -0.3473430    -0.0304030
  C        1.2502680     0.5009380     0.0283430
  C       -1.2767230     0.4877420     0.0169350
  H       -0.0325250    -1.0483020     0.8127700
  H       -0.0047840    -0.9400090    -0.9495720
  H        1.2695770     1.0976100     0.9528610
  H        1.2812900     1.1998280    -0.8120650
  H       -1.3458030     1.1584320    -0.8458890
  H       -1.3305600     1.0866320     0.9324260
  H        2.4617370    -0.8846700     0.6667060
units angstrom
no_reorient  #important for SAPT in psi4, default
symmetry c1  #important for SAPT in psi4, default
}

set PROPERTIES_ORIGIN ["COM"]
properties('MP2/aug-cc-pvtz', properties = ['dipole'])
--------------------------------------------------------------------------

    Molecular point group: c1
  Charge       = 0
  Multiplicity = 1
  Basis Set: AUG-CC-PVTZ
    Blend: AUG-CC-PVTZ
  Basis Set: (AUG-CC-PVTZ AUX)
    Blend: AUG-CC-PVTZ-JKFIT

    Orbital Energies [Eh]
    ---------------------

    Doubly Occupied:

       1A    -26.277575     2A    -20.548406     3A    -11.314703
       4A    -11.294600     5A    -11.235654     6A     -1.583593
       7A     -1.396418     8A     -1.073517     9A     -0.938821
      10A     -0.845313    11A     -0.726379    12A     -0.707603
      13A     -0.683695    14A     -0.665171    15A     -0.637406
      16A     -0.591161    17A     -0.568018    18A     -0.520100
      19A     -0.504410    20A     -0.486663    21A     -0.454455

  @DF-RHF Final Energy:  -292.06335847452374

   => Energetics <=

    Nuclear Repulsion Energy =            183.4575442569044128
    One-Electron Energy =                -764.9344826800720512
    Two-Electron Energy =                 289.4135799486439282
    Total Energy =                       -292.0633584745237386
  Basis Set: (AUG-CC-PVTZ AUX)
    Blend: AUG-CC-PVTZ-RI
    Molecular point group: c1

    Geometry (in Angstrom), charge = 0, multiplicity = 1:

       Center              X                  Y                   Z               Mass
    ------------   -----------------  -----------------  -----------------  -----------------
         F           -2.321569738786    -0.318418211772    -0.022110385672    18.998403162730
         O            2.457529661214    -0.317383211772     0.009083614328    15.994914619570
         C            0.054572261214    -0.306759211772    -0.045892385672    12.000000000000
         C            1.319301261214     0.541521788228     0.012853614328    12.000000000000
         C           -1.207689738786     0.528325788228     0.001445614328    12.000000000000
         H            0.036508261214    -1.007718211772     0.797280614328     1.007825032230
         H            0.064249261214    -0.899425211772    -0.965061385672     1.007825032230
         H            1.338610261214     1.138193788228     0.937371614328     1.007825032230
         H            1.350323261214     1.240411788228    -0.827554385672     1.007825032230
         H           -1.276769738786     1.199015788228    -0.861378385672     1.007825032230
         H           -1.261526738786     1.127215788228     0.916936614328     1.007825032230
         H            2.530770261214    -0.844086211772     0.651216614328     1.007825032230

  Basis Set: AUG-CC-PVTZ
    Blend: AUG-CC-PVTZ
  Basis Set: (AUG-CC-PVTZ AUX)
    Blend: AUG-CC-PVTZ-JKFIT
	 Reference Energy          =    -292.0633584745237386 [Eh]
	 Singles Energy            =      -0.0000000000000000 [Eh]
	 Same-Spin Energy          =      -0.2600280485878916 [Eh]
	 Opposite-Spin Energy      =      -0.8549416315797272 [Eh]
	 Correlation Energy        =      -1.1149696801676190 [Eh]
	 Total Energy              =    -293.1783281546913713 [Eh]

	 ================> DF-SCS-MP2 Energies <==================
	-----------------------------------------------------------
	 SCS Same-Spin Scale       =       0.3333333333333333 [-]
	 SCS Opposite-Spin Scale   =       1.2000000000000000 [-]
	 SCS Same-Spin Energy      =      -0.0866760161959639 [Eh]
	 SCS Opposite-Spin Energy  =      -1.0259299578956727 [Eh]
	 SCS Correlation Energy    =      -1.1126059740916365 [Eh]
	 SCS Total Energy          =    -293.1759644486153888 [Eh]
	-----------------------------------------------------------

  Dipole Moment: [D]
     X:     0.4967      Y:     1.0530      Z:     1.0275     Total:     1.5529

*** Psi4 exiting successfully. Buy a developer a beer!
