                               Psi4 1.3.2 release

  ==> Input File <==

--------------------------------------------------------------------------
#psi4
#
memory 32 gb

molecule  {
0 1
  F       -2.3756520    -0.3782912    -0.0075694
  O        2.4327490    -0.2858150    -0.0983620
  C       -0.0144610    -0.3473430    -0.0304030
  C        1.2502680     0.5009380     0.0283430
  C       -1.2767230     0.4877420     0.0169350
  H       -0.0325250    -1.0483020     0.8127700
  H       -0.0047840    -0.9400090    -0.9495720
  H        1.2695770     1.0976100     0.9528610
  H        1.2812900     1.1998280    -0.8120650
  H       -1.3458030     1.1584320    -0.8458890
  H       -1.3305600     1.0866320     0.9324260
  H        2.4617370    -0.8846700     0.6667060
units angstrom
no_reorient  #important for SAPT in psi4, default
symmetry c1  #important for SAPT in psi4, default
}

set PROPERTIES_ORIGIN ["COM"]
properties('MP2/aug-cc-pvtz', properties = ['dipole'])
--------------------------------------------------------------------------

    Molecular point group: c1
  Charge       = 0
  Multiplicity = 1
  Basis Set: AUG-CC-PVTZ
    Blend: AUG-CC-PVTZ
  Basis Set: (AUG-CC-PVTZ AUX)
    Blend: AUG-CC-PVTZ-JKFIT

    Orbital Energies [Eh]
    ---------------------

    Doubly Occupied:

       1A    -26.278434     2A    -20.568567     3A    -11.315939
       4A    -11.289648     5A    -11.236295     6A     -1.584506
       7A     -1.365790     8A     -1.069849     9A     -0.925865
      10A     -0.839172    11A     -0.716889    12A     -0.700098
      13A     -0.680317    14A     -0.666362    15A     -0.618983
      16A     -0.592273    17A     -0.568671    18A     -0.517847
      19A     -0.507524    20A     -0.488886    21A     -0.454050

  @DF-RHF Final Energy:  -292.08106826880919

   => Energetics <=

    Nuclear Repulsion Energy =            182.5171461323388939
    One-Electron Energy =                -763.2244963339852575
    Two-Electron Energy =                 288.6262819328371734
    Total Energy =                       -292.0810682688091902
  Basis Set: (AUG-CC-PVTZ AUX)
    Blend: AUG-CC-PVTZ-RI
    Molecular point group: c1

    Geometry (in Angstrom), charge = 0, multiplicity = 1:

       Center              X                  Y                   Z               Mass
    ------------   -----------------  -----------------  -----------------  -----------------
         F           -2.319327078556    -0.347798639514     0.002365959993    18.998403162730
         O            2.489073921444    -0.255322439514    -0.088426640007    15.994914619570
         C            0.041863921444    -0.316850439514    -0.020467640007    12.000000000000
         C            1.306592921444     0.531430560486     0.038278359993    12.000000000000
         C           -1.220398078556     0.518234560486     0.026870359993    12.000000000000
         H            0.023799921444    -1.017809439514     0.822705359993     1.007825032230
         H            0.051540921444    -0.909516439514    -0.939636640007     1.007825032230
         H            1.325901921444     1.128102560486     0.962796359993     1.007825032230
         H            1.337614921444     1.230320560486    -0.802129640007     1.007825032230
         H           -1.289478078556     1.188924560486    -0.835953640007     1.007825032230
         H           -1.274235078556     1.117124560486     0.942361359993     1.007825032230
         H            2.518061921444    -0.854177439514     0.676641359993     1.007825032230

  Basis Set: AUG-CC-PVTZ
    Blend: AUG-CC-PVTZ
  Basis Set: (AUG-CC-PVTZ AUX)
    Blend: AUG-CC-PVTZ-JKFIT
	 Reference Energy          =    -292.0810682688091902 [Eh]
	 Singles Energy            =      -0.0000000000000000 [Eh]
	 Same-Spin Energy          =      -0.2617783821597364 [Eh]
	 Opposite-Spin Energy      =      -0.8593546325609454 [Eh]
	 Correlation Energy        =      -1.1211330147206817 [Eh]
	 Total Energy              =    -293.2022012835298597 [Eh]

	 ================> DF-SCS-MP2 Energies <==================
	-----------------------------------------------------------
	 SCS Same-Spin Scale       =       0.3333333333333333 [-]
	 SCS Opposite-Spin Scale   =       1.2000000000000000 [-]
	 SCS Same-Spin Energy      =      -0.0872594607199121 [Eh]
	 SCS Opposite-Spin Energy  =      -1.0312255590731343 [Eh]
	 SCS Correlation Energy    =      -1.1184850197930465 [Eh]
	 SCS Total Energy          =    -293.1995532886022602 [Eh]
	-----------------------------------------------------------

  Dipole Moment: [D]
     X:     0.4369      Y:     0.9229      Z:     1.1989     Total:     1.5748

*** Psi4 exiting successfully. Buy a developer a beer!
