                               Psi4 1.3.2 release

  ==> Input File <==

--------------------------------------------------------------------------
#psi4
#
memory 32 gb

molecule  {
0 1
  F       -2.3906030    -0.3590020    -0.0066210
  O        2.4186819    -0.3062551    -0.1002806
  C       -0.0144610    -0.3473430    -0.0304030
  C        1.2502680     0.5009380     0.0283430
  C       -1.2767230     0.4877420     0.0169350
  H       -0.0325250    -1.0483020     0.8127700
  H       -0.0047840    -0.9400090    -0.9495720
  H        1.2695770     1.0976100     0.9528610
  H        1.2812900     1.1998280    -0.8120650
  H       -1.3458030     1.1584320    -0.8458890
  H       -1.3305600     1.0866320     0.9324260
  H        2.4617370    -0.8846700     0.6667060
units angstrom
no_reorient  #important for SAPT in psi4, default
symmetry c1  #important for SAPT in psi4, default
}

set PROPERTIES_ORIGIN ["COM"]
properties('MP2/aug-cc-pvtz', properties = ['dipole'])
--------------------------------------------------------------------------

    Molecular point group: c1
  Charge       = 0
  Multiplicity = 1
  Basis Set: AUG-CC-PVTZ
    Blend: AUG-CC-PVTZ
  Basis Set: (AUG-CC-PVTZ AUX)
    Blend: AUG-CC-PVTZ-JKFIT

    Orbital Energies [Eh]
    ---------------------

    Doubly Occupied:

       1A    -26.277932     2A    -20.567546     3A    -11.315273
       4A    -11.290429     5A    -11.236145     6A     -1.583924
       7A     -1.368075     8A     -1.069904     9A     -0.926556
      10A     -0.839387    11A     -0.717391    12A     -0.700092
      13A     -0.681094    14A     -0.666277    15A     -0.619882
      16A     -0.592519    17A     -0.568546    18A     -0.517652
      19A     -0.507194    20A     -0.488990    21A     -0.454517

  @DF-RHF Final Energy:  -292.08175970151927

   => Energetics <=

    Nuclear Repulsion Energy =            182.5392453505365893
    One-Electron Energy =                -763.2633561587692839
    Two-Electron Energy =                 288.6423511067134200
    Total Energy =                       -292.0817597015192746
  Basis Set: (AUG-CC-PVTZ AUX)
    Blend: AUG-CC-PVTZ-RI
    Molecular point group: c1

    Geometry (in Angstrom), charge = 0, multiplicity = 1:

       Center              X                  Y                   Z               Mass
    ------------   -----------------  -----------------  -----------------  -----------------
         F           -2.327755853996    -0.329015875257     0.003476692692    18.998403162730
         O            2.481529046004    -0.276268975257    -0.090182907308    15.994914619570
         C            0.048386146004    -0.317356875257    -0.020305307308    12.000000000000
         C            1.313115146004     0.530924124743     0.038440692692    12.000000000000
         C           -1.213875853996     0.517728124743     0.027032692692    12.000000000000
         H            0.030322146004    -1.018315875257     0.822867692692     1.007825032230
         H            0.058063146004    -0.910022875257    -0.939474307308     1.007825032230
         H            1.332424146004     1.127596124743     0.962958692692     1.007825032230
         H            1.344137146004     1.229814124743    -0.801967307308     1.007825032230
         H           -1.282955853996     1.188418124743    -0.835791307308     1.007825032230
         H           -1.267712853996     1.116618124743     0.942523692692     1.007825032230
         H            2.524584146004    -0.854683875257     0.676803692692     1.007825032230

  Basis Set: AUG-CC-PVTZ
    Blend: AUG-CC-PVTZ
  Basis Set: (AUG-CC-PVTZ AUX)
    Blend: AUG-CC-PVTZ-JKFIT
	 Reference Energy          =    -292.0817597015192746 [Eh]
	 Singles Energy            =      -0.0000000000000000 [Eh]
	 Same-Spin Energy          =      -0.2616356658881639 [Eh]
	 Opposite-Spin Energy      =      -0.8589682151608917 [Eh]
	 Correlation Energy        =      -1.1206038810490557 [Eh]
	 Total Energy              =    -293.2023635825683527 [Eh]

	 ================> DF-SCS-MP2 Energies <==================
	-----------------------------------------------------------
	 SCS Same-Spin Scale       =       0.3333333333333333 [-]
	 SCS Opposite-Spin Scale   =       1.2000000000000000 [-]
	 SCS Same-Spin Energy      =      -0.0872118886293880 [Eh]
	 SCS Opposite-Spin Energy  =      -1.0307618581930700 [Eh]
	 SCS Correlation Energy    =      -1.1179737468224580 [Eh]
	 SCS Total Energy          =    -293.1997334483417603 [Eh]
	-----------------------------------------------------------

  Dipole Moment: [D]
     X:     0.5073      Y:     0.9419      Z:     1.2134     Total:     1.6176

*** Psi4 exiting successfully. Buy a developer a beer!
