                               Psi4 1.3.2 release

  ==> Input File <==

--------------------------------------------------------------------------
#psi4
#
memory 32 gb

molecule  {
0 1
  F       -2.3906030    -0.3590020    -0.0066210
  O        2.4327490    -0.2858150    -0.0983620
  C       -0.0144610    -0.3473430    -0.0304030
  C        1.2502680     0.5009380     0.0283430
  C       -1.4359194     0.3667248     0.0135684
  H       -0.0325250    -1.0483020     0.8127700
  H       -0.0047840    -0.9400090    -0.9495720
  H        1.2695770     1.0976100     0.9528610
  H        1.2812900     1.1998280    -0.8120650
  H       -1.3458030     1.1584320    -0.8458890
  H       -1.3305600     1.0866320     0.9324260
  H        2.4617370    -0.8846700     0.6667060
units angstrom
no_reorient  #important for SAPT in psi4, default
symmetry c1  #important for SAPT in psi4, default
}

set PROPERTIES_ORIGIN ["COM"]
properties('MP2/aug-cc-pvtz', properties = ['dipole'])
--------------------------------------------------------------------------

    Molecular point group: c1
  Charge       = 0
  Multiplicity = 1
  Basis Set: AUG-CC-PVTZ
    Blend: AUG-CC-PVTZ
  Basis Set: (AUG-CC-PVTZ AUX)
    Blend: AUG-CC-PVTZ-JKFIT

    Orbital Energies [Eh]
    ---------------------

    Doubly Occupied:

       1A    -26.328749     2A    -20.565704     3A    -11.327256
       4A    -11.285854     5A    -11.231117     6A     -1.712902
       7A     -1.362294     8A     -1.047048     9A     -0.932991
      10A     -0.848437    11A     -0.769044    12A     -0.767006
      13A     -0.723583    14A     -0.692757    15A     -0.619824
      16A     -0.590879    17A     -0.560190    18A     -0.496066
      19A     -0.462834    20A     -0.457197    21A     -0.445861

  @DF-RHF Final Energy:  -292.03849825197011

   => Energetics <=

    Nuclear Repulsion Energy =            183.9276795261918664
    One-Electron Energy =                -765.4771662630262199
    Two-Electron Energy =                 289.5109884848641855
    Total Energy =                       -292.0384982519701111
  Basis Set: (AUG-CC-PVTZ AUX)
    Blend: AUG-CC-PVTZ-RI
    Molecular point group: c1

    Geometry (in Angstrom), charge = 0, multiplicity = 1:

       Center              X                  Y                   Z               Mass
    ------------   -----------------  -----------------  -----------------  -----------------
         F           -2.306162056228    -0.314598242457     0.003601120547    18.998403162730
         O            2.517189943772    -0.241411242457    -0.088139879453    15.994914619570
         C            0.069979943772    -0.302939242457    -0.020180879453    12.000000000000
         C            1.334708943772     0.545341757543     0.038565120547    12.000000000000
         C           -1.351478456228     0.411128557543     0.023790520547    12.000000000000
         H            0.051915943772    -1.003898242457     0.822992120547     1.007825032230
         H            0.079656943772    -0.895605242457    -0.939349879453     1.007825032230
         H            1.354017943772     1.142013757543     0.963083120547     1.007825032230
         H            1.365730943772     1.244231757543    -0.801842879453     1.007825032230
         H           -1.261362056228     1.202835757543    -0.835666879453     1.007825032230
         H           -1.246119056228     1.131035757543     0.942648120547     1.007825032230
         H            2.546177943772    -0.840266242457     0.676928120547     1.007825032230

  Basis Set: AUG-CC-PVTZ
    Blend: AUG-CC-PVTZ
  Basis Set: (AUG-CC-PVTZ AUX)
    Blend: AUG-CC-PVTZ-JKFIT
	 Reference Energy          =    -292.0384982519701111 [Eh]
	 Singles Energy            =      -0.0000000000000000 [Eh]
	 Same-Spin Energy          =      -0.2617468246897332 [Eh]
	 Opposite-Spin Energy      =      -0.8569340767069762 [Eh]
	 Correlation Energy        =      -1.1186809013967094 [Eh]
	 Total Energy              =    -293.1571791533668261 [Eh]

	 ================> DF-SCS-MP2 Energies <==================
	-----------------------------------------------------------
	 SCS Same-Spin Scale       =       0.3333333333333333 [-]
	 SCS Opposite-Spin Scale   =       1.2000000000000000 [-]
	 SCS Same-Spin Energy      =      -0.0872489415632444 [Eh]
	 SCS Opposite-Spin Energy  =      -1.0283208920483713 [Eh]
	 SCS Correlation Energy    =      -1.1155698336116158 [Eh]
	 SCS Total Energy          =    -293.1540680855817413 [Eh]
	-----------------------------------------------------------

  Dipole Moment: [D]
     X:    -0.4263      Y:     0.3138      Z:     1.1769     Total:     1.2904

*** Psi4 exiting successfully. Buy a developer a beer!
