                               Psi4 1.3.2 release

  ==> Input File <==

--------------------------------------------------------------------------
#psi4
#
memory 32 gb

molecule  {
0 1
  F       -2.3906030    -0.3590020    -0.0066210
  O        2.4327490    -0.2858150    -0.0983620
  C       -0.0144610    -0.3473430    -0.0304030
  C        1.2398135     0.4768420     0.0706200
  C       -1.2767230     0.4877420     0.0169350
  H       -0.0325250    -1.0483020     0.8127700
  H       -0.0047840    -0.9400090    -0.9495720
  H        1.2695770     1.0976100     0.9528610
  H        1.2812900     1.1998280    -0.8120650
  H       -1.3458030     1.1584320    -0.8458890
  H       -1.3305600     1.0866320     0.9324260
  H        2.4617370    -0.8846700     0.6667060
units angstrom
no_reorient  #important for SAPT in psi4, default
symmetry c1  #important for SAPT in psi4, default
}

set PROPERTIES_ORIGIN ["COM"]
properties('MP2/aug-cc-pvtz', properties = ['dipole'])
--------------------------------------------------------------------------

    Molecular point group: c1
  Charge       = 0
  Multiplicity = 1
  Basis Set: AUG-CC-PVTZ
    Blend: AUG-CC-PVTZ
  Basis Set: (AUG-CC-PVTZ AUX)
    Blend: AUG-CC-PVTZ-JKFIT

    Orbital Energies [Eh]
    ---------------------

    Doubly Occupied:

       1A    -26.278934     2A    -20.570821     3A    -11.316594
       4A    -11.290882     5A    -11.236757     6A     -1.584853
       7A     -1.368224     8A     -1.073359     9A     -0.925875
      10A     -0.837903    11A     -0.718650    12A     -0.699719
      13A     -0.683337    14A     -0.667771    15A     -0.613470
      16A     -0.594834    17A     -0.572669    18A     -0.513842
      19A     -0.509465    20A     -0.481487    21A     -0.461238

  @DF-RHF Final Energy:  -292.07767552594805

   => Energetics <=

    Nuclear Repulsion Energy =            182.5912476647350786
    One-Electron Energy =                -763.3364779256015709
    Two-Electron Energy =                 288.6675547349184399
    Total Energy =                       -292.0776755259480524
  Basis Set: (AUG-CC-PVTZ AUX)
    Blend: AUG-CC-PVTZ-RI
    Molecular point group: c1

    Geometry (in Angstrom), charge = 0, multiplicity = 1:

       Center              X                  Y                   Z               Mass
    ------------   -----------------  -----------------  -----------------  -----------------
         F           -2.329031324793    -0.329500008217    -0.003416644767    18.998403162730
         O            2.494320675207    -0.256313008217    -0.095157644767    15.994914619570
         C            0.047110675207    -0.317841008217    -0.027198644767    12.000000000000
         C            1.301385175207     0.506343991783     0.073824355233    12.000000000000
         C           -1.215151324793     0.517243991783     0.020139355233    12.000000000000
         H            0.029046675207    -1.018800008217     0.815974355233     1.007825032230
         H            0.056787675207    -0.910507008217    -0.946367644767     1.007825032230
         H            1.331148675207     1.127111991783     0.956065355233     1.007825032230
         H            1.342861675207     1.229329991783    -0.808860644767     1.007825032230
         H           -1.284231324793     1.187933991783    -0.842684644767     1.007825032230
         H           -1.268988324793     1.116133991783     0.935630355233     1.007825032230
         H            2.523308675207    -0.855168008217     0.669910355233     1.007825032230

  Basis Set: AUG-CC-PVTZ
    Blend: AUG-CC-PVTZ
  Basis Set: (AUG-CC-PVTZ AUX)
    Blend: AUG-CC-PVTZ-JKFIT
	 Reference Energy          =    -292.0776755259480524 [Eh]
	 Singles Energy            =      -0.0000000000000000 [Eh]
	 Same-Spin Energy          =      -0.2620890481609144 [Eh]
	 Opposite-Spin Energy      =      -0.8599115523061036 [Eh]
	 Correlation Energy        =      -1.1220006004670180 [Eh]
	 Total Energy              =    -293.1996761264150564 [Eh]

	 ================> DF-SCS-MP2 Energies <==================
	-----------------------------------------------------------
	 SCS Same-Spin Scale       =       0.3333333333333333 [-]
	 SCS Opposite-Spin Scale   =       1.2000000000000000 [-]
	 SCS Same-Spin Energy      =      -0.0873630160536381 [Eh]
	 SCS Opposite-Spin Energy  =      -1.0318938627673242 [Eh]
	 SCS Correlation Energy    =      -1.1192568788209623 [Eh]
	 SCS Total Energy          =    -293.1969324047690293 [Eh]
	-----------------------------------------------------------

  Dipole Moment: [D]
     X:     0.4532      Y:     0.8600      Z:     1.2526     Total:     1.5856

*** Psi4 exiting successfully. Buy a developer a beer!
