                               Psi4 1.3.2 release

  ==> Input File <==

--------------------------------------------------------------------------
#psi4
#
memory 32 gb

molecule  {
0 1
  F       -2.4057077    -0.3365913    -0.0473082
  O        2.4327490    -0.2858150    -0.0983620
  C       -0.0144610    -0.3473430    -0.0304030
  C        1.2502680     0.5009380     0.0283430
  C       -1.2767230     0.4877420     0.0169350
  H       -0.0325250    -1.0483020     0.8127700
  H       -0.0047840    -0.9400090    -0.9495720
  H        1.2695770     1.0976100     0.9528610
  H        1.2812900     1.1998280    -0.8120650
  H       -1.3458030     1.1584320    -0.8458890
  H       -1.3305600     1.0866320     0.9324260
  H        2.4617370    -0.8846700     0.6667060
units angstrom
no_reorient  #important for SAPT in psi4, default
symmetry c1  #important for SAPT in psi4, default
}

set PROPERTIES_ORIGIN ["COM"]
properties('MP2/aug-cc-pvtz', properties = ['dipole'])
--------------------------------------------------------------------------

    Molecular point group: c1
  Charge       = 0
  Multiplicity = 1
  Basis Set: AUG-CC-PVTZ
    Blend: AUG-CC-PVTZ
  Basis Set: (AUG-CC-PVTZ AUX)
    Blend: AUG-CC-PVTZ-JKFIT

    Orbital Energies [Eh]
    ---------------------

    Doubly Occupied:

       1A    -26.278225     2A    -20.569272     3A    -11.315664
       4A    -11.290589     5A    -11.237421     6A     -1.584125
       7A     -1.366456     8A     -1.070416     9A     -0.926052
      10A     -0.839588    11A     -0.717194    12A     -0.699008
      13A     -0.680095    14A     -0.667014    15A     -0.619900
      16A     -0.593311    17A     -0.568690    18A     -0.517849
      19A     -0.506697    20A     -0.489334    21A     -0.455223

  @DF-RHF Final Energy:  -292.08105204155777

   => Energetics <=

    Nuclear Repulsion Energy =            182.2426042477557075
    One-Electron Energy =                -762.6630685228759603
    Two-Electron Energy =                 288.3394122335624843
    Total Energy =                       -292.0810520415577685
  Basis Set: (AUG-CC-PVTZ AUX)
    Blend: AUG-CC-PVTZ-RI
    Molecular point group: c1

    Geometry (in Angstrom), charge = 0, multiplicity = 1:

       Center              X                  Y                   Z               Mass
    ------------   -----------------  -----------------  -----------------  -----------------
         F           -2.342066644568    -0.316249295171    -0.027699653713    18.998403162730
         O            2.496390055432    -0.265472995171    -0.078753453713    15.994914619570
         C            0.049180055432    -0.327000995171    -0.010794453713    12.000000000000
         C            1.313909055432     0.521280004829     0.047951546287    12.000000000000
         C           -1.213081944568     0.508084004829     0.036543546287    12.000000000000
         H            0.031116055432    -1.027959995171     0.832378546287     1.007825032230
         H            0.058857055432    -0.919666995171    -0.929963453713     1.007825032230
         H            1.333218055432     1.117952004829     0.972469546287     1.007825032230
         H            1.344931055432     1.220170004829    -0.792456453713     1.007825032230
         H           -1.282161944568     1.178774004829    -0.826280453713     1.007825032230
         H           -1.266918944568     1.106974004829     0.952034546287     1.007825032230
         H            2.525378055432    -0.864327995171     0.686314546287     1.007825032230

  Basis Set: AUG-CC-PVTZ
    Blend: AUG-CC-PVTZ
  Basis Set: (AUG-CC-PVTZ AUX)
    Blend: AUG-CC-PVTZ-JKFIT
	 Reference Energy          =    -292.0810520415577685 [Eh]
	 Singles Energy            =      -0.0000000000000000 [Eh]
	 Same-Spin Energy          =      -0.2617666196074637 [Eh]
	 Opposite-Spin Energy      =      -0.8593327473144139 [Eh]
	 Correlation Energy        =      -1.1210993669218776 [Eh]
	 Total Energy              =    -293.2021514084796650 [Eh]

	 ================> DF-SCS-MP2 Energies <==================
	-----------------------------------------------------------
	 SCS Same-Spin Scale       =       0.3333333333333333 [-]
	 SCS Opposite-Spin Scale   =       1.2000000000000000 [-]
	 SCS Same-Spin Energy      =      -0.0872555398691546 [Eh]
	 SCS Opposite-Spin Energy  =      -1.0311992967772967 [Eh]
	 SCS Correlation Energy    =      -1.1184548366464513 [Eh]
	 SCS Total Energy          =    -293.1995068782042040 [Eh]
	-----------------------------------------------------------

  Dipole Moment: [D]
     X:     0.4996      Y:     0.8662      Z:     1.2504     Total:     1.6010

*** Psi4 exiting successfully. Buy a developer a beer!
