                               Psi4 1.3.2 release

  ==> Input File <==

--------------------------------------------------------------------------
#psi4
#
memory 32 gb

molecule  {
0 1
  F       -2.3288093    -0.4345529    -0.0103686
  O        2.4327490    -0.2858150    -0.0983620
  C       -0.0144610    -0.3473430    -0.0304030
  C        1.2502680     0.5009380     0.0283430
  C       -1.2767230     0.4877420     0.0169350
  H       -0.0325250    -1.0483020     0.8127700
  H       -0.0047840    -0.9400090    -0.9495720
  H        1.2695770     1.0976100     0.9528610
  H        1.2812900     1.1998280    -0.8120650
  H       -1.3458030     1.1584320    -0.8458890
  H       -1.3305600     1.0866320     0.9324260
  H        2.4617370    -0.8846700     0.6667060
units angstrom
no_reorient  #important for SAPT in psi4, default
symmetry c1  #important for SAPT in psi4, default
}

set PROPERTIES_ORIGIN ["COM"]
properties('MP2/aug-cc-pvtz', properties = ['dipole'])
--------------------------------------------------------------------------

    Molecular point group: c1
  Charge       = 0
  Multiplicity = 1
  Basis Set: AUG-CC-PVTZ
    Blend: AUG-CC-PVTZ
  Basis Set: (AUG-CC-PVTZ AUX)
    Blend: AUG-CC-PVTZ-JKFIT

    Orbital Energies [Eh]
    ---------------------

    Doubly Occupied:

       1A    -26.278661     2A    -20.567486     3A    -11.316315
       4A    -11.288154     5A    -11.234637     6A     -1.585183
       7A     -1.364759     8A     -1.068957     9A     -0.925554
      10A     -0.838629    11A     -0.716915    12A     -0.701254
      13A     -0.680462    14A     -0.665562    15A     -0.618177
      16A     -0.590557    17A     -0.567547    18A     -0.518915
      19A     -0.507887    20A     -0.488010    21A     -0.452108

  @DF-RHF Final Energy:  -292.07990897845099

   => Energetics <=

    Nuclear Repulsion Energy =            182.9548412746371184
    One-Electron Energy =                -764.1180444893581125
    Two-Electron Energy =                 289.0832942362699782
    Total Energy =                       -292.0799089784509874
  Basis Set: (AUG-CC-PVTZ AUX)
    Blend: AUG-CC-PVTZ-RI
    Molecular point group: c1

    Geometry (in Angstrom), charge = 0, multiplicity = 1:

       Center              X                  Y                   Z               Mass
    ------------   -----------------  -----------------  -----------------  -----------------
         F           -2.283886790397    -0.390365162373     0.000248138974    18.998403162730
         O            2.477671509603    -0.241627262373    -0.087745261026    15.994914619570
         C            0.030461509603    -0.303155262373    -0.019786261026    12.000000000000
         C            1.295190509603     0.545125737627     0.038959738974    12.000000000000
         C           -1.231800490397     0.531929737627     0.027551738974    12.000000000000
         H            0.012397509603    -1.004114262373     0.823386738974     1.007825032230
         H            0.040138509603    -0.895821262373    -0.938955261026     1.007825032230
         H            1.314499509603     1.141797737627     0.963477738974     1.007825032230
         H            1.326212509603     1.244015737627    -0.801448261026     1.007825032230
         H           -1.300880490397     1.202619737627    -0.835272261026     1.007825032230
         H           -1.285637490397     1.130819737627     0.943042738974     1.007825032230
         H            2.506659509603    -0.840482262373     0.677322738974     1.007825032230

  Basis Set: AUG-CC-PVTZ
    Blend: AUG-CC-PVTZ
  Basis Set: (AUG-CC-PVTZ AUX)
    Blend: AUG-CC-PVTZ-JKFIT
	 Reference Energy          =    -292.0799089784509874 [Eh]
	 Singles Energy            =      -0.0000000000000000 [Eh]
	 Same-Spin Energy          =      -0.2618361676054905 [Eh]
	 Opposite-Spin Energy      =      -0.8594635124327330 [Eh]
	 Correlation Energy        =      -1.1212996800382236 [Eh]
	 Total Energy              =    -293.2012086584892359 [Eh]

	 ================> DF-SCS-MP2 Energies <==================
	-----------------------------------------------------------
	 SCS Same-Spin Scale       =       0.3333333333333333 [-]
	 SCS Opposite-Spin Scale   =       1.2000000000000000 [-]
	 SCS Same-Spin Energy      =      -0.0872787225351635 [Eh]
	 SCS Opposite-Spin Energy  =      -1.0313562149192796 [Eh]
	 SCS Correlation Energy    =      -1.1186349374544431 [Eh]
	 SCS Total Energy          =    -293.1985439159054181 [Eh]
	-----------------------------------------------------------

  Dipole Moment: [D]
     X:     0.3378      Y:     0.9976      Z:     1.2017     Total:     1.5979

*** Psi4 exiting successfully. Buy a developer a beer!
