                               Psi4 1.4a3.dev225

  ==> Input File <==

--------------------------------------------------------------------------
#psi4
#
memory 32 gb

molecule  {
0 1
  F       -2.3905990    -0.3589170    -0.0065240
  O        2.4327270    -0.2857950    -0.0983550
  C       -0.0144620    -0.3474730    -0.0305520
  C        1.2087008     0.5284877     0.0327565
  C       -1.2767010     0.4876670     0.0169150
  H       -0.0324870    -1.0484940     0.8125610
  H       -0.0047440    -0.9399880    -0.9498040
  H        1.2693770     1.0974880     0.9528950
  H        1.2812390     1.1998900    -0.8120130
  H       -1.3457900     1.1584290    -0.8458720
  H       -1.3303370     1.0865880     0.9324180
  H        2.4623010    -0.8838830     0.6672960
units angstrom
no_reorient  #important for SAPT in psi4, default
symmetry c1  #important for SAPT in psi4, default
}

set PROPERTIES_ORIGIN ["COM"]
properties('MP2/aug-cc-pvtz', properties = ['dipole'])
--------------------------------------------------------------------------

    Molecular point group: c1
  Charge       = 0
  Multiplicity = 1
  Basis Set: AUG-CC-PVTZ
    Blend: AUG-CC-PVTZ
  Basis Set: (AUG-CC-PVTZ AUX)
    Blend: AUG-CC-PVTZ-JKFIT

    Orbital Energies [Eh]
    ---------------------

    Doubly Occupied:

       1A    -26.278922     2A    -20.563589     3A    -11.316640
       4A    -11.289789     5A    -11.238236     6A     -1.585042
       7A     -1.347104     8A     -1.075904     9A     -0.928055
      10A     -0.840735    11A     -0.716883    12A     -0.697250
      13A     -0.678959    14A     -0.666330    15A     -0.615077
      16A     -0.585622    17A     -0.565669    18A     -0.523692
      19A     -0.505242    20A     -0.492758    21A     -0.458286

  @DF-RHF Final Energy:  -292.07828140424078

   => Energetics <=

    Nuclear Repulsion Energy =            182.2068383897236288
    One-Electron Energy =                -762.6306762452943531
    Two-Electron Energy =                 288.3455564513299123
    Total Energy =                       -292.0782814042407836
  Basis Set: (AUG-CC-PVTZ AUX)
    Blend: AUG-CC-PVTZ-RI
    Molecular point group: c1

    Geometry (in Angstrom), charge = 0, multiplicity = 1:

       Center              X                  Y                   Z               Mass
    ------------   -----------------  -----------------  -----------------  -----------------
         F           -2.324251495252    -0.337355447523     0.002499706657    18.998403162730
         O            2.499074504748    -0.264233447523    -0.089331293343    15.994914619570
         C            0.051885504748    -0.325911447523    -0.021528293343    12.000000000000
         C            1.275048304748     0.550049252477     0.041780206657    12.000000000000
         C           -1.210353495252     0.509228552477     0.025938706657    12.000000000000
         H            0.033860504748    -1.026932447523     0.821584706657     1.007825032230
         H            0.061603504748    -0.918426447523    -0.940780293343     1.007825032230
         H            1.335724504748     1.119049552477     0.961918706657     1.007825032230
         H            1.347586504748     1.221451552477    -0.802989293343     1.007825032230
         H           -1.279442495252     1.179990552477    -0.836848293343     1.007825032230
         H           -1.263989495252     1.108149552477     0.941441706657     1.007825032230
         H            2.528648504748    -0.862321447523     0.676319706657     1.007825032230

  Basis Set: AUG-CC-PVTZ
    Blend: AUG-CC-PVTZ
  Basis Set: (AUG-CC-PVTZ AUX)
    Blend: AUG-CC-PVTZ-JKFIT
	 Reference Energy          =    -292.0782814042407836 [Eh]
	 Singles Energy            =      -0.0000000000000000 [Eh]
	 Same-Spin Energy          =      -0.2619930455274058 [Eh]
	 Opposite-Spin Energy      =      -0.8602878526378129 [Eh]
	 Correlation Energy        =      -1.1222808981652186 [Eh]
	 Total Energy              =    -293.2005623024060128 [Eh]

	 ================> DF-SCS-MP2 Energies <==================
	-----------------------------------------------------------
	 SCS Same-Spin Scale       =       0.3333333333333333 [-]
	 SCS Opposite-Spin Scale   =       1.2000000000000000 [-]
	 SCS Same-Spin Energy      =      -0.0873310151758019 [Eh]
	 SCS Opposite-Spin Energy  =      -1.0323454231653755 [Eh]
	 SCS Correlation Energy    =      -1.1196764383411775 [Eh]
	 SCS Total Energy          =    -293.1979578425819568 [Eh]
	-----------------------------------------------------------

  Dipole Moment: [D]
     X:     0.2994      Y:     0.9831      Z:     1.2070     Total:     1.5852

*** Psi4 exiting successfully. Buy a developer a beer!
