                               Psi4 1.3.2 release

  ==> Input File <==

--------------------------------------------------------------------------
#psi4
#
memory 32 gb

molecule  {
0 1
  F       -2.3603663    -0.3973166    -0.0085103
  O        2.4327490    -0.2858150    -0.0983620
  C       -0.0144610    -0.3473430    -0.0304030
  C        1.2502680     0.5009380     0.0283430
  C       -1.2767230     0.4877420     0.0169350
  H       -0.0325250    -1.0483020     0.8127700
  H       -0.0047840    -0.9400090    -0.9495720
  H        1.2695770     1.0976100     0.9528610
  H        1.2812900     1.1998280    -0.8120650
  H       -1.3458030     1.1584320    -0.8458890
  H       -1.3305600     1.0866320     0.9324260
  H        2.4617370    -0.8846700     0.6667060
units angstrom
no_reorient  #important for SAPT in psi4, default
symmetry c1  #important for SAPT in psi4, default
}

set PROPERTIES_ORIGIN ["COM"]
properties('MP2/aug-cc-pvtz', properties = ['dipole'])
--------------------------------------------------------------------------

    Molecular point group: c1
  Charge       = 0
  Multiplicity = 1
  Basis Set: AUG-CC-PVTZ
    Blend: AUG-CC-PVTZ
  Basis Set: (AUG-CC-PVTZ AUX)
    Blend: AUG-CC-PVTZ-JKFIT

    Orbital Energies [Eh]
    ---------------------

    Doubly Occupied:

       1A    -26.278516     2A    -20.568214     3A    -11.316067
       4A    -11.289165     5A    -11.235742     6A     -1.584714
       7A     -1.365454     8A     -1.069559     9A     -0.925766
      10A     -0.838981    11A     -0.716884    12A     -0.700459
      13A     -0.680392    14A     -0.666094    15A     -0.618715
      16A     -0.591732    17A     -0.568309    18A     -0.518214
      19A     -0.507651    20A     -0.488624    21A     -0.453428

  @DF-RHF Final Energy:  -292.08081055811260

   => Energetics <=

    Nuclear Repulsion Energy =            182.6587380486223253
    One-Electron Energy =                -763.5137347962112244
    Two-Electron Energy =                 288.7741861894762678
    Total Energy =                       -292.0808105581126028
  Basis Set: (AUG-CC-PVTZ AUX)
    Blend: AUG-CC-PVTZ-RI
    Molecular point group: c1

    Geometry (in Angstrom), charge = 0, multiplicity = 1:

       Center              X                  Y                   Z               Mass
    ------------   -----------------  -----------------  -----------------  -----------------
         F           -2.307762211187    -0.362192892158     0.001654093104    18.998403162730
         O            2.485353088813    -0.250691292158    -0.088197606896    15.994914619570
         C            0.038143088813    -0.312219292158    -0.020238606896    12.000000000000
         C            1.302872088813     0.536061707842     0.038507393104    12.000000000000
         C           -1.224118911187     0.522865707842     0.027099393104    12.000000000000
         H            0.020079088813    -1.013178292158     0.822934393104     1.007825032230
         H            0.047820088813    -0.904885292158    -0.939407606896     1.007825032230
         H            1.322181088813     1.132733707842     0.963025393104     1.007825032230
         H            1.333894088813     1.234951707842    -0.801900606896     1.007825032230
         H           -1.293198911187     1.193555707842    -0.835724606896     1.007825032230
         H           -1.277955911187     1.121755707842     0.942590393104     1.007825032230
         H            2.514341088813    -0.849546292158     0.676870393104     1.007825032230

  Basis Set: AUG-CC-PVTZ
    Blend: AUG-CC-PVTZ
  Basis Set: (AUG-CC-PVTZ AUX)
    Blend: AUG-CC-PVTZ-JKFIT
	 Reference Energy          =    -292.0808105581126028 [Eh]
	 Singles Energy            =      -0.0000000000000000 [Eh]
	 Same-Spin Energy          =      -0.2617931899072438 [Eh]
	 Opposite-Spin Energy      =      -0.8593824880116381 [Eh]
	 Correlation Energy        =      -1.1211756779188820 [Eh]
	 Total Energy              =    -293.2019862360314733 [Eh]

	 ================> DF-SCS-MP2 Energies <==================
	-----------------------------------------------------------
	 SCS Same-Spin Scale       =       0.3333333333333333 [-]
	 SCS Opposite-Spin Scale   =       1.2000000000000000 [-]
	 SCS Same-Spin Energy      =      -0.0872643966357479 [Eh]
	 SCS Opposite-Spin Energy  =      -1.0312589856139656 [Eh]
	 SCS Correlation Energy    =      -1.1185233822497136 [Eh]
	 SCS Total Energy          =    -293.1993339403622940 [Eh]
	-----------------------------------------------------------

  Dipole Moment: [D]
     X:     0.4047      Y:     0.9484      Z:     1.1998     Total:     1.5820

*** Psi4 exiting successfully. Buy a developer a beer!
