                               Psi4 1.3.2 release

  ==> Input File <==

--------------------------------------------------------------------------
#psi4
#
memory 32 gb

molecule  {
0 1
  F       -2.4469700    -0.2793259    -0.0027586
  O        2.4327490    -0.2858150    -0.0983620
  C       -0.0144610    -0.3473430    -0.0304030
  C        1.2502680     0.5009380     0.0283430
  C       -1.2767230     0.4877420     0.0169350
  H       -0.0325250    -1.0483020     0.8127700
  H       -0.0047840    -0.9400090    -0.9495720
  H        1.2695770     1.0976100     0.9528610
  H        1.2812900     1.1998280    -0.8120650
  H       -1.3458030     1.1584320    -0.8458890
  H       -1.3305600     1.0866320     0.9324260
  H        2.4617370    -0.8846700     0.6667060
units angstrom
no_reorient  #important for SAPT in psi4, default
symmetry c1  #important for SAPT in psi4, default
}

set PROPERTIES_ORIGIN ["COM"]
properties('MP2/aug-cc-pvtz', properties = ['dipole'])
--------------------------------------------------------------------------

    Molecular point group: c1
  Charge       = 0
  Multiplicity = 1
  Basis Set: AUG-CC-PVTZ
    Blend: AUG-CC-PVTZ
  Basis Set: (AUG-CC-PVTZ AUX)
    Blend: AUG-CC-PVTZ-JKFIT

    Orbital Energies [Eh]
    ---------------------

    Doubly Occupied:

       1A    -26.277921     2A    -20.570223     3A    -11.315271
       4A    -11.291858     5A    -11.239035     6A     -1.583688
       7A     -1.367356     8A     -1.071193     9A     -0.926302
      10A     -0.840238    11A     -0.717094    12A     -0.698688
      13A     -0.679552    14A     -0.667671    15A     -0.620322
      16A     -0.594514    17A     -0.570317    18A     -0.515866
      19A     -0.506774    20A     -0.489739    21A     -0.456835

  @DF-RHF Final Energy:  -292.08052411301134

   => Energetics <=

    Nuclear Repulsion Energy =            181.8709070818065925
    One-Electron Energy =                -761.9019462293716742
    Two-Electron Energy =                 287.9505150345536890
    Total Energy =                       -292.0805241130113359
  Basis Set: (AUG-CC-PVTZ AUX)
    Blend: AUG-CC-PVTZ-RI
    Molecular point group: c1

    Geometry (in Angstrom), charge = 0, multiplicity = 1:

       Center              X                  Y                   Z               Mass
    ------------   -----------------  -----------------  -----------------  -----------------
         F           -2.373284909146    -0.272923392148     0.006005718979    18.998403162730
         O            2.506434090854    -0.279412492148    -0.089597681021    15.994914619570
         C            0.059224090854    -0.340940492148    -0.021638681021    12.000000000000
         C            1.323953090854     0.507340507852     0.037107318979    12.000000000000
         C           -1.203037909146     0.494144507852     0.025699318979    12.000000000000
         H            0.041160090854    -1.041899492148     0.821534318979     1.007825032230
         H            0.068901090854    -0.933606492148    -0.940807681021     1.007825032230
         H            1.343262090854     1.104012507852     0.961625318979     1.007825032230
         H            1.354975090854     1.206230507852    -0.803300681021     1.007825032230
         H           -1.272117909146     1.164834507852    -0.837124681021     1.007825032230
         H           -1.256874909146     1.093034507852     0.941190318979     1.007825032230
         H            2.535422090854    -0.878267492148     0.675470318979     1.007825032230

  Basis Set: AUG-CC-PVTZ
    Blend: AUG-CC-PVTZ
  Basis Set: (AUG-CC-PVTZ AUX)
    Blend: AUG-CC-PVTZ-JKFIT
	 Reference Energy          =    -292.0805241130113359 [Eh]
	 Singles Energy            =      -0.0000000000000000 [Eh]
	 Same-Spin Energy          =      -0.2617669626752465 [Eh]
	 Opposite-Spin Energy      =      -0.8593341027357743 [Eh]
	 Correlation Energy        =      -1.1211010654110207 [Eh]
	 Total Energy              =    -293.2016251784223755 [Eh]

	 ================> DF-SCS-MP2 Energies <==================
	-----------------------------------------------------------
	 SCS Same-Spin Scale       =       0.3333333333333333 [-]
	 SCS Opposite-Spin Scale   =       1.2000000000000000 [-]
	 SCS Same-Spin Energy      =      -0.0872556542250821 [Eh]
	 SCS Opposite-Spin Energy  =      -1.0312009232829291 [Eh]
	 SCS Correlation Energy    =      -1.1184565775080113 [Eh]
	 SCS Total Energy          =    -293.1989806905193632 [Eh]
	-----------------------------------------------------------

  Dipole Moment: [D]
     X:     0.5852      Y:     0.7871      Z:     1.1937     Total:     1.5450

*** Psi4 exiting successfully. Buy a developer a beer!
