                               Psi4 1.4a3.dev225

  ==> Input File <==

--------------------------------------------------------------------------
#psi4
#
memory 32 gb

molecule  {
0 1
  F       -2.3905990    -0.3589170    -0.0065240
  O        2.4327270    -0.2857950    -0.0983550
  C       -0.0144620    -0.3474730    -0.0305520
  C        1.2335799     0.5119369     0.0300916
  C       -1.2767010     0.4876670     0.0169150
  H       -0.0324870    -1.0484940     0.8125610
  H       -0.0047440    -0.9399880    -0.9498040
  H        1.2693770     1.0974880     0.9528950
  H        1.2812390     1.1998900    -0.8120130
  H       -1.3457900     1.1584290    -0.8458720
  H       -1.3303370     1.0865880     0.9324180
  H        2.4623010    -0.8838830     0.6672960
units angstrom
no_reorient  #important for SAPT in psi4, default
symmetry c1  #important for SAPT in psi4, default
}

set PROPERTIES_ORIGIN ["COM"]
properties('MP2/aug-cc-pvtz', properties = ['dipole'])
--------------------------------------------------------------------------

    Molecular point group: c1
  Charge       = 0
  Multiplicity = 1
  Basis Set: AUG-CC-PVTZ
    Blend: AUG-CC-PVTZ
  Basis Set: (AUG-CC-PVTZ AUX)
    Blend: AUG-CC-PVTZ-JKFIT

    Orbital Energies [Eh]
    ---------------------

    Doubly Occupied:

       1A    -26.278581     2A    -20.566785     3A    -11.316128
       4A    -11.289863     5A    -11.237386     6A     -1.584625
       7A     -1.358218     8A     -1.072420     9A     -0.926805
      10A     -0.839833    11A     -0.716715    12A     -0.698615
      13A     -0.679789    14A     -0.666467    15A     -0.617393
      16A     -0.589759    17A     -0.567628    18A     -0.519875
      19A     -0.506690    20A     -0.490837    21A     -0.456436

  @DF-RHF Final Energy:  -292.08054042496377

   => Energetics <=

    Nuclear Repulsion Energy =            182.3081096041777585
    One-Electron Energy =                -762.8156058238863579
    Two-Electron Energy =                 288.4269557947448561
    Total Energy =                       -292.0805404249637718
  Basis Set: (AUG-CC-PVTZ AUX)
    Blend: AUG-CC-PVTZ-RI
    Molecular point group: c1

    Geometry (in Angstrom), charge = 0, multiplicity = 1:

       Center              X                  Y                   Z               Mass
    ------------   -----------------  -----------------  -----------------  -----------------
         F           -2.328076690571    -0.334810739609     0.002909438641    18.998403162730
         O            2.495249309429    -0.261688739609    -0.088921561359    15.994914619570
         C            0.048060309429    -0.323366739609    -0.021118561359    12.000000000000
         C            1.296102209429     0.536043160391     0.039525038641    12.000000000000
         C           -1.214178690571     0.511773260391     0.026348438641    12.000000000000
         H            0.030035309429    -1.024387739609     0.821994438641     1.007825032230
         H            0.057778309429    -0.915881739609    -0.940370561359     1.007825032230
         H            1.331899309429     1.121594260391     0.962328438641     1.007825032230
         H            1.343761309429     1.223996260391    -0.802579561359     1.007825032230
         H           -1.283267690571     1.182535260391    -0.836438561359     1.007825032230
         H           -1.267814690571     1.110694260391     0.941851438641     1.007825032230
         H            2.524823309429    -0.859776739609     0.676729438641     1.007825032230

  Basis Set: AUG-CC-PVTZ
    Blend: AUG-CC-PVTZ
  Basis Set: (AUG-CC-PVTZ AUX)
    Blend: AUG-CC-PVTZ-JKFIT
	 Reference Energy          =    -292.0805404249637718 [Eh]
	 Singles Energy            =      -0.0000000000000000 [Eh]
	 Same-Spin Energy          =      -0.2618392557699650 [Eh]
	 Opposite-Spin Energy      =      -0.8596826527439916 [Eh]
	 Correlation Energy        =      -1.1215219085139565 [Eh]
	 Total Energy              =    -293.2020623334777270 [Eh]

	 ================> DF-SCS-MP2 Energies <==================
	-----------------------------------------------------------
	 SCS Same-Spin Scale       =       0.3333333333333333 [-]
	 SCS Opposite-Spin Scale   =       1.2000000000000000 [-]
	 SCS Same-Spin Energy      =      -0.0872797519233217 [Eh]
	 SCS Opposite-Spin Energy  =      -1.0316191832927899 [Eh]
	 SCS Correlation Energy    =      -1.1188989352161116 [Eh]
	 SCS Total Energy          =    -293.1994393601798947 [Eh]
	-----------------------------------------------------------

  Dipole Moment: [D]
     X:     0.3997      Y:     0.9330      Z:     1.2024     Total:     1.5736

*** Psi4 exiting successfully. Buy a developer a beer!
