                               Psi4 1.4a3.dev225

  ==> Input File <==

--------------------------------------------------------------------------
#psi4
#
memory 32 gb

molecule  {
0 1
  F       -2.3905990    -0.3589170    -0.0065240
  O        2.4327270    -0.2857950    -0.0983550
  C       -0.0144620    -0.3474730    -0.0305520
  C        1.2501660     0.5009030     0.0283150
  C       -1.2767010     0.4876670     0.0169150
  H       -0.0324870    -1.0484940     0.8125610
  H       -0.0047440    -0.9399880    -0.9498040
  H        1.2693770     1.0974880     0.9528950
  H        1.2812390     1.1998900    -0.8120130
  H       -1.3457900     1.1584290    -0.8458720
  H       -1.3303370     1.0865880     0.9324180
  H        2.4616925    -0.8715768     0.6515420
units angstrom
no_reorient  #important for SAPT in psi4, default
symmetry c1  #important for SAPT in psi4, default
}

set PROPERTIES_ORIGIN ["COM"]
properties('MP2/aug-cc-pvtz', properties = ['dipole'])
--------------------------------------------------------------------------

    Molecular point group: c1
  Charge       = 0
  Multiplicity = 1
  Basis Set: AUG-CC-PVTZ
    Blend: AUG-CC-PVTZ
  Basis Set: (AUG-CC-PVTZ AUX)
    Blend: AUG-CC-PVTZ-JKFIT

    Orbital Energies [Eh]
    ---------------------

    Doubly Occupied:

       1A    -26.278434     2A    -20.567025     3A    -11.315904
       4A    -11.290308     5A    -11.236966     6A     -1.584425
       7A     -1.370641     8A     -1.070625     9A     -0.927111
      10A     -0.840169    11A     -0.718038    12A     -0.701112
      13A     -0.681107    14A     -0.666806    15A     -0.620459
      16A     -0.593247    17A     -0.569359    18A     -0.517881
      19A     -0.507744    20A     -0.489566    21A     -0.455139

  @DF-RHF Final Energy:  -292.08205707950464

   => Energetics <=

    Nuclear Repulsion Energy =            182.4933397970152384
    One-Electron Energy =                -763.1466598132051331
    Two-Electron Energy =                 288.5712629366852866
    Total Energy =                       -292.0820570795046365
  Basis Set: (AUG-CC-PVTZ AUX)
    Blend: AUG-CC-PVTZ-RI
    Molecular point group: c1

    Geometry (in Angstrom), charge = 0, multiplicity = 1:

       Center              X                  Y                   Z               Mass
    ------------   -----------------  -----------------  -----------------  -----------------
         F           -2.330618968426    -0.333273170926     0.003386022682    18.998403162730
         O            2.492707031574    -0.260151170926    -0.088444977318    15.994914619570
         C            0.045518031574    -0.321829170926    -0.020641977318    12.000000000000
         C            1.310146031574     0.526546829074     0.038225022682    12.000000000000
         C           -1.216720968426     0.513310829074     0.026825022682    12.000000000000
         H            0.027493031574    -1.022850170926     0.822471022682     1.007825032230
         H            0.055236031574    -0.914344170926    -0.939893977318     1.007825032230
         H            1.329357031574     1.123131829074     0.962805022682     1.007825032230
         H            1.341219031574     1.225533829074    -0.802102977318     1.007825032230
         H           -1.285809968426     1.184072829074    -0.835961977318     1.007825032230
         H           -1.270356968426     1.112231829074     0.942328022682     1.007825032230
         H            2.521672531574    -0.845932970926     0.661452022682     1.007825032230

  Basis Set: AUG-CC-PVTZ
    Blend: AUG-CC-PVTZ
  Basis Set: (AUG-CC-PVTZ AUX)
    Blend: AUG-CC-PVTZ-JKFIT
	 Reference Energy          =    -292.0820570795046365 [Eh]
	 Singles Energy            =      -0.0000000000000000 [Eh]
	 Same-Spin Energy          =      -0.2615479296412526 [Eh]
	 Opposite-Spin Energy      =      -0.8587392785755372 [Eh]
	 Correlation Energy        =      -1.1202872082167898 [Eh]
	 Total Energy              =    -293.2023442877214165 [Eh]

	 ================> DF-SCS-MP2 Energies <==================
	-----------------------------------------------------------
	 SCS Same-Spin Scale       =       0.3333333333333333 [-]
	 SCS Opposite-Spin Scale   =       1.2000000000000000 [-]
	 SCS Same-Spin Energy      =      -0.0871826432137509 [Eh]
	 SCS Opposite-Spin Energy  =      -1.0304871342906445 [Eh]
	 SCS Correlation Energy    =      -1.1176697775043953 [Eh]
	 SCS Total Energy          =    -293.1997268570090114 [Eh]
	-----------------------------------------------------------

  Dipole Moment: [D]
     X:     0.4626      Y:     0.9080      Z:     1.1883     Total:     1.5654

*** Psi4 exiting successfully. Buy a developer a beer!
