                               Psi4 1.3.2 release

  ==> Input File <==

--------------------------------------------------------------------------
#psi4
#
memory 32 gb

molecule  {
0 1
  F       -2.3906030    -0.3590020    -0.0066210
  O        2.4262619    -0.2984615    -0.0779330
  C       -0.0144610    -0.3473430    -0.0304030
  C        1.2502680     0.5009380     0.0283430
  C       -1.2767230     0.4877420     0.0169350
  H       -0.0325250    -1.0483020     0.8127700
  H       -0.0047840    -0.9400090    -0.9495720
  H        1.2695770     1.0976100     0.9528610
  H        1.2812900     1.1998280    -0.8120650
  H       -1.3458030     1.1584320    -0.8458890
  H       -1.3305600     1.0866320     0.9324260
  H        2.4617370    -0.8846700     0.6667060
units angstrom
no_reorient  #important for SAPT in psi4, default
symmetry c1  #important for SAPT in psi4, default
}

set PROPERTIES_ORIGIN ["COM"]
properties('MP2/aug-cc-pvtz', properties = ['dipole'])
--------------------------------------------------------------------------

    Molecular point group: c1
  Charge       = 0
  Multiplicity = 1
  Basis Set: AUG-CC-PVTZ
    Blend: AUG-CC-PVTZ
  Basis Set: (AUG-CC-PVTZ AUX)
    Blend: AUG-CC-PVTZ-JKFIT

    Orbital Energies [Eh]
    ---------------------

    Doubly Occupied:

       1A    -26.278206     2A    -20.565735     3A    -11.315617
       4A    -11.290649     5A    -11.236617     6A     -1.584184
       7A     -1.370363     8A     -1.070506     9A     -0.927611
      10A     -0.840309    11A     -0.717700    12A     -0.701268
      13A     -0.680963    14A     -0.666427    15A     -0.622587
      16A     -0.592526    17A     -0.568830    18A     -0.518142
      19A     -0.506897    20A     -0.489027    21A     -0.454554

  @DF-RHF Final Energy:  -292.08231209908035

   => Energetics <=

    Nuclear Repulsion Energy =            182.5416543558648073
    One-Electron Energy =                -763.2504990412176085
    Two-Electron Energy =                 288.6265325862724467
    Total Energy =                       -292.0823120990803545
  Basis Set: (AUG-CC-PVTZ AUX)
    Blend: AUG-CC-PVTZ-RI
    Molecular point group: c1

    Geometry (in Angstrom), charge = 0, multiplicity = 1:

       Center              X                  Y                   Z               Mass
    ------------   -----------------  -----------------  -----------------  -----------------
         F           -2.329309273793    -0.330613069522    -0.001103149559    18.998403162730
         O            2.487555626207    -0.270072569522    -0.072415149559    15.994914619570
         C            0.046832726207    -0.318954069522    -0.024885149559    12.000000000000
         C            1.311561726207     0.529326930478     0.033860850441    12.000000000000
         C           -1.215429273793     0.516130930478     0.022452850441    12.000000000000
         H            0.028768726207    -1.019913069522     0.818287850441     1.007825032230
         H            0.056509726207    -0.911620069522    -0.944054149559     1.007825032230
         H            1.330870726207     1.125998930478     0.958378850441     1.007825032230
         H            1.342583726207     1.228216930478    -0.806547149559     1.007825032230
         H           -1.284509273793     1.186820930478    -0.840371149559     1.007825032230
         H           -1.269266273793     1.115020930478     0.937943850441     1.007825032230
         H            2.523030726207    -0.856281069522     0.672223850441     1.007825032230

  Basis Set: AUG-CC-PVTZ
    Blend: AUG-CC-PVTZ
  Basis Set: (AUG-CC-PVTZ AUX)
    Blend: AUG-CC-PVTZ-JKFIT
	 Reference Energy          =    -292.0823120990803545 [Eh]
	 Singles Energy            =      -0.0000000000000000 [Eh]
	 Same-Spin Energy          =      -0.2614428397432024 [Eh]
	 Opposite-Spin Energy      =      -0.8584844937887089 [Eh]
	 Correlation Energy        =      -1.1199273335319113 [Eh]
	 Total Energy              =    -293.2022394326122594 [Eh]

	 ================> DF-SCS-MP2 Energies <==================
	-----------------------------------------------------------
	 SCS Same-Spin Scale       =       0.3333333333333333 [-]
	 SCS Opposite-Spin Scale   =       1.2000000000000000 [-]
	 SCS Same-Spin Energy      =      -0.0871476132477341 [Eh]
	 SCS Opposite-Spin Energy  =      -1.0301813925464507 [Eh]
	 SCS Correlation Energy    =      -1.1173290057941849 [Eh]
	 SCS Total Energy          =    -293.1996411048745586 [Eh]
	-----------------------------------------------------------

  Dipole Moment: [D]
     X:     0.4731      Y:     0.9201      Z:     1.1725     Total:     1.5637

*** Psi4 exiting successfully. Buy a developer a beer!
