                               Psi4 1.3.2 release

  ==> Input File <==

--------------------------------------------------------------------------
#psi4
#
memory 32 gb

molecule  {
0 1
  F       -2.3906030    -0.3590020    -0.0066210
  O        2.5094453    -0.1583647    -0.0860611
  C       -0.0144610    -0.3473430    -0.0304030
  C        1.2502680     0.5009380     0.0283430
  C       -1.2767230     0.4877420     0.0169350
  H       -0.0325250    -1.0483020     0.8127700
  H       -0.0047840    -0.9400090    -0.9495720
  H        1.2695770     1.0976100     0.9528610
  H        1.2812900     1.1998280    -0.8120650
  H       -1.3458030     1.1584320    -0.8458890
  H       -1.3305600     1.0866320     0.9324260
  H        2.4617370    -0.8846700     0.6667060
units angstrom
no_reorient  #important for SAPT in psi4, default
symmetry c1  #important for SAPT in psi4, default
}

set PROPERTIES_ORIGIN ["COM"]
properties('MP2/aug-cc-pvtz', properties = ['dipole'])
--------------------------------------------------------------------------

    Molecular point group: c1
  Charge       = 0
  Multiplicity = 1
  Basis Set: AUG-CC-PVTZ
    Blend: AUG-CC-PVTZ
  Basis Set: (AUG-CC-PVTZ AUX)
    Blend: AUG-CC-PVTZ-JKFIT

    Orbital Energies [Eh]
    ---------------------

    Doubly Occupied:

       1A    -26.280629     2A    -20.577906     3A    -11.318690
       4A    -11.288304     5A    -11.241019     6A     -1.586462
       7A     -1.354251     8A     -1.071487     9A     -0.922507
      10A     -0.838181    11A     -0.715832    12A     -0.697734
      13A     -0.673789    14A     -0.668398    15A     -0.614752
      16A     -0.592270    17A     -0.571785    18A     -0.515235
      19A     -0.509127    20A     -0.490136    21A     -0.453188

  @DF-RHF Final Energy:  -292.06908511452212

   => Energetics <=

    Nuclear Repulsion Energy =            181.4647344829716644
    One-Electron Energy =                -761.1042761167137769
    Two-Electron Energy =                 287.5704565192199311
    Total Energy =                       -292.0690851145221245
  Basis Set: (AUG-CC-PVTZ AUX)
    Blend: AUG-CC-PVTZ-RI
    Molecular point group: c1

    Geometry (in Angstrom), charge = 0, multiplicity = 1:

       Center              X                  Y                   Z               Mass
    ------------   -----------------  -----------------  -----------------  -----------------
         F           -2.346356601017    -0.359324038210     0.000562596016    18.998403162730
         O            2.553691698983    -0.158686738210    -0.078877503984    15.994914619570
         C            0.029785398983    -0.347665038210    -0.023219403984    12.000000000000
         C            1.294514398983     0.500615961790     0.035526596016    12.000000000000
         C           -1.232476601017     0.487419961790     0.024118596016    12.000000000000
         H            0.011721398983    -1.048624038210     0.819953596016     1.007825032230
         H            0.039462398983    -0.940331038210    -0.942388403984     1.007825032230
         H            1.313823398983     1.097287961790     0.960044596016     1.007825032230
         H            1.325536398983     1.199505961790    -0.804881403984     1.007825032230
         H           -1.301556601017     1.158109961790    -0.838705403984     1.007825032230
         H           -1.286313601017     1.086309961790     0.939609596016     1.007825032230
         H            2.505983398983    -0.884992038210     0.673889596016     1.007825032230

  Basis Set: AUG-CC-PVTZ
    Blend: AUG-CC-PVTZ
  Basis Set: (AUG-CC-PVTZ AUX)
    Blend: AUG-CC-PVTZ-JKFIT
	 Reference Energy          =    -292.0690851145221245 [Eh]
	 Singles Energy            =      -0.0000000000000000 [Eh]
	 Same-Spin Energy          =      -0.2628390222064838 [Eh]
	 Opposite-Spin Energy      =      -0.8623171151585565 [Eh]
	 Correlation Energy        =      -1.1251561373650403 [Eh]
	 Total Energy              =    -293.1942412518871492 [Eh]

	 ================> DF-SCS-MP2 Energies <==================
	-----------------------------------------------------------
	 SCS Same-Spin Scale       =       0.3333333333333333 [-]
	 SCS Opposite-Spin Scale   =       1.2000000000000000 [-]
	 SCS Same-Spin Energy      =      -0.0876130074021613 [Eh]
	 SCS Opposite-Spin Energy  =      -1.0347805381902677 [Eh]
	 SCS Correlation Energy    =      -1.1223935455924290 [Eh]
	 SCS Total Energy          =    -293.1914786601145693 [Eh]
	-----------------------------------------------------------

  Dipole Moment: [D]
     X:     0.2680      Y:     0.6334      Z:     1.0987     Total:     1.2962

*** Psi4 exiting successfully. Buy a developer a beer!
