                               Psi4 1.4a3.dev225

  ==> Input File <==

--------------------------------------------------------------------------
#psi4
#
memory 32 gb

molecule  {
0 1
  F       -2.3905990    -0.3589170    -0.0065240
  O        2.4327270    -0.2857950    -0.0983550
  C       -0.0144620    -0.3474730    -0.0305520
  C        1.2501660     0.5009030     0.0283150
  C       -1.2368988     0.5179174     0.0177525
  H       -0.0324870    -1.0484940     0.8125610
  H       -0.0047440    -0.9399880    -0.9498040
  H        1.2693770     1.0974880     0.9528950
  H        1.2812390     1.1998900    -0.8120130
  H       -1.3457900     1.1584290    -0.8458720
  H       -1.3303370     1.0865880     0.9324180
  H        2.4623010    -0.8838830     0.6672960
units angstrom
no_reorient  #important for SAPT in psi4, default
symmetry c1  #important for SAPT in psi4, default
}

set PROPERTIES_ORIGIN ["COM"]
properties('MP2/aug-cc-pvtz', properties = ['dipole'])
--------------------------------------------------------------------------

    Molecular point group: c1
  Charge       = 0
  Multiplicity = 1
  Basis Set: AUG-CC-PVTZ
    Blend: AUG-CC-PVTZ
  Basis Set: (AUG-CC-PVTZ AUX)
    Blend: AUG-CC-PVTZ-JKFIT

    Orbital Energies [Eh]
    ---------------------

    Doubly Occupied:

       1A    -26.266619     2A    -20.569788     3A    -11.316093
       4A    -11.291401     5A    -11.238419     6A     -1.560414
       7A     -1.367145     8A     -1.076410     9A     -0.926829
      10A     -0.840800    11A     -0.715283    12A     -0.691875
      13A     -0.670195    14A     -0.653594    15A     -0.615239
      16A     -0.591170    17A     -0.569652    18A     -0.526498
      19A     -0.514973    20A     -0.491978    21A     -0.455246

  @DF-RHF Final Energy:  -292.07811549961980

   => Energetics <=

    Nuclear Repulsion Energy =            182.1082404406879505
    One-Electron Energy =                -762.4734723735457464
    Two-Electron Energy =                 288.2871164332379976
    Total Energy =                       -292.0781154996197984
  Basis Set: (AUG-CC-PVTZ AUX)
    Blend: AUG-CC-PVTZ-RI
    Molecular point group: c1

    Geometry (in Angstrom), charge = 0, multiplicity = 1:

       Center              X                  Y                   Z               Mass
    ------------   -----------------  -----------------  -----------------  -----------------
         F           -2.336746468062    -0.337765302509     0.003053826537    18.998403162730
         O            2.486579531938    -0.264643302509    -0.088777173463    15.994914619570
         C            0.039390531938    -0.326321302509    -0.020974173463    12.000000000000
         C            1.304018531938     0.522054697491     0.037892826537    12.000000000000
         C           -1.183046268062     0.539069097491     0.027330326537    12.000000000000
         H            0.021365531938    -1.027342302509     0.822138826537     1.007825032230
         H            0.049108531938    -0.918836302509    -0.940226173463     1.007825032230
         H            1.323229531938     1.118639697491     0.962472826537     1.007825032230
         H            1.335091531938     1.221041697491    -0.802435173463     1.007825032230
         H           -1.291937468062     1.179580697491    -0.836294173463     1.007825032230
         H           -1.276484468062     1.107739697491     0.941995826537     1.007825032230
         H            2.516153531938    -0.862731302509     0.676873826537     1.007825032230

  Basis Set: AUG-CC-PVTZ
    Blend: AUG-CC-PVTZ
  Basis Set: (AUG-CC-PVTZ AUX)
    Blend: AUG-CC-PVTZ-JKFIT
	 Reference Energy          =    -292.0781154996197984 [Eh]
	 Singles Energy            =      -0.0000000000000000 [Eh]
	 Same-Spin Energy          =      -0.2620455781546199 [Eh]
	 Opposite-Spin Energy      =      -0.8604088896173405 [Eh]
	 Correlation Energy        =      -1.1224544677719606 [Eh]
	 Total Energy              =    -293.2005699673917434 [Eh]

	 ================> DF-SCS-MP2 Energies <==================
	-----------------------------------------------------------
	 SCS Same-Spin Scale       =       0.3333333333333333 [-]
	 SCS Opposite-Spin Scale   =       1.2000000000000000 [-]
	 SCS Same-Spin Energy      =      -0.0873485260515400 [Eh]
	 SCS Opposite-Spin Energy  =      -1.0324906675408085 [Eh]
	 SCS Correlation Energy    =      -1.1198391935923484 [Eh]
	 SCS Total Energy          =    -293.1979546932121252 [Eh]
	-----------------------------------------------------------

  Dipole Moment: [D]
     X:     0.6701      Y:     1.0091      Z:     1.2024     Total:     1.7068

*** Psi4 exiting successfully. Buy a developer a beer!
