                               Psi4 1.4a3.dev225

  ==> Input File <==

--------------------------------------------------------------------------
#psi4
#
memory 32 gb

molecule  {
0 1
  F       -2.3905990    -0.3589170    -0.0065240
  O        2.4327270    -0.2857950    -0.0983550
  C       -0.0144620    -0.3474730    -0.0305520
  C        1.2501660     0.5009030     0.0283150
  C       -1.2767010     0.4876670     0.0169150
  H       -0.0324870    -1.0484940     0.8125610
  H       -0.0047440    -0.9399880    -0.9498040
  H        1.2693770     1.0974880     0.9528950
  H        1.2812390     1.1998900    -0.8120130
  H       -1.3457900     1.1584290    -0.8458720
  H       -1.3303370     1.0865880     0.9324180
  H        2.4607797    -0.8531175     0.6279111
units angstrom
no_reorient  #important for SAPT in psi4, default
symmetry c1  #important for SAPT in psi4, default
}

set PROPERTIES_ORIGIN ["COM"]
properties('MP2/aug-cc-pvtz', properties = ['dipole'])
--------------------------------------------------------------------------

    Molecular point group: c1
  Charge       = 0
  Multiplicity = 1
  Basis Set: AUG-CC-PVTZ
    Blend: AUG-CC-PVTZ
  Basis Set: (AUG-CC-PVTZ AUX)
    Blend: AUG-CC-PVTZ-JKFIT

    Orbital Energies [Eh]
    ---------------------

    Doubly Occupied:

       1A    -26.278558     2A    -20.564068     3A    -11.316068
       4A    -11.290615     5A    -11.237174     6A     -1.584543
       7A     -1.378047     8A     -1.071414     9A     -0.928989
      10A     -0.841441    11A     -0.720129    12A     -0.703012
      13A     -0.682206    14A     -0.667053    15A     -0.622209
      16A     -0.593990    17A     -0.569881    18A     -0.518518
      19A     -0.508283    20A     -0.490204    21A     -0.455928

  @DF-RHF Final Energy:  -292.08176447001307

   => Energetics <=

    Nuclear Repulsion Energy =            182.6687005771975123
    One-Electron Energy =                -763.4562664128677625
    Two-Electron Energy =                 288.7058013656571234
    Total Energy =                       -292.0817644700130700
  Basis Set: (AUG-CC-PVTZ AUX)
    Blend: AUG-CC-PVTZ-RI
    Molecular point group: c1

    Geometry (in Angstrom), charge = 0, multiplicity = 1:

       Center              X                  Y                   Z               Mass
    ------------   -----------------  -----------------  -----------------  -----------------
         F           -2.330607181556    -0.333511533503     0.003691165468    18.998403162730
         O            2.492718818444    -0.260389533503    -0.088139834532    15.994914619570
         C            0.045529818444    -0.322067533503    -0.020336834532    12.000000000000
         C            1.310157818444     0.526308466497     0.038530165468    12.000000000000
         C           -1.216709181556     0.513072466497     0.027130165468    12.000000000000
         H            0.027504818444    -1.023088533503     0.822776165468     1.007825032230
         H            0.055247818444    -0.914582533503    -0.939588834532     1.007825032230
         H            1.329368818444     1.122893466497     0.963110165468     1.007825032230
         H            1.341230818444     1.225295466497    -0.801797834532     1.007825032230
         H           -1.285798181556     1.183834466497    -0.835656834532     1.007825032230
         H           -1.270345181556     1.111993466497     0.942633165468     1.007825032230
         H            2.520771518444    -0.827712033503     0.638126265468     1.007825032230

  Basis Set: AUG-CC-PVTZ
    Blend: AUG-CC-PVTZ
  Basis Set: (AUG-CC-PVTZ AUX)
    Blend: AUG-CC-PVTZ-JKFIT
	 Reference Energy          =    -292.0817644700130700 [Eh]
	 Singles Energy            =      -0.0000000000000000 [Eh]
	 Same-Spin Energy          =      -0.2612150722745435 [Eh]
	 Opposite-Spin Energy      =      -0.8578694255172143 [Eh]
	 Correlation Energy        =      -1.1190844977917578 [Eh]
	 Total Energy              =    -293.2008489678048022 [Eh]

	 ================> DF-SCS-MP2 Energies <==================
	-----------------------------------------------------------
	 SCS Same-Spin Scale       =       0.3333333333333333 [-]
	 SCS Opposite-Spin Scale   =       1.2000000000000000 [-]
	 SCS Same-Spin Energy      =      -0.0870716907581812 [Eh]
	 SCS Opposite-Spin Energy  =      -1.0294433106206571 [Eh]
	 SCS Correlation Energy    =      -1.1165150013788383 [Eh]
	 SCS Total Energy          =    -293.1982794713919134 [Eh]
	-----------------------------------------------------------

  Dipole Moment: [D]
     X:     0.4524      Y:     0.9243      Z:     1.1725     Total:     1.5601

*** Psi4 exiting successfully. Buy a developer a beer!
