                               Psi4 1.3.2 release

  ==> Input File <==

--------------------------------------------------------------------------
#psi4
#
memory 32 gb

molecule  {
0 1
  F       -2.3906030    -0.3590020    -0.0066210
  O        2.4042589    -0.3264493    -0.1021600
  C       -0.0144610    -0.3473430    -0.0304030
  C        1.2502680     0.5009380     0.0283430
  C       -1.2767230     0.4877420     0.0169350
  H       -0.0325250    -1.0483020     0.8127700
  H       -0.0047840    -0.9400090    -0.9495720
  H        1.2695770     1.0976100     0.9528610
  H        1.2812900     1.1998280    -0.8120650
  H       -1.3458030     1.1584320    -0.8458890
  H       -1.3305600     1.0866320     0.9324260
  H        2.4617370    -0.8846700     0.6667060
units angstrom
no_reorient  #important for SAPT in psi4, default
symmetry c1  #important for SAPT in psi4, default
}

set PROPERTIES_ORIGIN ["COM"]
properties('MP2/aug-cc-pvtz', properties = ['dipole'])
--------------------------------------------------------------------------

    Molecular point group: c1
  Charge       = 0
  Multiplicity = 1
  Basis Set: AUG-CC-PVTZ
    Blend: AUG-CC-PVTZ
  Basis Set: (AUG-CC-PVTZ AUX)
    Blend: AUG-CC-PVTZ-JKFIT

    Orbital Energies [Eh]
    ---------------------

    Doubly Occupied:

       1A    -26.277510     2A    -20.566237     3A    -11.314720
       4A    -11.290734     5A    -11.235444     6A     -1.583525
       7A     -1.369990     8A     -1.069669     9A     -0.927139
      10A     -0.839343    11A     -0.717984    12A     -0.700388
      13A     -0.681877    14A     -0.665916    15A     -0.620467
      16A     -0.592154    17A     -0.568065    18A     -0.517777
      19A     -0.507039    20A     -0.488906    21A     -0.454258

  @DF-RHF Final Energy:  -292.08194932004318

   => Energetics <=

    Nuclear Repulsion Energy =            182.7001796195046950
    One-Electron Energy =                -763.5859797228717980
    Two-Electron Energy =                 288.8038507833238668
    Total Energy =                       -292.0819493200431793
  Basis Set: (AUG-CC-PVTZ AUX)
    Blend: AUG-CC-PVTZ-RI
    Molecular point group: c1

    Geometry (in Angstrom), charge = 0, multiplicity = 1:

       Center              X                  Y                   Z               Mass
    ------------   -----------------  -----------------  -----------------  -----------------
         F           -2.324800052711    -0.324877343585     0.003861850630    18.998403162730
         O            2.470061847289    -0.292324643585    -0.091677149370    15.994914619570
         C            0.051341947289    -0.313218343585    -0.019920149370    12.000000000000
         C            1.316070947289     0.535062656415     0.038825850630    12.000000000000
         C           -1.210920052711     0.521866656415     0.027417850630    12.000000000000
         H            0.033277947289    -1.014177343585     0.823252850630     1.007825032230
         H            0.061018947289    -0.905884343585    -0.939089149370     1.007825032230
         H            1.335379947289     1.131734656415     0.963343850630     1.007825032230
         H            1.347092947289     1.233952656415    -0.801582149370     1.007825032230
         H           -1.280000052711     1.192556656415    -0.835406149370     1.007825032230
         H           -1.264757052711     1.120756656415     0.942908850630     1.007825032230
         H            2.527539947289    -0.850545343585     0.677188850630     1.007825032230

  Basis Set: AUG-CC-PVTZ
    Blend: AUG-CC-PVTZ
  Basis Set: (AUG-CC-PVTZ AUX)
    Blend: AUG-CC-PVTZ-JKFIT
	 Reference Energy          =    -292.0819493200431793 [Eh]
	 Singles Energy            =      -0.0000000000000000 [Eh]
	 Same-Spin Energy          =      -0.2615179252165265 [Eh]
	 Opposite-Spin Energy      =      -0.8586391838975138 [Eh]
	 Correlation Energy        =      -1.1201571091140403 [Eh]
	 Total Energy              =    -293.2021064291571975 [Eh]

	 ================> DF-SCS-MP2 Energies <==================
	-----------------------------------------------------------
	 SCS Same-Spin Scale       =       0.3333333333333333 [-]
	 SCS Opposite-Spin Scale   =       1.2000000000000000 [-]
	 SCS Same-Spin Energy      =      -0.0871726417388422 [Eh]
	 SCS Opposite-Spin Energy  =      -1.0303670206770166 [Eh]
	 SCS Correlation Energy    =      -1.1175396624158587 [Eh]
	 SCS Total Energy          =    -293.1994889824590587 [Eh]
	-----------------------------------------------------------

  Dipole Moment: [D]
     X:     0.5482      Y:     0.9870      Z:     1.2284     Total:     1.6684

*** Psi4 exiting successfully. Buy a developer a beer!
