                               Psi4 1.3.2 release

  ==> Input File <==

--------------------------------------------------------------------------
#psi4
#
memory 32 gb

molecule  {
0 1
  F       -2.3906030    -0.3590020    -0.0066210
  O        2.4327490    -0.2858150    -0.0983620
  C       -0.0144610    -0.3473430    -0.0304030
  C        1.3331946     0.4457635     0.0194573
  C       -1.2767230     0.4877420     0.0169350
  H       -0.0325250    -1.0483020     0.8127700
  H       -0.0047840    -0.9400090    -0.9495720
  H        1.2695770     1.0976100     0.9528610
  H        1.2812900     1.1998280    -0.8120650
  H       -1.3458030     1.1584320    -0.8458890
  H       -1.3305600     1.0866320     0.9324260
  H        2.4617370    -0.8846700     0.6667060
units angstrom
no_reorient  #important for SAPT in psi4, default
symmetry c1  #important for SAPT in psi4, default
}

set PROPERTIES_ORIGIN ["COM"]
properties('MP2/aug-cc-pvtz', properties = ['dipole'])
--------------------------------------------------------------------------

    Molecular point group: c1
  Charge       = 0
  Multiplicity = 1
  Basis Set: AUG-CC-PVTZ
    Blend: AUG-CC-PVTZ
  Basis Set: (AUG-CC-PVTZ AUX)
    Blend: AUG-CC-PVTZ-JKFIT

    Orbital Energies [Eh]
    ---------------------

    Doubly Occupied:

       1A    -26.277113     2A    -20.579897     3A    -11.314198
       4A    -11.293818     5A    -11.234031     6A     -1.582848
       7A     -1.412267     8A     -1.059089     9A     -0.921700
      10A     -0.839391    11A     -0.724891    12A     -0.704229
      13A     -0.681414    14A     -0.669385    15A     -0.634226
      16A     -0.607093    17A     -0.576394    18A     -0.509921
      19A     -0.506647    20A     -0.474961    21A     -0.439255

  @DF-RHF Final Energy:  -292.07220905435690

   => Energetics <=

    Nuclear Repulsion Energy =            182.8328301728752479
    One-Electron Energy =                -763.7245439478117532
    Two-Electron Energy =                 288.8195047205796300
    Total Energy =                       -292.0722090543569038
  Basis Set: (AUG-CC-PVTZ AUX)
    Blend: AUG-CC-PVTZ-RI
    Molecular point group: c1

    Geometry (in Angstrom), charge = 0, multiplicity = 1:

       Center              X                  Y                   Z               Mass
    ------------   -----------------  -----------------  -----------------  -----------------
         F           -2.343388795384    -0.324721646753     0.004449689647    18.998403162730
         O            2.479963204616    -0.251534646753    -0.087291310353    15.994914619570
         C            0.032753204616    -0.313062646753    -0.019332310353    12.000000000000
         C            1.380408804616     0.480043853247     0.030527989647    12.000000000000
         C           -1.229508795384     0.522022353247     0.028005689647    12.000000000000
         H            0.014689204616    -1.014021646753     0.823840689647     1.007825032230
         H            0.042430204616    -0.905728646753    -0.938501310353     1.007825032230
         H            1.316791204616     1.131890353247     0.963931689647     1.007825032230
         H            1.328504204616     1.234108353247    -0.800994310353     1.007825032230
         H           -1.298588795384     1.192712353247    -0.834818310353     1.007825032230
         H           -1.283345795384     1.120912353247     0.943496689647     1.007825032230
         H            2.508951204616    -0.850389646753     0.677776689647     1.007825032230

  Basis Set: AUG-CC-PVTZ
    Blend: AUG-CC-PVTZ
  Basis Set: (AUG-CC-PVTZ AUX)
    Blend: AUG-CC-PVTZ-JKFIT
	 Reference Energy          =    -292.0722090543569038 [Eh]
	 Singles Energy            =      -0.0000000000000000 [Eh]
	 Same-Spin Energy          =      -0.2618037687103575 [Eh]
	 Opposite-Spin Energy      =      -0.8582759765224991 [Eh]
	 Correlation Energy        =      -1.1200797452328566 [Eh]
	 Total Energy              =    -293.1922887995897327 [Eh]

	 ================> DF-SCS-MP2 Energies <==================
	-----------------------------------------------------------
	 SCS Same-Spin Scale       =       0.3333333333333333 [-]
	 SCS Opposite-Spin Scale   =       1.2000000000000000 [-]
	 SCS Same-Spin Energy      =      -0.0872679229034525 [Eh]
	 SCS Opposite-Spin Energy  =      -1.0299311718269988 [Eh]
	 SCS Correlation Energy    =      -1.1171990947304513 [Eh]
	 SCS Total Energy          =    -293.1894081490873418 [Eh]
	-----------------------------------------------------------

  Dipole Moment: [D]
     X:     0.8511      Y:     0.6871      Z:     1.1688     Total:     1.6008

*** Psi4 exiting successfully. Buy a developer a beer!
