                               Psi4 1.3.2 release

  ==> Input File <==

--------------------------------------------------------------------------
#psi4
#
memory 32 gb

molecule  {
0 1
  F       -2.3983262    -0.3479239    -0.0269713
  O        2.4327490    -0.2858150    -0.0983620
  C       -0.0144610    -0.3473430    -0.0304030
  C        1.2502680     0.5009380     0.0283430
  C       -1.2767230     0.4877420     0.0169350
  H       -0.0325250    -1.0483020     0.8127700
  H       -0.0047840    -0.9400090    -0.9495720
  H        1.2695770     1.0976100     0.9528610
  H        1.2812900     1.1998280    -0.8120650
  H       -1.3458030     1.1584320    -0.8458890
  H       -1.3305600     1.0866320     0.9324260
  H        2.4617370    -0.8846700     0.6667060
units angstrom
no_reorient  #important for SAPT in psi4, default
symmetry c1  #important for SAPT in psi4, default
}

set PROPERTIES_ORIGIN ["COM"]
properties('MP2/aug-cc-pvtz', properties = ['dipole'])
--------------------------------------------------------------------------

    Molecular point group: c1
  Charge       = 0
  Multiplicity = 1
  Basis Set: AUG-CC-PVTZ
    Blend: AUG-CC-PVTZ
  Basis Set: (AUG-CC-PVTZ AUX)
    Blend: AUG-CC-PVTZ-JKFIT

    Orbital Energies [Eh]
    ---------------------

    Doubly Occupied:

       1A    -26.278287     2A    -20.569095     3A    -11.315738
       4A    -11.290357     5A    -11.237135     6A     -1.584213
       7A     -1.366289     8A     -1.070277     9A     -0.926008
      10A     -0.839478    11A     -0.717044    12A     -0.699373
      13A     -0.680158    14A     -0.666826    15A     -0.619574
      16A     -0.593054    17A     -0.568866    18A     -0.517659
      19A     -0.507059    20A     -0.489241    21A     -0.454940

  @DF-RHF Final Energy:  -292.08118208826056

   => Energetics <=

    Nuclear Repulsion Energy =            182.3098279873306637
    One-Electron Energy =                -762.8006768410423319
    Two-Electron Energy =                 288.4096667654511066
    Total Energy =                       -292.0811820882605616
  Basis Set: (AUG-CC-PVTZ AUX)
    Blend: AUG-CC-PVTZ-RI
    Molecular point group: c1

    Geometry (in Angstrom), charge = 0, multiplicity = 1:

       Center              X                  Y                   Z               Mass
    ------------   -----------------  -----------------  -----------------  -----------------
         F           -2.336481943280    -0.324823322920    -0.012313145329    18.998403162730
         O            2.494593256720    -0.262714422920    -0.083703845329    15.994914619570
         C            0.047383256720    -0.324242422920    -0.015744845329    12.000000000000
         C            1.312112256720     0.524038577080     0.043001154671    12.000000000000
         C           -1.214878743280     0.510842577080     0.031593154671    12.000000000000
         H            0.029319256720    -1.025201422920     0.827428154671     1.007825032230
         H            0.057060256720    -0.916908422920    -0.934913845329     1.007825032230
         H            1.331421256720     1.120710577080     0.967519154671     1.007825032230
         H            1.343134256720     1.222928577080    -0.797406845329     1.007825032230
         H           -1.283958743280     1.181532577080    -0.831230845329     1.007825032230
         H           -1.268715743280     1.109732577080     0.947084154671     1.007825032230
         H            2.523581256720    -0.861569422920     0.681364154671     1.007825032230

  Basis Set: AUG-CC-PVTZ
    Blend: AUG-CC-PVTZ
  Basis Set: (AUG-CC-PVTZ AUX)
    Blend: AUG-CC-PVTZ-JKFIT
	 Reference Energy          =    -292.0811820882605616 [Eh]
	 Singles Energy            =      -0.0000000000000000 [Eh]
	 Same-Spin Energy          =      -0.2617653638673308 [Eh]
	 Opposite-Spin Energy      =      -0.8593302811846777 [Eh]
	 Correlation Energy        =      -1.1210956450520086 [Eh]
	 Total Energy              =    -293.2022777333125987 [Eh]

	 ================> DF-SCS-MP2 Energies <==================
	-----------------------------------------------------------
	 SCS Same-Spin Scale       =       0.3333333333333333 [-]
	 SCS Opposite-Spin Scale   =       1.2000000000000000 [-]
	 SCS Same-Spin Energy      =      -0.0872551212891103 [Eh]
	 SCS Opposite-Spin Energy  =      -1.0311963374216131 [Eh]
	 SCS Correlation Energy    =      -1.1184514587107235 [Eh]
	 SCS Total Energy          =    -293.1996335469713131 [Eh]
	-----------------------------------------------------------

  Dipole Moment: [D]
     X:     0.4843      Y:     0.8817      Z:     1.2241     Total:     1.5844

*** Psi4 exiting successfully. Buy a developer a beer!
