                               Psi4 1.3.2 release

  ==> Input File <==

--------------------------------------------------------------------------
#psi4
#
memory 32 gb

molecule  {
0 1
  F       -2.3906030    -0.3590020    -0.0066210
  O        2.4327490    -0.2858150    -0.0983620
  C       -0.0144610    -0.3473430    -0.0304030
  C        1.2502680     0.5009380     0.0283430
  C       -1.2767230     0.4877420     0.0169350
  H       -0.0325250    -1.0483020     0.8127700
  H       -0.0047840    -0.9400090    -0.9495720
  H        1.2695770     1.0976100     0.9528610
  H        1.2812900     1.1998280    -0.8120650
  H       -1.3458030     1.1584320    -0.8458890
  H       -1.3305600     1.0866320     0.9324260
  H        2.4617370    -0.8846700     0.6667060
units angstrom
no_reorient  #important for SAPT in psi4, default
symmetry c1  #important for SAPT in psi4, default
}

set PROPERTIES_ORIGIN ["COM"]
properties('MP2/aug-cc-pvtz', properties = ['dipole'])
--------------------------------------------------------------------------

    Molecular point group: c1
  Charge       = 0
  Multiplicity = 1
  Basis Set: AUG-CC-PVTZ
    Blend: AUG-CC-PVTZ
  Basis Set: (AUG-CC-PVTZ AUX)
    Blend: AUG-CC-PVTZ-JKFIT

    Orbital Energies [Eh]
    ---------------------

    Doubly Occupied:

       1A    -26.278345     2A    -20.568912     3A    -11.315809
       4A    -11.290117     5A    -11.236846     6A     -1.584314
       7A     -1.366118     8A     -1.070132     9A     -0.925961
      10A     -0.839371    11A     -0.716907    12A     -0.699762
      13A     -0.680215    14A     -0.666629    15A     -0.619250
      16A     -0.592782    17A     -0.569023    18A     -0.517470
      19A     -0.507390    20A     -0.489118    21A     -0.454650

  @DF-RHF Final Energy:  -292.08120081250280

   => Energetics <=

    Nuclear Repulsion Energy =            182.3797600502099385
    One-Electron Energy =                -762.9436764628258061
    Two-Electron Energy =                 288.4827156001130675
    Total Energy =                       -292.0812008125028001
  Basis Set: (AUG-CC-PVTZ AUX)
    Blend: AUG-CC-PVTZ-RI
    Molecular point group: c1

    Geometry (in Angstrom), charge = 0, multiplicity = 1:

       Center              X                  Y                   Z               Mass
    ------------   -----------------  -----------------  -----------------  -----------------
         F           -2.330638718327    -0.333204800850     0.003083501238    18.998403162730
         O            2.492713281673    -0.260017800850    -0.088657498762    15.994914619570
         C            0.045503281673    -0.321545800850    -0.020698498762    12.000000000000
         C            1.310232281673     0.526735199150     0.038047501238    12.000000000000
         C           -1.216758718327     0.513539199150     0.026639501238    12.000000000000
         H            0.027439281673    -1.022504800850     0.822474501238     1.007825032230
         H            0.055180281673    -0.914211800850    -0.939867498762     1.007825032230
         H            1.329541281673     1.123407199150     0.962565501238     1.007825032230
         H            1.341254281673     1.225625199150    -0.802360498762     1.007825032230
         H           -1.285838718327     1.184229199150    -0.836184498762     1.007825032230
         H           -1.270595718327     1.112429199150     0.942130501238     1.007825032230
         H            2.521701281673    -0.858872800850     0.676410501238     1.007825032230

  Basis Set: AUG-CC-PVTZ
    Blend: AUG-CC-PVTZ
  Basis Set: (AUG-CC-PVTZ AUX)
    Blend: AUG-CC-PVTZ-JKFIT
	 Reference Energy          =    -292.0812008125028001 [Eh]
	 Singles Energy            =      -0.0000000000000000 [Eh]
	 Same-Spin Energy          =      -0.2617678780101150 [Eh]
	 Opposite-Spin Energy      =      -0.8593349281677805 [Eh]
	 Correlation Energy        =      -1.1211028061778956 [Eh]
	 Total Energy              =    -293.2023036186806735 [Eh]

	 ================> DF-SCS-MP2 Energies <==================
	-----------------------------------------------------------
	 SCS Same-Spin Scale       =       0.3333333333333333 [-]
	 SCS Opposite-Spin Scale   =       1.2000000000000000 [-]
	 SCS Same-Spin Energy      =      -0.0872559593367050 [Eh]
	 SCS Opposite-Spin Energy  =      -1.0312019138013364 [Eh]
	 SCS Correlation Energy    =      -1.1184578731380415 [Eh]
	 SCS Total Energy          =    -293.1996586856408271 [Eh]
	-----------------------------------------------------------

  Dipole Moment: [D]
     X:     0.4683      Y:     0.8968      Z:     1.1979     Total:     1.5679

*** Psi4 exiting successfully. Buy a developer a beer!
