                               Psi4 1.3.2 release

  ==> Input File <==

--------------------------------------------------------------------------
#psi4
#
memory 32 gb

molecule  {
0 1
  F       -2.3563425    -0.4007025     0.0747899
  O        2.4327490    -0.2858150    -0.0983620
  C       -0.0144610    -0.3473430    -0.0304030
  C        1.2502680     0.5009380     0.0283430
  C       -1.2767230     0.4877420     0.0169350
  H       -0.0325250    -1.0483020     0.8127700
  H       -0.0047840    -0.9400090    -0.9495720
  H        1.2695770     1.0976100     0.9528610
  H        1.2812900     1.1998280    -0.8120650
  H       -1.3458030     1.1584320    -0.8458890
  H       -1.3305600     1.0866320     0.9324260
  H        2.4617370    -0.8846700     0.6667060
units angstrom
no_reorient  #important for SAPT in psi4, default
symmetry c1  #important for SAPT in psi4, default
}

set PROPERTIES_ORIGIN ["COM"]
properties('MP2/aug-cc-pvtz', properties = ['dipole'])
--------------------------------------------------------------------------

    Molecular point group: c1
  Charge       = 0
  Multiplicity = 1
  Basis Set: AUG-CC-PVTZ
    Blend: AUG-CC-PVTZ
  Basis Set: (AUG-CC-PVTZ AUX)
    Blend: AUG-CC-PVTZ-JKFIT

    Orbital Energies [Eh]
    ---------------------

    Doubly Occupied:

       1A    -26.278530     2A    -20.568139     3A    -11.316078
       4A    -11.289092     5A    -11.235653     6A     -1.584837
       7A     -1.365387     8A     -1.069501     9A     -0.925750
      10A     -0.838980    11A     -0.716516    12A     -0.701491
      13A     -0.680373    14A     -0.665765    15A     -0.617996
      16A     -0.591520    17A     -0.569438    18A     -0.516760
      19A     -0.508362    20A     -0.488359    21A     -0.453405

  @DF-RHF Final Energy:  -292.08016548770991

   => Energetics <=

    Nuclear Repulsion Energy =            182.6867448934715412
    One-Electron Energy =                -763.5699535626253009
    Two-Electron Energy =                 288.8030431814438543
    Total Energy =                       -292.0801654877099054
  Basis Set: (AUG-CC-PVTZ AUX)
    Blend: AUG-CC-PVTZ-RI
    Molecular point group: c1

    Geometry (in Angstrom), charge = 0, multiplicity = 1:

       Center              X                  Y                   Z               Mass
    ------------   -----------------  -----------------  -----------------  -----------------
         F           -2.304717881302    -0.364754599141     0.064677426339    18.998403162730
         O            2.484373618698    -0.249867099141    -0.108474473661    15.994914619570
         C            0.037163618698    -0.311395099141    -0.040515473661    12.000000000000
         C            1.301892618698     0.536885900859     0.018230526339    12.000000000000
         C           -1.225098381302     0.523689900859     0.006822526339    12.000000000000
         H            0.019099618698    -1.012354099141     0.802657526339     1.007825032230
         H            0.046840618698    -0.904061099141    -0.959684473661     1.007825032230
         H            1.321201618698     1.133557900859     0.942748526339     1.007825032230
         H            1.332914618698     1.235775900859    -0.822177473661     1.007825032230
         H           -1.294178381302     1.194379900859    -0.856001473661     1.007825032230
         H           -1.278935381302     1.122579900859     0.922313526339     1.007825032230
         H            2.513361618698    -0.848722099141     0.656593526339     1.007825032230

  Basis Set: AUG-CC-PVTZ
    Blend: AUG-CC-PVTZ
  Basis Set: (AUG-CC-PVTZ AUX)
    Blend: AUG-CC-PVTZ-JKFIT
	 Reference Energy          =    -292.0801654877099054 [Eh]
	 Singles Energy            =      -0.0000000000000000 [Eh]
	 Same-Spin Energy          =      -0.2618150072481256 [Eh]
	 Opposite-Spin Energy      =      -0.8594234192641905 [Eh]
	 Correlation Energy        =      -1.1212384265123161 [Eh]
	 Total Energy              =    -293.2014039142222259 [Eh]

	 ================> DF-SCS-MP2 Energies <==================
	-----------------------------------------------------------
	 SCS Same-Spin Scale       =       0.3333333333333333 [-]
	 SCS Opposite-Spin Scale   =       1.2000000000000000 [-]
	 SCS Same-Spin Energy      =      -0.0872716690827085 [Eh]
	 SCS Opposite-Spin Energy  =      -1.0313081031170286 [Eh]
	 SCS Correlation Energy    =      -1.1185797721997370 [Eh]
	 SCS Total Energy          =    -293.1987452599096287 [Eh]
	-----------------------------------------------------------

  Dipole Moment: [D]
     X:     0.3970      Y:     0.9525      Z:     1.0929     Total:     1.5031

*** Psi4 exiting successfully. Buy a developer a beer!
