                               Psi4 1.3.2 release

  ==> Input File <==

--------------------------------------------------------------------------
#psi4
#
memory 32 gb

molecule  {
0 1
  F       -2.4194368    -0.3131763    -0.0879171
  O        2.4327490    -0.2858150    -0.0983620
  C       -0.0144610    -0.3473430    -0.0304030
  C        1.2502680     0.5009380     0.0283430
  C       -1.2767230     0.4877420     0.0169350
  H       -0.0325250    -1.0483020     0.8127700
  H       -0.0047840    -0.9400090    -0.9495720
  H        1.2695770     1.0976100     0.9528610
  H        1.2812900     1.1998280    -0.8120650
  H       -1.3458030     1.1584320    -0.8458890
  H       -1.3305600     1.0866320     0.9324260
  H        2.4617370    -0.8846700     0.6667060
units angstrom
no_reorient  #important for SAPT in psi4, default
symmetry c1  #important for SAPT in psi4, default
}

set PROPERTIES_ORIGIN ["COM"]
properties('MP2/aug-cc-pvtz', properties = ['dipole'])
--------------------------------------------------------------------------

    Molecular point group: c1
  Charge       = 0
  Multiplicity = 1
  Basis Set: AUG-CC-PVTZ
    Blend: AUG-CC-PVTZ
  Basis Set: (AUG-CC-PVTZ AUX)
    Blend: AUG-CC-PVTZ-JKFIT

    Orbital Energies [Eh]
    ---------------------

    Doubly Occupied:

       1A    -26.278092     2A    -20.569614     3A    -11.315507
       4A    -11.291033     5A    -11.237980     6A     -1.583988
       7A     -1.366775     8A     -1.070677     9A     -0.926135
      10A     -0.839817    11A     -0.717529    12A     -0.698361
      13A     -0.679942    14A     -0.667360    15A     -0.620557
      16A     -0.593782    17A     -0.568283    18A     -0.518223
      19A     -0.505895    20A     -0.489415    21A     -0.455765

  @DF-RHF Final Energy:  -292.08045658974805

   => Energetics <=

    Nuclear Repulsion Energy =            182.1162511206801753
    One-Electron Energy =                -762.4039571354128384
    Two-Electron Energy =                 288.2072494249845818
    Total Energy =                       -292.0804565897480529
  Basis Set: (AUG-CC-PVTZ AUX)
    Blend: AUG-CC-PVTZ-RI
    Molecular point group: c1

    Geometry (in Angstrom), charge = 0, multiplicity = 1:

       Center              X                  Y                   Z               Mass
    ------------   -----------------  -----------------  -----------------  -----------------
         F           -2.352453818241    -0.298533955380    -0.058423568386    18.998403162730
         O            2.499731981759    -0.271172655380    -0.068868468386    15.994914619570
         C            0.052521981759    -0.332700655380    -0.000909468386    12.000000000000
         C            1.317250981759     0.515580344620     0.057836531614    12.000000000000
         C           -1.209740018241     0.502384344620     0.046428531614    12.000000000000
         H            0.034457981759    -1.033659655380     0.842263531614     1.007825032230
         H            0.062198981759    -0.925366655380    -0.920078468386     1.007825032230
         H            1.336559981759     1.112252344620     0.982354531614     1.007825032230
         H            1.348272981759     1.214470344620    -0.782571468386     1.007825032230
         H           -1.278820018241     1.173074344620    -0.816395468386     1.007825032230
         H           -1.263577018241     1.101274344620     0.961919531614     1.007825032230
         H            2.528719981759    -0.870027655380     0.696199531614     1.007825032230

  Basis Set: AUG-CC-PVTZ
    Blend: AUG-CC-PVTZ
  Basis Set: (AUG-CC-PVTZ AUX)
    Blend: AUG-CC-PVTZ-JKFIT
	 Reference Energy          =    -292.0804565897480529 [Eh]
	 Singles Energy            =      -0.0000000000000000 [Eh]
	 Same-Spin Energy          =      -0.2617806271852589 [Eh]
	 Opposite-Spin Energy      =      -0.8593594248353337 [Eh]
	 Correlation Energy        =      -1.1211400520205925 [Eh]
	 Total Energy              =    -293.2015966417686172 [Eh]

	 ================> DF-SCS-MP2 Energies <==================
	-----------------------------------------------------------
	 SCS Same-Spin Scale       =       0.3333333333333333 [-]
	 SCS Opposite-Spin Scale   =       1.2000000000000000 [-]
	 SCS Same-Spin Energy      =      -0.0872602090617529 [Eh]
	 SCS Opposite-Spin Energy  =      -1.0312313098024004 [Eh]
	 SCS Correlation Energy    =      -1.1184915188641533 [Eh]
	 SCS Total Energy          =    -293.1989481086122282 [Eh]
	-----------------------------------------------------------

  Dipole Moment: [D]
     X:     0.5280      Y:     0.8339      Z:     1.3026     Total:     1.6343

*** Psi4 exiting successfully. Buy a developer a beer!
