                               Psi4 1.3.2 release

  ==> Input File <==

--------------------------------------------------------------------------
#psi4
#
memory 32 gb

molecule  {
0 1
  F       -2.3906030    -0.3590020    -0.0066210
  O        2.4464559    -0.2651353    -0.0964048
  C       -0.0144610    -0.3473430    -0.0304030
  C        1.2502680     0.5009380     0.0283430
  C       -1.2767230     0.4877420     0.0169350
  H       -0.0325250    -1.0483020     0.8127700
  H       -0.0047840    -0.9400090    -0.9495720
  H        1.2695770     1.0976100     0.9528610
  H        1.2812900     1.1998280    -0.8120650
  H       -1.3458030     1.1584320    -0.8458890
  H       -1.3305600     1.0866320     0.9324260
  H        2.4617370    -0.8846700     0.6667060
units angstrom
no_reorient  #important for SAPT in psi4, default
symmetry c1  #important for SAPT in psi4, default
}

set PROPERTIES_ORIGIN ["COM"]
properties('MP2/aug-cc-pvtz', properties = ['dipole'])
--------------------------------------------------------------------------

    Molecular point group: c1
  Charge       = 0
  Multiplicity = 1
  Basis Set: AUG-CC-PVTZ
    Blend: AUG-CC-PVTZ
  Basis Set: (AUG-CC-PVTZ AUX)
    Blend: AUG-CC-PVTZ-JKFIT

    Orbital Energies [Eh]
    ---------------------

    Doubly Occupied:

       1A    -26.278748     2A    -20.570329     3A    -11.316328
       4A    -11.289802     5A    -11.237546     6A     -1.584694
       7A     -1.364132     8A     -1.070358     9A     -0.925359
      10A     -0.839297    11A     -0.716527    12A     -0.699411
      13A     -0.679248    14A     -0.666970    15A     -0.618577
      16A     -0.592944    17A     -0.569494    18A     -0.517232
      19A     -0.507622    20A     -0.489283    21A     -0.454659

  @DF-RHF Final Energy:  -292.08024890168565

   => Energetics <=

    Nuclear Repulsion Energy =            182.2219370667008889
    One-Electron Energy =                -762.6272488949302897
    Two-Electron Energy =                 288.3250629265437510
    Total Energy =                       -292.0802489016856498
  Basis Set: (AUG-CC-PVTZ AUX)
    Blend: AUG-CC-PVTZ-RI
    Molecular point group: c1

    Geometry (in Angstrom), charge = 0, multiplicity = 1:

       Center              X                  Y                   Z               Mass
    ------------   -----------------  -----------------  -----------------  -----------------
         F           -2.333447764477    -0.337442829265     0.002682399229    18.998403162730
         O            2.503611135523    -0.243576129265    -0.087101400771    15.994914619570
         C            0.042694235523    -0.325783829265    -0.021099600771    12.000000000000
         C            1.307423235523     0.522497170735     0.037646399229    12.000000000000
         C           -1.219567764477     0.509301170735     0.026238399229    12.000000000000
         H            0.024630235523    -1.026742829265     0.822073399229     1.007825032230
         H            0.052371235523    -0.918449829265    -0.940268600771     1.007825032230
         H            1.326732235523     1.119169170735     0.962164399229     1.007825032230
         H            1.338445235523     1.221387170735    -0.802761600771     1.007825032230
         H           -1.288647764477     1.179991170735    -0.836585600771     1.007825032230
         H           -1.273404764477     1.108191170735     0.941729399229     1.007825032230
         H            2.518892235523    -0.863110829265     0.676009399229     1.007825032230

  Basis Set: AUG-CC-PVTZ
    Blend: AUG-CC-PVTZ
  Basis Set: (AUG-CC-PVTZ AUX)
    Blend: AUG-CC-PVTZ-JKFIT
	 Reference Energy          =    -292.0802489016856498 [Eh]
	 Singles Energy            =      -0.0000000000000000 [Eh]
	 Same-Spin Energy          =      -0.2619141463506647 [Eh]
	 Opposite-Spin Energy      =      -0.8597392228349618 [Eh]
	 Correlation Energy        =      -1.1216533691856265 [Eh]
	 Total Energy              =    -293.2019022708713010 [Eh]

	 ================> DF-SCS-MP2 Energies <==================
	-----------------------------------------------------------
	 SCS Same-Spin Scale       =       0.3333333333333333 [-]
	 SCS Opposite-Spin Scale   =       1.2000000000000000 [-]
	 SCS Same-Spin Energy      =      -0.0873047154502216 [Eh]
	 SCS Opposite-Spin Energy  =      -1.0316870674019543 [Eh]
	 SCS Correlation Energy    =      -1.1189917828521758 [Eh]
	 SCS Total Energy          =    -293.1992406845378127 [Eh]
	-----------------------------------------------------------

  Dipole Moment: [D]
     X:     0.4309      Y:     0.8519      Z:     1.1821     Total:     1.5194

*** Psi4 exiting successfully. Buy a developer a beer!
