                               Psi4 1.3.2 release

  ==> Input File <==

--------------------------------------------------------------------------
#psi4
#
memory 32 gb

molecule  {
0 1
  F       -2.3906030    -0.3590020    -0.0066210
  O        2.4327490    -0.2858150    -0.0983620
  C       -0.0144610    -0.3473430    -0.0304030
  C        1.2308124     0.4518169     0.1126911
  C       -1.2767230     0.4877420     0.0169350
  H       -0.0325250    -1.0483020     0.8127700
  H       -0.0047840    -0.9400090    -0.9495720
  H        1.2695770     1.0976100     0.9528610
  H        1.2812900     1.1998280    -0.8120650
  H       -1.3458030     1.1584320    -0.8458890
  H       -1.3305600     1.0866320     0.9324260
  H        2.4617370    -0.8846700     0.6667060
units angstrom
no_reorient  #important for SAPT in psi4, default
symmetry c1  #important for SAPT in psi4, default
}

set PROPERTIES_ORIGIN ["COM"]
properties('MP2/aug-cc-pvtz', properties = ['dipole'])
--------------------------------------------------------------------------

    Molecular point group: c1
  Charge       = 0
  Multiplicity = 1
  Basis Set: AUG-CC-PVTZ
    Blend: AUG-CC-PVTZ
  Basis Set: (AUG-CC-PVTZ AUX)
    Blend: AUG-CC-PVTZ-JKFIT

    Orbital Energies [Eh]
    ---------------------

    Doubly Occupied:

       1A    -26.279517     2A    -20.573121     3A    -11.317399
       4A    -11.292502     5A    -11.237049     6A     -1.585391
       7A     -1.370718     8A     -1.076641     9A     -0.926464
      10A     -0.837094    11A     -0.720139    12A     -0.699594
      13A     -0.686368    14A     -0.669209    15A     -0.609241
      16A     -0.597491    17A     -0.577028    18A     -0.512227
      19A     -0.511418    20A     -0.469579    21A     -0.466832

  @DF-RHF Final Energy:  -292.06912571904957

   => Energetics <=

    Nuclear Repulsion Energy =            182.7810034411643016
    One-Electron Energy =                -763.6702199731278142
    Two-Electron Energy =                 288.8200908129139179
    Total Energy =                       -292.0691257190495662
  Basis Set: (AUG-CC-PVTZ AUX)
    Blend: AUG-CC-PVTZ-RI
    Molecular point group: c1

    Geometry (in Angstrom), charge = 0, multiplicity = 1:

       Center              X                  Y                   Z               Mass
    ------------   -----------------  -----------------  -----------------  -----------------
         F           -2.327647393478    -0.325652365201    -0.009885133369    18.998403162730
         O            2.495704606522    -0.252465365201    -0.101626133369    15.994914619570
         C            0.048494606522    -0.313993365201    -0.033667133369    12.000000000000
         C            1.293768006522     0.485166534799     0.109426966631    12.000000000000
         C           -1.213767393478     0.521091634799     0.013670866631    12.000000000000
         H            0.030430606522    -1.014952365201     0.809505866631     1.007825032230
         H            0.058171606522    -0.906659365201    -0.952836133369     1.007825032230
         H            1.332532606522     1.130959634799     0.949596866631     1.007825032230
         H            1.344245606522     1.233177634799    -0.815329133369     1.007825032230
         H           -1.282847393478     1.191781634799    -0.849153133369     1.007825032230
         H           -1.267604393478     1.119981634799     0.929161866631     1.007825032230
         H            2.524692606522    -0.851320365201     0.663441866631     1.007825032230

  Basis Set: AUG-CC-PVTZ
    Blend: AUG-CC-PVTZ
  Basis Set: (AUG-CC-PVTZ AUX)
    Blend: AUG-CC-PVTZ-JKFIT
	 Reference Energy          =    -292.0691257190495662 [Eh]
	 Singles Energy            =      -0.0000000000000000 [Eh]
	 Same-Spin Energy          =      -0.2625041960592713 [Eh]
	 Opposite-Spin Energy      =      -0.8607588237795388 [Eh]
	 Correlation Energy        =      -1.1232630198388101 [Eh]
	 Total Energy              =    -293.1923887388883827 [Eh]

	 ================> DF-SCS-MP2 Energies <==================
	-----------------------------------------------------------
	 SCS Same-Spin Scale       =       0.3333333333333333 [-]
	 SCS Opposite-Spin Scale   =       1.2000000000000000 [-]
	 SCS Same-Spin Energy      =      -0.0875013986864238 [Eh]
	 SCS Opposite-Spin Energy  =      -1.0329105885354466 [Eh]
	 SCS Correlation Energy    =      -1.1204119872218703 [Eh]
	 SCS Total Energy          =    -293.1895377062714374 [Eh]
	-----------------------------------------------------------

  Dipole Moment: [D]
     X:     0.4435      Y:     0.8121      Z:     1.3089     Total:     1.6029

*** Psi4 exiting successfully. Buy a developer a beer!
