                               Psi4 1.3.2 release

  ==> Input File <==

--------------------------------------------------------------------------
#psi4
#
memory 32 gb

molecule  {
0 1
  F       -2.4052147    -0.3394549    -0.0056654
  O        2.4327490    -0.2858150    -0.0983620
  C       -0.0144610    -0.3473430    -0.0304030
  C        1.2502680     0.5009380     0.0283430
  C       -1.2767230     0.4877420     0.0169350
  H       -0.0325250    -1.0483020     0.8127700
  H       -0.0047840    -0.9400090    -0.9495720
  H        1.2695770     1.0976100     0.9528610
  H        1.2812900     1.1998280    -0.8120650
  H       -1.3458030     1.1584320    -0.8458890
  H       -1.3305600     1.0866320     0.9324260
  H        2.4617370    -0.8846700     0.6667060
units angstrom
no_reorient  #important for SAPT in psi4, default
symmetry c1  #important for SAPT in psi4, default
}

set PROPERTIES_ORIGIN ["COM"]
properties('MP2/aug-cc-pvtz', properties = ['dipole'])
--------------------------------------------------------------------------

    Molecular point group: c1
  Charge       = 0
  Multiplicity = 1
  Basis Set: AUG-CC-PVTZ
    Blend: AUG-CC-PVTZ
  Basis Set: (AUG-CC-PVTZ AUX)
    Blend: AUG-CC-PVTZ-JKFIT

    Orbital Energies [Eh]
    ---------------------

    Doubly Occupied:

       1A    -26.278249     2A    -20.569251     3A    -11.315677
       4A    -11.290572     5A    -11.237396     6A     -1.584137
       7A     -1.366438     8A     -1.070408     9A     -0.926052
      10A     -0.839578    11A     -0.716937    12A     -0.699452
      13A     -0.680087    14A     -0.666894    15A     -0.619518
      16A     -0.593261    17A     -0.569362    18A     -0.517083
      19A     -0.507250    20A     -0.489319    21A     -0.455227

  @DF-RHF Final Energy:  -292.08121057847251

   => Energetics <=

    Nuclear Repulsion Energy =            182.2465098135686787
    One-Electron Energy =                -762.6711406837362119
    Two-Electron Energy =                 288.3434202916950539
    Total Energy =                       -292.0812105784725077
  Basis Set: (AUG-CC-PVTZ AUX)
    Blend: AUG-CC-PVTZ-RI
    Molecular point group: c1

    Geometry (in Angstrom), charge = 0, multiplicity = 1:

       Center              X                  Y                   Z               Mass
    ------------   -----------------  -----------------  -----------------  -----------------
         F           -2.341693650226    -0.318415839994     0.003806489865    18.998403162730
         O            2.496270049774    -0.264775939994    -0.088890110135    15.994914619570
         C            0.049060049774    -0.326303939994    -0.020931110135    12.000000000000
         C            1.313789049774     0.521977060006     0.037814889865    12.000000000000
         C           -1.213201950226     0.508781060006     0.026406889865    12.000000000000
         H            0.030996049774    -1.027262939994     0.822241889865     1.007825032230
         H            0.058737049774    -0.918969939994    -0.940100110135     1.007825032230
         H            1.333098049774     1.118649060006     0.962332889865     1.007825032230
         H            1.344811049774     1.220867060006    -0.802593110135     1.007825032230
         H           -1.282281950226     1.179471060006    -0.836417110135     1.007825032230
         H           -1.267038950226     1.107671060006     0.941897889865     1.007825032230
         H            2.525258049774    -0.863630939994     0.676177889865     1.007825032230

  Basis Set: AUG-CC-PVTZ
    Blend: AUG-CC-PVTZ
  Basis Set: (AUG-CC-PVTZ AUX)
    Blend: AUG-CC-PVTZ-JKFIT
	 Reference Energy          =    -292.0812105784725077 [Eh]
	 Singles Energy            =      -0.0000000000000000 [Eh]
	 Same-Spin Energy          =      -0.2617615749668837 [Eh]
	 Opposite-Spin Energy      =      -0.8593231828099459 [Eh]
	 Correlation Energy        =      -1.1210847577768295 [Eh]
	 Total Energy              =    -293.2022953362493354 [Eh]

	 ================> DF-SCS-MP2 Energies <==================
	-----------------------------------------------------------
	 SCS Same-Spin Scale       =       0.3333333333333333 [-]
	 SCS Opposite-Spin Scale   =       1.2000000000000000 [-]
	 SCS Same-Spin Energy      =      -0.0872538583222946 [Eh]
	 SCS Opposite-Spin Energy  =      -1.0311878193719350 [Eh]
	 SCS Correlation Energy    =      -1.1184416776942296 [Eh]
	 SCS Total Energy          =    -293.1996522561667575 [Eh]
	-----------------------------------------------------------

  Dipole Moment: [D]
     X:     0.4988      Y:     0.8701      Z:     1.1969     Total:     1.5615

*** Psi4 exiting successfully. Buy a developer a beer!
