                               Psi4 1.3.2 release

  ==> Input File <==

--------------------------------------------------------------------------
#psi4
#
memory 32 gb

molecule  {
0 1
  F       -2.3741413    -0.3803811     0.0340949
  O        2.4327490    -0.2858150    -0.0983620
  C       -0.0144610    -0.3473430    -0.0304030
  C        1.2502680     0.5009380     0.0283430
  C       -1.2767230     0.4877420     0.0169350
  H       -0.0325250    -1.0483020     0.8127700
  H       -0.0047840    -0.9400090    -0.9495720
  H        1.2695770     1.0976100     0.9528610
  H        1.2812900     1.1998280    -0.8120650
  H       -1.3458030     1.1584320    -0.8458890
  H       -1.3305600     1.0866320     0.9324260
  H        2.4617370    -0.8846700     0.6667060
units angstrom
no_reorient  #important for SAPT in psi4, default
symmetry c1  #important for SAPT in psi4, default
}

set PROPERTIES_ORIGIN ["COM"]
properties('MP2/aug-cc-pvtz', properties = ['dipole'])
--------------------------------------------------------------------------

    Molecular point group: c1
  Charge       = 0
  Multiplicity = 1
  Basis Set: AUG-CC-PVTZ
    Blend: AUG-CC-PVTZ
  Basis Set: (AUG-CC-PVTZ AUX)
    Blend: AUG-CC-PVTZ-JKFIT

    Orbital Energies [Eh]
    ---------------------

    Doubly Occupied:

       1A    -26.278448     2A    -20.568534     3A    -11.315947
       4A    -11.289618     5A    -11.236257     6A     -1.584552
       7A     -1.365762     8A     -1.069827     9A     -0.925860
      10A     -0.839168    11A     -0.716678    12A     -0.700599
      13A     -0.680306    14A     -0.666210    15A     -0.618614
      16A     -0.592188    17A     -0.569274    18A     -0.517101
      19A     -0.507953    20A     -0.488788    21A     -0.454044

  @DF-RHF Final Energy:  -292.08090508952301

   => Energetics <=

    Nuclear Repulsion Energy =            182.5277795098490401
    One-Electron Energy =                -763.2459150637582752
    Two-Electron Energy =                 288.6372304643861639
    Total Energy =                       -292.0809050895230143
  Basis Set: (AUG-CC-PVTZ AUX)
    Blend: AUG-CC-PVTZ-RI
    Molecular point group: c1

    Geometry (in Angstrom), charge = 0, multiplicity = 1:

       Center              X                  Y                   Z               Mass
    ------------   -----------------  -----------------  -----------------  -----------------
         F           -2.318184111918    -0.349379817760     0.033888370058    18.998403162730
         O            2.488706188082    -0.254813717760    -0.098568529942    15.994914619570
         C            0.041496188082    -0.316341717760    -0.030609529942    12.000000000000
         C            1.306225188082     0.531939282240     0.028136470058    12.000000000000
         C           -1.220765811918     0.518743282240     0.016728470058    12.000000000000
         H            0.023432188082    -1.017300717760     0.812563470058     1.007825032230
         H            0.051173188082    -0.909007717760    -0.949778529942     1.007825032230
         H            1.325534188082     1.128611282240     0.952654470058     1.007825032230
         H            1.337247188082     1.230829282240    -0.812271529942     1.007825032230
         H           -1.289845811918     1.189433282240    -0.846095529942     1.007825032230
         H           -1.274602811918     1.117633282240     0.932219470058     1.007825032230
         H            2.517694188082    -0.853668717760     0.666499470058     1.007825032230

  Basis Set: AUG-CC-PVTZ
    Blend: AUG-CC-PVTZ
  Basis Set: (AUG-CC-PVTZ AUX)
    Blend: AUG-CC-PVTZ-JKFIT
	 Reference Energy          =    -292.0809050895230143 [Eh]
	 Singles Energy            =      -0.0000000000000000 [Eh]
	 Same-Spin Energy          =      -0.2617840759792632 [Eh]
	 Opposite-Spin Energy      =      -0.8593652779913910 [Eh]
	 Correlation Energy        =      -1.1211493539706541 [Eh]
	 Total Energy              =    -293.2020544434936937 [Eh]

	 ================> DF-SCS-MP2 Energies <==================
	-----------------------------------------------------------
	 SCS Same-Spin Scale       =       0.3333333333333333 [-]
	 SCS Opposite-Spin Scale   =       1.2000000000000000 [-]
	 SCS Same-Spin Energy      =      -0.0872613586597544 [Eh]
	 SCS Opposite-Spin Energy  =      -1.0312383335896691 [Eh]
	 SCS Correlation Energy    =      -1.1184996922494235 [Eh]
	 SCS Total Energy          =    -293.1994047817724436 [Eh]
	-----------------------------------------------------------

  Dipole Moment: [D]
     X:     0.4340      Y:     0.9256      Z:     1.1454     Total:     1.5352

*** Psi4 exiting successfully. Buy a developer a beer!
