                               Psi4 1.3.2 release

  ==> Input File <==

--------------------------------------------------------------------------
#psi4
#
memory 32 gb

molecule  {
0 1
  F       -2.4317738    -0.2887855    -0.1283983
  O        2.4327490    -0.2858150    -0.0983620
  C       -0.0144610    -0.3473430    -0.0304030
  C        1.2502680     0.5009380     0.0283430
  C       -1.2767230     0.4877420     0.0169350
  H       -0.0325250    -1.0483020     0.8127700
  H       -0.0047840    -0.9400090    -0.9495720
  H        1.2695770     1.0976100     0.9528610
  H        1.2812900     1.1998280    -0.8120650
  H       -1.3458030     1.1584320    -0.8458890
  H       -1.3305600     1.0866320     0.9324260
  H        2.4617370    -0.8846700     0.6667060
units angstrom
no_reorient  #important for SAPT in psi4, default
symmetry c1  #important for SAPT in psi4, default
}

set PROPERTIES_ORIGIN ["COM"]
properties('MP2/aug-cc-pvtz', properties = ['dipole'])
--------------------------------------------------------------------------

    Molecular point group: c1
  Charge       = 0
  Multiplicity = 1
  Basis Set: AUG-CC-PVTZ
    Blend: AUG-CC-PVTZ
  Basis Set: (AUG-CC-PVTZ AUX)
    Blend: AUG-CC-PVTZ-JKFIT

    Orbital Energies [Eh]
    ---------------------

    Doubly Occupied:

       1A    -26.277949     2A    -20.569936     3A    -11.315337
       4A    -11.291449     5A    -11.238524     6A     -1.583908
       7A     -1.367074     8A     -1.070915     9A     -0.926210
      10A     -0.840057    11A     -0.717909    12A     -0.697841
      13A     -0.679754    14A     -0.667663    15A     -0.621214
      16A     -0.594201    17A     -0.567809    18A     -0.518583
      19A     -0.505010    20A     -0.489331    21A     -0.456275

  @DF-RHF Final Energy:  -292.07941069282288

   => Energetics <=

    Nuclear Repulsion Energy =            182.0006426120870913
    One-Electron Energy =                -762.1662071445327911
    Two-Electron Energy =                 288.0861538396228525
    Total Energy =                       -292.0794106928228757
  Basis Set: (AUG-CC-PVTZ AUX)
    Blend: AUG-CC-PVTZ-RI
    Molecular point group: c1

    Geometry (in Angstrom), charge = 0, multiplicity = 1:

       Center              X                  Y                   Z               Mass
    ------------   -----------------  -----------------  -----------------  -----------------
         F           -2.361787755760    -0.280080344029    -0.089050867688    18.998403162730
         O            2.502735044240    -0.277109844029    -0.059014567688    15.994914619570
         C            0.055525044240    -0.338637844029     0.008944432312    12.000000000000
         C            1.320254044240     0.509643155971     0.067690432312    12.000000000000
         C           -1.206736955760     0.496447155971     0.056282432312    12.000000000000
         H            0.037461044240    -1.039596844029     0.852117432312     1.007825032230
         H            0.065202044240    -0.931303844029    -0.910224567688     1.007825032230
         H            1.339563044240     1.106315155971     0.992208432312     1.007825032230
         H            1.351276044240     1.208533155971    -0.772717567688     1.007825032230
         H           -1.275816955760     1.167137155971    -0.806541567688     1.007825032230
         H           -1.260573955760     1.095337155971     0.971773432312     1.007825032230
         H            2.531723044240    -0.875964844029     0.706053432312     1.007825032230

  Basis Set: AUG-CC-PVTZ
    Blend: AUG-CC-PVTZ
  Basis Set: (AUG-CC-PVTZ AUX)
    Blend: AUG-CC-PVTZ-JKFIT
	 Reference Energy          =    -292.0794106928228757 [Eh]
	 Singles Energy            =      -0.0000000000000000 [Eh]
	 Same-Spin Energy          =      -0.2618103513343634 [Eh]
	 Opposite-Spin Energy      =      -0.8594159666105166 [Eh]
	 Correlation Energy        =      -1.1212263179448798 [Eh]
	 Total Energy              =    -293.2006370107677640 [Eh]

	 ================> DF-SCS-MP2 Energies <==================
	-----------------------------------------------------------
	 SCS Same-Spin Scale       =       0.3333333333333333 [-]
	 SCS Opposite-Spin Scale   =       1.2000000000000000 [-]
	 SCS Same-Spin Energy      =      -0.0872701171114545 [Eh]
	 SCS Opposite-Spin Energy  =      -1.0312991599326198 [Eh]
	 SCS Correlation Energy    =      -1.1185692770440743 [Eh]
	 SCS Total Energy          =    -293.1979799698669353 [Eh]
	-----------------------------------------------------------

  Dipole Moment: [D]
     X:     0.5532      Y:     0.7999      Z:     1.3545     Total:     1.6675

*** Psi4 exiting successfully. Buy a developer a beer!
