                               Psi4 1.3.2 release

  ==> Input File <==

--------------------------------------------------------------------------
#psi4
#
memory 32 gb

molecule  {
0 1
  F       -2.4730316    -0.2380614    -0.0007903
  O        2.4327490    -0.2858150    -0.0983620
  C       -0.0144610    -0.3473430    -0.0304030
  C        1.2502680     0.5009380     0.0283430
  C       -1.2767230     0.4877420     0.0169350
  H       -0.0325250    -1.0483020     0.8127700
  H       -0.0047840    -0.9400090    -0.9495720
  H        1.2695770     1.0976100     0.9528610
  H        1.2812900     1.1998280    -0.8120650
  H       -1.3458030     1.1584320    -0.8458890
  H       -1.3305600     1.0866320     0.9324260
  H        2.4617370    -0.8846700     0.6667060
units angstrom
no_reorient  #important for SAPT in psi4, default
symmetry c1  #important for SAPT in psi4, default
}

set PROPERTIES_ORIGIN ["COM"]
properties('MP2/aug-cc-pvtz', properties = ['dipole'])
--------------------------------------------------------------------------

    Molecular point group: c1
  Charge       = 0
  Multiplicity = 1
  Basis Set: AUG-CC-PVTZ
    Blend: AUG-CC-PVTZ
  Basis Set: (AUG-CC-PVTZ AUX)
    Blend: AUG-CC-PVTZ-JKFIT

    Orbital Energies [Eh]
    ---------------------

    Doubly Occupied:

       1A    -26.277668     2A    -20.570837     3A    -11.314995
       4A    -11.292653     5A    -11.240116     6A     -1.583452
       7A     -1.367933     8A     -1.071681     9A     -0.926449
      10A     -0.840702    11A     -0.717248    12A     -0.698317
      13A     -0.679086    14A     -0.668161    15A     -0.620858
      16A     -0.595202    17A     -0.570902    18A     -0.515022
      19A     -0.506391    20A     -0.489866    21A     -0.457813

  @DF-RHF Final Energy:  -292.07948774021179

   => Energetics <=

    Nuclear Repulsion Energy =            181.6399998395586124
    One-Electron Energy =                -761.4282667753815304
    Two-Electron Energy =                 287.7087791956111005
    Total Energy =                       -292.0794877402117891
  Basis Set: (AUG-CC-PVTZ AUX)
    Blend: AUG-CC-PVTZ-RI
    Molecular point group: c1

    Geometry (in Angstrom), charge = 0, multiplicity = 1:

       Center              X                  Y                   Z               Mass
    ------------   -----------------  -----------------  -----------------  -----------------
         F           -2.393002615724    -0.241703463092     0.007494896998    18.998403162730
         O            2.512777984276    -0.289457063092    -0.090076803002    15.994914619570
         C            0.065567984276    -0.350985063092    -0.022117803002    12.000000000000
         C            1.330296984276     0.497295936908     0.036628196998    12.000000000000
         C           -1.196694015724     0.484099936908     0.025220196998    12.000000000000
         H            0.047503984276    -1.051944063092     0.821055196998     1.007825032230
         H            0.075244984276    -0.943651063092    -0.941286803002     1.007825032230
         H            1.349605984276     1.093967936908     0.961146196998     1.007825032230
         H            1.361318984276     1.196185936908    -0.803779803002     1.007825032230
         H           -1.265774015724     1.154789936908    -0.837603803002     1.007825032230
         H           -1.250531015724     1.082989936908     0.940711196998     1.007825032230
         H            2.541765984276    -0.888312063092     0.674991196998     1.007825032230

  Basis Set: AUG-CC-PVTZ
    Blend: AUG-CC-PVTZ
  Basis Set: (AUG-CC-PVTZ AUX)
    Blend: AUG-CC-PVTZ-JKFIT
	 Reference Energy          =    -292.0794877402117891 [Eh]
	 Singles Energy            =      -0.0000000000000000 [Eh]
	 Same-Spin Energy          =      -0.2617900163923820 [Eh]
	 Opposite-Spin Energy      =      -0.8593786538887108 [Eh]
	 Correlation Energy        =      -1.1211686702810928 [Eh]
	 Total Energy              =    -293.2006564104928543 [Eh]

	 ================> DF-SCS-MP2 Energies <==================
	-----------------------------------------------------------
	 SCS Same-Spin Scale       =       0.3333333333333333 [-]
	 SCS Opposite-Spin Scale   =       1.2000000000000000 [-]
	 SCS Same-Spin Energy      =      -0.0872633387974606 [Eh]
	 SCS Opposite-Spin Energy  =      -1.0312543846664530 [Eh]
	 SCS Correlation Energy    =      -1.1185177234639136 [Eh]
	 SCS Total Energy          =    -293.1980054636757131 [Eh]
	-----------------------------------------------------------

  Dipole Moment: [D]
     X:     0.6387      Y:     0.7294      Z:     1.1915     Total:     1.5361

*** Psi4 exiting successfully. Buy a developer a beer!
