                               Psi4 1.3.2 release

  ==> Input File <==

--------------------------------------------------------------------------
#psi4
#
memory 32 gb

molecule  {
0 1
  F       -2.3906030    -0.3590020    -0.0066210
  O        2.4327490    -0.2858150    -0.0983620
  C       -0.0144610    -0.3473430    -0.0304030
  C        1.2502680     0.5009380     0.0283430
  C       -1.3563212     0.4272334     0.0152517
  H       -0.0325250    -1.0483020     0.8127700
  H       -0.0047840    -0.9400090    -0.9495720
  H        1.2695770     1.0976100     0.9528610
  H        1.2812900     1.1998280    -0.8120650
  H       -1.3458030     1.1584320    -0.8458890
  H       -1.3305600     1.0866320     0.9324260
  H        2.4617370    -0.8846700     0.6667060
units angstrom
no_reorient  #important for SAPT in psi4, default
symmetry c1  #important for SAPT in psi4, default
}

set PROPERTIES_ORIGIN ["COM"]
properties('MP2/aug-cc-pvtz', properties = ['dipole'])
--------------------------------------------------------------------------

    Molecular point group: c1
  Charge       = 0
  Multiplicity = 1
  Basis Set: AUG-CC-PVTZ
    Blend: AUG-CC-PVTZ
  Basis Set: (AUG-CC-PVTZ AUX)
    Blend: AUG-CC-PVTZ-JKFIT

    Orbital Energies [Eh]
    ---------------------

    Doubly Occupied:

       1A    -26.302190     2A    -20.567322     3A    -11.318822
       4A    -11.287906     5A    -11.233984     6A     -1.640807
       7A     -1.364209     8A     -1.058081     9A     -0.926198
      10A     -0.839954    11A     -0.733228    12A     -0.729103
      13A     -0.695710    14A     -0.691635    15A     -0.621232
      16A     -0.592996    17A     -0.565209    18A     -0.503457
      19A     -0.485831    20A     -0.478223    21A     -0.452677

  @DF-RHF Final Energy:  -292.07330941391211

   => Energetics <=

    Nuclear Repulsion Energy =            183.0443822418939988
    One-Electron Energy =                -764.0578311594294973
    Two-Electron Energy =                 288.9401395036233566
    Total Energy =                       -292.0733094139121135
  Basis Set: (AUG-CC-PVTZ AUX)
    Blend: AUG-CC-PVTZ-RI
    Molecular point group: c1

    Geometry (in Angstrom), charge = 0, multiplicity = 1:

       Center              X                  Y                   Z               Mass
    ------------   -----------------  -----------------  -----------------  -----------------
         F           -2.318400387277    -0.323901521654     0.003342310893    18.998403162730
         O            2.504951612723    -0.250714521654    -0.088398689107    15.994914619570
         C            0.057741612723    -0.312242521654    -0.020439689107    12.000000000000
         C            1.322470612723     0.536038478346     0.038306310893    12.000000000000
         C           -1.284118587277     0.462333878346     0.025215010893    12.000000000000
         H            0.039677612723    -1.013201521654     0.822733310893     1.007825032230
         H            0.067418612723    -0.904908521654    -0.939608689107     1.007825032230
         H            1.341779612723     1.132710478346     0.962824310893     1.007825032230
         H            1.353492612723     1.234928478346    -0.802101689107     1.007825032230
         H           -1.273600387277     1.193532478346    -0.835925689107     1.007825032230
         H           -1.258357387277     1.121732478346     0.942389310893     1.007825032230
         H            2.533939612723    -0.849569521654     0.676669310893     1.007825032230

  Basis Set: AUG-CC-PVTZ
    Blend: AUG-CC-PVTZ
  Basis Set: (AUG-CC-PVTZ AUX)
    Blend: AUG-CC-PVTZ-JKFIT
	 Reference Energy          =    -292.0733094139121135 [Eh]
	 Singles Energy            =      -0.0000000000000000 [Eh]
	 Same-Spin Energy          =      -0.2615254619959932 [Eh]
	 Opposite-Spin Energy      =      -0.8576873383129957 [Eh]
	 Correlation Energy        =      -1.1192128003089890 [Eh]
	 Total Energy              =    -293.1925222142211283 [Eh]

	 ================> DF-SCS-MP2 Energies <==================
	-----------------------------------------------------------
	 SCS Same-Spin Scale       =       0.3333333333333333 [-]
	 SCS Opposite-Spin Scale   =       1.2000000000000000 [-]
	 SCS Same-Spin Energy      =      -0.0871751539986644 [Eh]
	 SCS Opposite-Spin Energy  =      -1.0292248059755948 [Eh]
	 SCS Correlation Energy    =      -1.1163999599742593 [Eh]
	 SCS Total Energy          =    -293.1897093738863873 [Eh]
	-----------------------------------------------------------

  Dipole Moment: [D]
     X:     0.0466      Y:     0.6385      Z:     1.1888     Total:     1.3502

*** Psi4 exiting successfully. Buy a developer a beer!
