                               Psi4 1.3.2 release

  ==> Input File <==

--------------------------------------------------------------------------
#psi4
#
memory 32 gb

molecule  {
0 1
  F       -2.3906030    -0.3590020    -0.0066210
  O        2.4327490    -0.2858150    -0.0983620
  C       -0.0144610    -0.3473430    -0.0304030
  C        1.0844148     0.6112869     0.0461145
  C       -1.2767230     0.4877420     0.0169350
  H       -0.0325250    -1.0483020     0.8127700
  H       -0.0047840    -0.9400090    -0.9495720
  H        1.2695770     1.0976100     0.9528610
  H        1.2812900     1.1998280    -0.8120650
  H       -1.3458030     1.1584320    -0.8458890
  H       -1.3305600     1.0866320     0.9324260
  H        2.4617370    -0.8846700     0.6667060
units angstrom
no_reorient  #important for SAPT in psi4, default
symmetry c1  #important for SAPT in psi4, default
}

set PROPERTIES_ORIGIN ["COM"]
properties('MP2/aug-cc-pvtz', properties = ['dipole'])
--------------------------------------------------------------------------

    Molecular point group: c1
  Charge       = 0
  Multiplicity = 1
  Basis Set: AUG-CC-PVTZ
    Blend: AUG-CC-PVTZ
  Basis Set: (AUG-CC-PVTZ AUX)
    Blend: AUG-CC-PVTZ-JKFIT

    Orbital Energies [Eh]
    ---------------------

    Doubly Occupied:

       1A    -26.280863     2A    -20.546629     3A    -11.319852
       4A    -11.294724     5A    -11.243115     6A     -1.587334
       7A     -1.301647     8A     -1.094123     9A     -0.933583
      10A     -0.847173    11A     -0.721627    12A     -0.697536
      13A     -0.675954    14A     -0.667309    15A     -0.605647
      16A     -0.581558    17A     -0.556095    18A     -0.539884
      19A     -0.505093    20A     -0.478461    21A     -0.454859

  @DF-RHF Final Energy:  -292.04946252295940

   => Energetics <=

    Nuclear Repulsion Energy =            181.8100098998543217
    One-Electron Energy =                -761.8528127408447972
    Two-Electron Energy =                 287.9933403180310734
    Total Energy =                       -292.0494625229594021
  Basis Set: (AUG-CC-PVTZ AUX)
    Blend: AUG-CC-PVTZ-RI
    Molecular point group: c1

    Geometry (in Angstrom), charge = 0, multiplicity = 1:

       Center              X                  Y                   Z               Mass
    ------------   -----------------  -----------------  -----------------  -----------------
         F           -2.305138564213    -0.350171093670     0.000351109045    18.998403162730
         O            2.518213435787    -0.276984093670    -0.091389890955    15.994914619570
         C            0.071003435787    -0.338512093670    -0.023430890955    12.000000000000
         C            1.169879235787     0.620117806330     0.053086609045    12.000000000000
         C           -1.191258564213     0.496572906330     0.023907109045    12.000000000000
         H            0.052939435787    -1.039471093670     0.819742109045     1.007825032230
         H            0.080680435787    -0.931178093670    -0.942599890955     1.007825032230
         H            1.355041435787     1.106440906330     0.959833109045     1.007825032230
         H            1.366754435787     1.208658906330    -0.805092890955     1.007825032230
         H           -1.260338564213     1.167262906330    -0.838916890955     1.007825032230
         H           -1.245095564213     1.095462906330     0.939398109045     1.007825032230
         H            2.547201435787    -0.875839093670     0.673678109045     1.007825032230

  Basis Set: AUG-CC-PVTZ
    Blend: AUG-CC-PVTZ
  Basis Set: (AUG-CC-PVTZ AUX)
    Blend: AUG-CC-PVTZ-JKFIT
	 Reference Energy          =    -292.0494625229594021 [Eh]
	 Singles Energy            =      -0.0000000000000000 [Eh]
	 Same-Spin Energy          =      -0.2635077329111631 [Eh]
	 Opposite-Spin Energy      =      -0.8646164675693222 [Eh]
	 Correlation Energy        =      -1.1281242004804852 [Eh]
	 Total Energy              =    -293.1775867234399016 [Eh]

	 ================> DF-SCS-MP2 Energies <==================
	-----------------------------------------------------------
	 SCS Same-Spin Scale       =       0.3333333333333333 [-]
	 SCS Opposite-Spin Scale   =       1.2000000000000000 [-]
	 SCS Same-Spin Energy      =      -0.0878359109703877 [Eh]
	 SCS Opposite-Spin Energy  =      -1.0375397610831867 [Eh]
	 SCS Correlation Energy    =      -1.1253756720535744 [Eh]
	 SCS Total Energy          =    -293.1748381950129669 [Eh]
	-----------------------------------------------------------

  Dipole Moment: [D]
     X:    -0.1475      Y:     1.1819      Z:     1.2142     Total:     1.7008

*** Psi4 exiting successfully. Buy a developer a beer!
