                               Psi4 1.3.2 release

  ==> Input File <==

--------------------------------------------------------------------------
#psi4
#
memory 32 gb

molecule  {
0 1
  F       -2.3906030    -0.3590020    -0.0066210
  O        2.4194166    -0.3108645    -0.0574716
  C       -0.0144610    -0.3473430    -0.0304030
  C        1.2502680     0.5009380     0.0283430
  C       -1.2767230     0.4877420     0.0169350
  H       -0.0325250    -1.0483020     0.8127700
  H       -0.0047840    -0.9400090    -0.9495720
  H        1.2695770     1.0976100     0.9528610
  H        1.2812900     1.1998280    -0.8120650
  H       -1.3458030     1.1584320    -0.8458890
  H       -1.3305600     1.0866320     0.9324260
  H        2.4617370    -0.8846700     0.6667060
units angstrom
no_reorient  #important for SAPT in psi4, default
symmetry c1  #important for SAPT in psi4, default
}

set PROPERTIES_ORIGIN ["COM"]
properties('MP2/aug-cc-pvtz', properties = ['dipole'])
--------------------------------------------------------------------------

    Molecular point group: c1
  Charge       = 0
  Multiplicity = 1
  Basis Set: AUG-CC-PVTZ
    Blend: AUG-CC-PVTZ
  Basis Set: (AUG-CC-PVTZ AUX)
    Blend: AUG-CC-PVTZ-JKFIT

    Orbital Energies [Eh]
    ---------------------

    Doubly Occupied:

       1A    -26.278071     2A    -20.562459     3A    -11.315429
       4A    -11.291262     5A    -11.236401     6A     -1.584058
       7A     -1.374931     8A     -1.070948     9A     -0.929453
      10A     -0.841281    11A     -0.718750    12A     -0.702792
      13A     -0.681633    14A     -0.666211    15A     -0.625836
      16A     -0.592261    17A     -0.568651    18A     -0.518709
      19A     -0.506395    20A     -0.488802    21A     -0.454490

  @DF-RHF Final Energy:  -292.08203639346351

   => Energetics <=

    Nuclear Repulsion Energy =            182.7104472646552722
    One-Electron Energy =                -763.5673169116089412
    Two-Electron Energy =                 288.7748332534901579
    Total Energy =                       -292.0820363934635111
  Basis Set: (AUG-CC-PVTZ AUX)
    Blend: AUG-CC-PVTZ-RI
    Molecular point group: c1

    Geometry (in Angstrom), charge = 0, multiplicity = 1:

       Center              X                  Y                   Z               Mass
    ------------   -----------------  -----------------  -----------------  -----------------
         F           -2.327906420951    -0.328071240268    -0.005296440303    18.998403162730
         O            2.482113179049    -0.279933740268    -0.056147040303    15.994914619570
         C            0.048235579049    -0.316412240268    -0.029078440303    12.000000000000
         C            1.312964579049     0.531868759732     0.029667559697    12.000000000000
         C           -1.214026420951     0.518672759732     0.018259559697    12.000000000000
         H            0.030171579049    -1.017371240268     0.814094559697     1.007825032230
         H            0.057912579049    -0.909078240268    -0.948247440303     1.007825032230
         H            1.332273579049     1.128540759732     0.954185559697     1.007825032230
         H            1.343986579049     1.230758759732    -0.810740440303     1.007825032230
         H           -1.283106420951     1.189362759732    -0.844564440303     1.007825032230
         H           -1.267863420951     1.117562759732     0.933750559697     1.007825032230
         H            2.524433579049    -0.853739240268     0.668030559697     1.007825032230

  Basis Set: AUG-CC-PVTZ
    Blend: AUG-CC-PVTZ
  Basis Set: (AUG-CC-PVTZ AUX)
    Blend: AUG-CC-PVTZ-JKFIT
	 Reference Energy          =    -292.0820363934635111 [Eh]
	 Singles Energy            =      -0.0000000000000000 [Eh]
	 Same-Spin Energy          =      -0.2611292710840881 [Eh]
	 Opposite-Spin Energy      =      -0.8576789643212510 [Eh]
	 Correlation Energy        =      -1.1188082354053390 [Eh]
	 Total Energy              =    -293.2008446288688219 [Eh]

	 ================> DF-SCS-MP2 Energies <==================
	-----------------------------------------------------------
	 SCS Same-Spin Scale       =       0.3333333333333333 [-]
	 SCS Opposite-Spin Scale   =       1.2000000000000000 [-]
	 SCS Same-Spin Energy      =      -0.0870430903613627 [Eh]
	 SCS Opposite-Spin Energy  =      -1.0292147571855013 [Eh]
	 SCS Correlation Energy    =      -1.1162578475468639 [Eh]
	 SCS Total Energy          =    -293.1982942410103874 [Eh]
	-----------------------------------------------------------

  Dipole Moment: [D]
     X:     0.4779      Y:     0.9445      Z:     1.1459     Total:     1.5600

*** Psi4 exiting successfully. Buy a developer a beer!
