                               Psi4 1.3.2 release

  ==> Input File <==

--------------------------------------------------------------------------
#psi4
#
memory 32 gb

molecule  {
0 1
  F       -2.3906030    -0.3590020    -0.0066210
  O        2.4597984    -0.2442222    -0.0944096
  C       -0.0144610    -0.3473430    -0.0304030
  C        1.2502680     0.5009380     0.0283430
  C       -1.2767230     0.4877420     0.0169350
  H       -0.0325250    -1.0483020     0.8127700
  H       -0.0047840    -0.9400090    -0.9495720
  H        1.2695770     1.0976100     0.9528610
  H        1.2812900     1.1998280    -0.8120650
  H       -1.3458030     1.1584320    -0.8458890
  H       -1.3305600     1.0866320     0.9324260
  H        2.4617370    -0.8846700     0.6667060
units angstrom
no_reorient  #important for SAPT in psi4, default
symmetry c1  #important for SAPT in psi4, default
}

set PROPERTIES_ORIGIN ["COM"]
properties('MP2/aug-cc-pvtz', properties = ['dipole'])
--------------------------------------------------------------------------

    Molecular point group: c1
  Charge       = 0
  Multiplicity = 1
  Basis Set: AUG-CC-PVTZ
    Blend: AUG-CC-PVTZ
  Basis Set: (AUG-CC-PVTZ AUX)
    Blend: AUG-CC-PVTZ-JKFIT

    Orbital Energies [Eh]
    ---------------------

    Doubly Occupied:

       1A    -26.279142     2A    -20.571788     3A    -11.316831
       4A    -11.289488     5A    -11.238245     6A     -1.585065
       7A     -1.362131     8A     -1.070582     9A     -0.924759
      10A     -0.839168    11A     -0.716243    12A     -0.699052
      13A     -0.678210    14A     -0.667299    15A     -0.617867
      16A     -0.593003    17A     -0.569961    18A     -0.516936
      19A     -0.507884    20A     -0.489475    21A     -0.454554

  @DF-RHF Final Energy:  -292.07888472266058

   => Energetics <=

    Nuclear Repulsion Energy =            182.0659857467734923
    One-Electron Energy =                -762.3143810169776771
    Two-Electron Energy =                 288.1695105475435525
    Total Energy =                       -292.0788847226605753
  Basis Set: (AUG-CC-PVTZ AUX)
    Blend: AUG-CC-PVTZ-RI
    Molecular point group: c1

    Geometry (in Angstrom), charge = 0, multiplicity = 1:

       Center              X                  Y                   Z               Mass
    ------------   -----------------  -----------------  -----------------  -----------------
         F           -2.336182131712    -0.341728689893     0.002273509628    18.998403162730
         O            2.514219268288    -0.226948889893    -0.085515090372    15.994914619570
         C            0.039959868288    -0.330069689893    -0.021508490372    12.000000000000
         C            1.304688868288     0.518211310107     0.037237509628    12.000000000000
         C           -1.222302131712     0.505015310107     0.025829509628    12.000000000000
         H            0.021895868288    -1.031028689893     0.821664509628     1.007825032230
         H            0.049636868288    -0.922735689893    -0.940677490372     1.007825032230
         H            1.323997868288     1.114883310107     0.961755509628     1.007825032230
         H            1.335710868288     1.217101310107    -0.803170490372     1.007825032230
         H           -1.291382131712     1.175705310107    -0.836994490372     1.007825032230
         H           -1.276139131712     1.103905310107     0.941320509628     1.007825032230
         H            2.516157868288    -0.867396689893     0.675600509628     1.007825032230

  Basis Set: AUG-CC-PVTZ
    Blend: AUG-CC-PVTZ
  Basis Set: (AUG-CC-PVTZ AUX)
    Blend: AUG-CC-PVTZ-JKFIT
	 Reference Energy          =    -292.0788847226605753 [Eh]
	 Singles Energy            =      -0.0000000000000000 [Eh]
	 Same-Spin Energy          =      -0.2620740135178424 [Eh]
	 Opposite-Spin Energy      =      -0.8601809496935078 [Eh]
	 Correlation Energy        =      -1.1222549632113501 [Eh]
	 Total Energy              =    -293.2011396858719081 [Eh]

	 ================> DF-SCS-MP2 Energies <==================
	-----------------------------------------------------------
	 SCS Same-Spin Scale       =       0.3333333333333333 [-]
	 SCS Opposite-Spin Scale   =       1.2000000000000000 [-]
	 SCS Same-Spin Energy      =      -0.0873580045059475 [Eh]
	 SCS Opposite-Spin Energy  =      -1.0322171396322093 [Eh]
	 SCS Correlation Energy    =      -1.1195751441381567 [Eh]
	 SCS Total Energy          =    -293.1984598667987143 [Eh]
	-----------------------------------------------------------

  Dipole Moment: [D]
     X:     0.3953      Y:     0.8073      Z:     1.1659     Total:     1.4722

*** Psi4 exiting successfully. Buy a developer a beer!
