                               Psi4 1.3.2 release

  ==> Input File <==

--------------------------------------------------------------------------
#psi4
#
memory 32 gb

molecule  {
0 1
  F       -2.3825405    -0.3698221     0.0137365
  O        2.4327490    -0.2858150    -0.0983620
  C       -0.0144610    -0.3473430    -0.0304030
  C        1.2502680     0.5009380     0.0283430
  C       -1.2767230     0.4877420     0.0169350
  H       -0.0325250    -1.0483020     0.8127700
  H       -0.0047840    -0.9400090    -0.9495720
  H        1.2695770     1.0976100     0.9528610
  H        1.2812900     1.1998280    -0.8120650
  H       -1.3458030     1.1584320    -0.8458890
  H       -1.3305600     1.0866320     0.9324260
  H        2.4617370    -0.8846700     0.6667060
units angstrom
no_reorient  #important for SAPT in psi4, default
symmetry c1  #important for SAPT in psi4, default
}

set PROPERTIES_ORIGIN ["COM"]
properties('MP2/aug-cc-pvtz', properties = ['dipole'])
--------------------------------------------------------------------------

    Molecular point group: c1
  Charge       = 0
  Multiplicity = 1
  Basis Set: AUG-CC-PVTZ
    Blend: AUG-CC-PVTZ
  Basis Set: (AUG-CC-PVTZ AUX)
    Blend: AUG-CC-PVTZ-JKFIT

    Orbital Energies [Eh]
    ---------------------

    Doubly Occupied:

       1A    -26.278399     2A    -20.568726     3A    -11.315879
       4A    -11.289871     5A    -11.236553     6A     -1.584427
       7A     -1.365942     8A     -1.069983     9A     -0.925911
      10A     -0.839268    11A     -0.716785    12A     -0.700172
      13A     -0.680264    14A     -0.666423    15A     -0.618930
      16A     -0.592494    17A     -0.569159    18A     -0.517284
      19A     -0.507689    20A     -0.488966    21A     -0.454351

  @DF-RHF Final Energy:  -292.08110844172609

   => Energetics <=

    Nuclear Repulsion Energy =            182.4524092716232531
    One-Electron Energy =                -763.0920862607787285
    Two-Electron Energy =                 288.5585685474294451
    Total Energy =                       -292.0811084417260872
  Basis Set: (AUG-CC-PVTZ AUX)
    Blend: AUG-CC-PVTZ-RI
    Molecular point group: c1

    Geometry (in Angstrom), charge = 0, multiplicity = 1:

       Center              X                  Y                   Z               Mass
    ------------   -----------------  -----------------  -----------------  -----------------
         F           -2.324538785503    -0.341391080930     0.018485595187    18.998403162730
         O            2.490750714497    -0.257383980930    -0.093612904813    15.994914619570
         C            0.043540714497    -0.318911980930    -0.025653904813    12.000000000000
         C            1.308269714497     0.529369019070     0.033092095187    12.000000000000
         C           -1.218721285503     0.516173019070     0.021684095187    12.000000000000
         H            0.025476714497    -1.019870980930     0.817519095187     1.007825032230
         H            0.053217714497    -0.911577980930    -0.944822904813     1.007825032230
         H            1.327578714497     1.126041019070     0.957610095187     1.007825032230
         H            1.339291714497     1.228259019070    -0.807315904813     1.007825032230
         H           -1.287801285503     1.186863019070    -0.841139904813     1.007825032230
         H           -1.272558285503     1.115063019070     0.937175095187     1.007825032230
         H            2.519738714497    -0.856238980930     0.671455095187     1.007825032230

  Basis Set: AUG-CC-PVTZ
    Blend: AUG-CC-PVTZ
  Basis Set: (AUG-CC-PVTZ AUX)
    Blend: AUG-CC-PVTZ-JKFIT
	 Reference Energy          =    -292.0811084417260872 [Eh]
	 Singles Energy            =      -0.0000000000000000 [Eh]
	 Same-Spin Energy          =      -0.2617741248149318 [Eh]
	 Opposite-Spin Energy      =      -0.8593466104408828 [Eh]
	 Correlation Energy        =      -1.1211207352558146 [Eh]
	 Total Energy              =    -293.2022291769819162 [Eh]

	 ================> DF-SCS-MP2 Energies <==================
	-----------------------------------------------------------
	 SCS Same-Spin Scale       =       0.3333333333333333 [-]
	 SCS Opposite-Spin Scale   =       1.2000000000000000 [-]
	 SCS Same-Spin Energy      =      -0.0872580416049773 [Eh]
	 SCS Opposite-Spin Energy  =      -1.0312159325290593 [Eh]
	 SCS Correlation Energy    =      -1.1184739741340366 [Eh]
	 SCS Total Energy          =    -293.1995824158601067 [Eh]
	-----------------------------------------------------------

  Dipole Moment: [D]
     X:     0.4515      Y:     0.9114      Z:     1.1716     Total:     1.5515

*** Psi4 exiting successfully. Buy a developer a beer!
