                               Psi4 1.3.2 release

  ==> Input File <==

--------------------------------------------------------------------------
#psi4
#
memory 32 gb

molecule  {
0 1
  F       -2.3906030    -0.3590020    -0.0066210
  O        2.4327490    -0.2858150    -0.0983620
  C       -0.0144610    -0.3473430    -0.0304030
  C        1.2502680     0.5009380     0.0283430
  C       -1.2767230     0.4877420     0.0169350
  H       -0.0325250    -1.0483020     0.8127700
  H       -0.0047840    -0.9400090    -0.9495720
  H        1.2695770     1.0976100     0.9528610
  H        1.2812900     1.1998280    -0.8120650
  H       -1.3458030     1.1584320    -0.8458890
  H       -1.3305600     1.0866320     0.9324260
  H        2.4557724    -0.7614496     0.5092857
units angstrom
no_reorient  #important for SAPT in psi4, default
symmetry c1  #important for SAPT in psi4, default
}

set PROPERTIES_ORIGIN ["COM"]
properties('MP2/aug-cc-pvtz', properties = ['dipole'])
--------------------------------------------------------------------------

    Molecular point group: c1
  Charge       = 0
  Multiplicity = 1
  Basis Set: AUG-CC-PVTZ
    Blend: AUG-CC-PVTZ
  Basis Set: (AUG-CC-PVTZ AUX)
    Blend: AUG-CC-PVTZ-JKFIT

    Orbital Energies [Eh]
    ---------------------

    Doubly Occupied:

       1A    -26.279242     2A    -20.546889     3A    -11.316976
       4A    -11.292462     5A    -11.238326     6A     -1.585169
       7A     -1.427790     8A     -1.076279     9A     -0.941010
      10A     -0.848606    11A     -0.736581    12A     -0.708632
      13A     -0.685526    14A     -0.668329    15A     -0.629456
      16A     -0.598088    17A     -0.572859    18A     -0.521768
      19A     -0.510858    20A     -0.492880    21A     -0.460699

  @DF-RHF Final Energy:  -292.03434301167187

   => Energetics <=

    Nuclear Repulsion Energy =            183.7121710627308460
    One-Electron Energy =                -765.2161767155289454
    Two-Electron Energy =                 289.4696626411262628
    Total Energy =                       -292.0343430116718650
  Basis Set: (AUG-CC-PVTZ AUX)
    Blend: AUG-CC-PVTZ-RI
    Molecular point group: c1

    Geometry (in Angstrom), charge = 0, multiplicity = 1:

       Center              X                  Y                   Z               Mass
    ------------   -----------------  -----------------  -----------------  -----------------
         F           -2.330561698211    -0.334795930099     0.005116249417    18.998403162730
         O            2.492790301789    -0.261608930099    -0.086624750583    15.994914619570
         C            0.045580301789    -0.323136930099    -0.018665750583    12.000000000000
         C            1.310309301789     0.525144069901     0.040080249417    12.000000000000
         C           -1.216681698211     0.511948069901     0.028672249417    12.000000000000
         H            0.027516301789    -1.024095930099     0.824507249417     1.007825032230
         H            0.055257301789    -0.915802930099    -0.937834750583     1.007825032230
         H            1.329618301789     1.121816069901     0.964598249417     1.007825032230
         H            1.341331301789     1.224034069901    -0.800327750583     1.007825032230
         H           -1.285761698211     1.182638069901    -0.834151750583     1.007825032230
         H           -1.270518698211     1.110838069901     0.944163249417     1.007825032230
         H            2.515813701789    -0.737243530099     0.521022949417     1.007825032230

  Basis Set: AUG-CC-PVTZ
    Blend: AUG-CC-PVTZ
  Basis Set: (AUG-CC-PVTZ AUX)
    Blend: AUG-CC-PVTZ-JKFIT
	 Reference Energy          =    -292.0343430116718650 [Eh]
	 Singles Energy            =      -0.0000000000000000 [Eh]
	 Same-Spin Energy          =      -0.2595938891989330 [Eh]
	 Opposite-Spin Energy      =      -0.8539861473401568 [Eh]
	 Correlation Energy        =      -1.1135800365390898 [Eh]
	 Total Energy              =    -293.1479230482109415 [Eh]

	 ================> DF-SCS-MP2 Energies <==================
	-----------------------------------------------------------
	 SCS Same-Spin Scale       =       0.3333333333333333 [-]
	 SCS Opposite-Spin Scale   =       1.2000000000000000 [-]
	 SCS Same-Spin Energy      =      -0.0865312963996443 [Eh]
	 SCS Opposite-Spin Energy  =      -1.0247833768081880 [Eh]
	 SCS Correlation Energy    =      -1.1113146732078323 [Eh]
	 SCS Total Energy          =    -293.1456576848797226 [Eh]
	-----------------------------------------------------------

  Dipole Moment: [D]
     X:     0.3897      Y:     1.0152      Z:     1.0892     Total:     1.5391

*** Psi4 exiting successfully. Buy a developer a beer!
