                               Psi4 1.3.2 release

  ==> Input File <==

--------------------------------------------------------------------------
#psi4
#
memory 32 gb

molecule  {
0 1
  F       -2.3906030    -0.3590020    -0.0066210
  O        2.4640461    -0.2050432    -0.2199088
  C       -0.0144610    -0.3473430    -0.0304030
  C        1.2502680     0.5009380     0.0283430
  C       -1.2767230     0.4877420     0.0169350
  H       -0.0325250    -1.0483020     0.8127700
  H       -0.0047840    -0.9400090    -0.9495720
  H        1.2695770     1.0976100     0.9528610
  H        1.2812900     1.1998280    -0.8120650
  H       -1.3458030     1.1584320    -0.8458890
  H       -1.3305600     1.0866320     0.9324260
  H        2.4617370    -0.8846700     0.6667060
units angstrom
no_reorient  #important for SAPT in psi4, default
symmetry c1  #important for SAPT in psi4, default
}

set PROPERTIES_ORIGIN ["COM"]
properties('MP2/aug-cc-pvtz', properties = ['dipole'])
--------------------------------------------------------------------------

    Molecular point group: c1
  Charge       = 0
  Multiplicity = 1
  Basis Set: AUG-CC-PVTZ
    Blend: AUG-CC-PVTZ
  Basis Set: (AUG-CC-PVTZ AUX)
    Blend: AUG-CC-PVTZ-JKFIT

    Orbital Energies [Eh]
    ---------------------

    Doubly Occupied:

       1A    -26.279266     2A    -20.585984     3A    -11.317027
       4A    -11.288471     5A    -11.238477     6A     -1.585175
       7A     -1.347059     8A     -1.069059     9A     -0.919461
      10A     -0.834817    11A     -0.715015    12A     -0.693671
      13A     -0.674608    14A     -0.667578    15A     -0.600436
      16A     -0.593708    17A     -0.570497    18A     -0.511654
      19A     -0.509850    20A     -0.485608    21A     -0.456039

  @DF-RHF Final Energy:  -292.05342672463752

   => Energetics <=

    Nuclear Repulsion Energy =            181.5436647093750651
    One-Electron Energy =                -761.3072679955701005
    Two-Electron Energy =                 287.7101765615574891
    Total Energy =                       -292.0534267246375180
  Basis Set: (AUG-CC-PVTZ AUX)
    Blend: AUG-CC-PVTZ-RI
    Molecular point group: c1

    Geometry (in Angstrom), charge = 0, multiplicity = 1:

       Center              X                  Y                   Z               Mass
    ------------   -----------------  -----------------  -----------------  -----------------
         F           -2.337052641115    -0.349757902853     0.027992895092    18.998403162730
         O            2.517596458885    -0.195799102853    -0.185294904908    15.994914619570
         C            0.039089358885    -0.338098902853     0.004210895092    12.000000000000
         C            1.303818358885     0.510182097147     0.062956895092    12.000000000000
         C           -1.223172641115     0.496986097147     0.051548895092    12.000000000000
         H            0.021025358885    -1.039057902853     0.847383895092     1.007825032230
         H            0.048766358885    -0.930764902853    -0.914958104908     1.007825032230
         H            1.323127358885     1.106854097147     0.987474895092     1.007825032230
         H            1.334840358885     1.209072097147    -0.777451104908     1.007825032230
         H           -1.292252641115     1.167676097147    -0.811275104908     1.007825032230
         H           -1.277009641115     1.095876097147     0.967039895092     1.007825032230
         H            2.515287358885    -0.875425902853     0.701319895092     1.007825032230

  Basis Set: AUG-CC-PVTZ
    Blend: AUG-CC-PVTZ
  Basis Set: (AUG-CC-PVTZ AUX)
    Blend: AUG-CC-PVTZ-JKFIT
	 Reference Energy          =    -292.0534267246375180 [Eh]
	 Singles Energy            =      -0.0000000000000000 [Eh]
	 Same-Spin Energy          =      -0.2638774756924535 [Eh]
	 Opposite-Spin Energy      =      -0.8653001790727897 [Eh]
	 Correlation Energy        =      -1.1291776547652432 [Eh]
	 Total Energy              =    -293.1826043794027328 [Eh]

	 ================> DF-SCS-MP2 Energies <==================
	-----------------------------------------------------------
	 SCS Same-Spin Scale       =       0.3333333333333333 [-]
	 SCS Opposite-Spin Scale   =       1.2000000000000000 [-]
	 SCS Same-Spin Energy      =      -0.0879591585641512 [Eh]
	 SCS Opposite-Spin Energy  =      -1.0383602148873476 [Eh]
	 SCS Correlation Energy    =      -1.1263193734514989 [Eh]
	 SCS Total Energy          =    -293.1797460980890264 [Eh]
	-----------------------------------------------------------

  Dipole Moment: [D]
     X:     0.4350      Y:     0.7789      Z:     1.3280     Total:     1.5998

*** Psi4 exiting successfully. Buy a developer a beer!
