                               Psi4 1.3.2 release

  ==> Input File <==

--------------------------------------------------------------------------
#psi4
#
memory 32 gb

molecule  {
0 1
  F       -2.3906030    -0.3590020    -0.0066210
  O        2.4327490    -0.2858150    -0.0983620
  C       -0.0144610    -0.3473430    -0.0304030
  C        1.2502680     0.5009380     0.0283430
  C       -1.2767230     0.4877420     0.0169350
  H       -0.0325250    -1.0483020     0.8127700
  H       -0.0047840    -0.9400090    -0.9495720
  H        1.2695770     1.0976100     0.9528610
  H        1.2812900     1.1998280    -0.8120650
  H       -1.3458030     1.1584320    -0.8458890
  H       -1.3305600     1.0866320     0.9324260
  H        2.4647193    -0.9462802     0.7454162
units angstrom
no_reorient  #important for SAPT in psi4, default
symmetry c1  #important for SAPT in psi4, default
}

set PROPERTIES_ORIGIN ["COM"]
properties('MP2/aug-cc-pvtz', properties = ['dipole'])
--------------------------------------------------------------------------

    Molecular point group: c1
  Charge       = 0
  Multiplicity = 1
  Basis Set: AUG-CC-PVTZ
    Blend: AUG-CC-PVTZ
  Basis Set: (AUG-CC-PVTZ AUX)
    Blend: AUG-CC-PVTZ-JKFIT

    Orbital Energies [Eh]
    ---------------------

    Doubly Occupied:

       1A    -26.277987     2A    -20.577338     3A    -11.315331
       4A    -11.289320     5A    -11.236231     6A     -1.583970
       7A     -1.347586     8A     -1.068027     9A     -0.921188
      10A     -0.835826    11A     -0.713586    12A     -0.693888
      13A     -0.674293    14A     -0.665753    15A     -0.612376
      16A     -0.590459    17A     -0.567516    18A     -0.515441
      19A     -0.505494    20A     -0.486388    21A     -0.452603

  @DF-RHF Final Energy:  -292.06794836580696

   => Energetics <=

    Nuclear Repulsion Energy =            181.8715390081358407
    One-Electron Energy =                -762.0177717776380177
    Two-Electron Energy =                 288.0782844036951929
    Total Energy =                       -292.0679483658069557
  Basis Set: (AUG-CC-PVTZ AUX)
    Blend: AUG-CC-PVTZ-RI
    Molecular point group: c1

    Geometry (in Angstrom), charge = 0, multiplicity = 1:

       Center              X                  Y                   Z               Mass
    ------------   -----------------  -----------------  -----------------  -----------------
         F           -2.330677228385    -0.332409236226     0.002067126503    18.998403162730
         O            2.492674771615    -0.259222236226    -0.089673873497    15.994914619570
         C            0.045464771615    -0.320750236226    -0.021714873497    12.000000000000
         C            1.310193771615     0.527530763774     0.037031126503    12.000000000000
         C           -1.216797228385     0.514334763774     0.025623126503    12.000000000000
         H            0.027400771615    -1.021709236226     0.821458126503     1.007825032230
         H            0.055141771615    -0.913416236226    -0.940883873497     1.007825032230
         H            1.329502771615     1.124202763774     0.961549126503     1.007825032230
         H            1.341215771615     1.226420763774    -0.803376873497     1.007825032230
         H           -1.285877228385     1.185024763774    -0.837200873497     1.007825032230
         H           -1.270634228385     1.113224763774     0.941114126503     1.007825032230
         H            2.524645071615    -0.919687436226     0.754104326503     1.007825032230

  Basis Set: AUG-CC-PVTZ
    Blend: AUG-CC-PVTZ
  Basis Set: (AUG-CC-PVTZ AUX)
    Blend: AUG-CC-PVTZ-JKFIT
	 Reference Energy          =    -292.0679483658069557 [Eh]
	 Singles Energy            =      -0.0000000000000000 [Eh]
	 Same-Spin Energy          =      -0.2628206404587213 [Eh]
	 Opposite-Spin Energy      =      -0.8624680651673320 [Eh]
	 Correlation Energy        =      -1.1252887056260532 [Eh]
	 Total Energy              =    -293.1932370714330318 [Eh]

	 ================> DF-SCS-MP2 Energies <==================
	-----------------------------------------------------------
	 SCS Same-Spin Scale       =       0.3333333333333333 [-]
	 SCS Opposite-Spin Scale   =       1.2000000000000000 [-]
	 SCS Same-Spin Energy      =      -0.0876068801529071 [Eh]
	 SCS Opposite-Spin Energy  =      -1.0349616782007984 [Eh]
	 SCS Correlation Energy    =      -1.1225685583537055 [Eh]
	 SCS Total Energy          =    -293.1905169241606472 [Eh]
	-----------------------------------------------------------

  Dipole Moment: [D]
     X:     0.4948      Y:     0.8501      Z:     1.2459     Total:     1.5874

*** Psi4 exiting successfully. Buy a developer a beer!
