                               Psi4 1.4a3.dev225

  ==> Input File <==

--------------------------------------------------------------------------
#psi4
#
memory 32 gb

molecule  {
0 1
  F       -2.3905990    -0.3589170    -0.0065240
  O        2.4327270    -0.2857950    -0.0983550
  C       -0.0144620    -0.3474730    -0.0305520
  C        1.2501660     0.5009030     0.0283150
  C       -1.2926219     0.4755668     0.0165800
  H       -0.0324870    -1.0484940     0.8125610
  H       -0.0047440    -0.9399880    -0.9498040
  H        1.2693770     1.0974880     0.9528950
  H        1.2812390     1.1998900    -0.8120130
  H       -1.3457900     1.1584290    -0.8458720
  H       -1.3303370     1.0865880     0.9324180
  H        2.4623010    -0.8838830     0.6672960
units angstrom
no_reorient  #important for SAPT in psi4, default
symmetry c1  #important for SAPT in psi4, default
}

set PROPERTIES_ORIGIN ["COM"]
properties('MP2/aug-cc-pvtz', properties = ['dipole'])
--------------------------------------------------------------------------

    Molecular point group: c1
  Charge       = 0
  Multiplicity = 1
  Basis Set: AUG-CC-PVTZ
    Blend: AUG-CC-PVTZ
  Basis Set: (AUG-CC-PVTZ AUX)
    Blend: AUG-CC-PVTZ-JKFIT

    Orbital Energies [Eh]
    ---------------------

    Doubly Occupied:

       1A    -26.283045     2A    -20.568577     3A    -11.316006
       4A    -11.289641     5A    -11.236233     6A     -1.594643
       7A     -1.365706     8A     -1.067660     9A     -0.925737
      10A     -0.839035    11A     -0.718558    12A     -0.704285
      13A     -0.683786    14A     -0.672273    15A     -0.620104
      16A     -0.593079    17A     -0.568469    18A     -0.514090
      19A     -0.503694    20A     -0.487621    21A     -0.454354

  @DF-RHF Final Energy:  -292.08127473567862

   => Energetics <=

    Nuclear Repulsion Energy =            182.5004773442267663
    One-Electron Energy =                -763.1503096959335153
    Two-Electron Energy =                 288.5685576160281585
    Total Energy =                       -292.0812747356786190
  Basis Set: (AUG-CC-PVTZ AUX)
    Blend: AUG-CC-PVTZ-RI
    Molecular point group: c1

    Geometry (in Angstrom), charge = 0, multiplicity = 1:

       Center              X                  Y                   Z               Mass
    ------------   -----------------  -----------------  -----------------  -----------------
         F           -2.328178965972    -0.331253840403     0.003234100000    18.998403162730
         O            2.495147034028    -0.258131840403    -0.088596900000    15.994914619570
         C            0.047958034028    -0.319809840403    -0.020793900000    12.000000000000
         C            1.312586034028     0.528566159597     0.038073100000    12.000000000000
         C           -1.230201865972     0.503229959597     0.026338100000    12.000000000000
         H            0.029933034028    -1.020830840403     0.822319100000     1.007825032230
         H            0.057676034028    -0.912324840403    -0.940045900000     1.007825032230
         H            1.331797034028     1.125151159597     0.962653100000     1.007825032230
         H            1.343659034028     1.227553159597    -0.802254900000     1.007825032230
         H           -1.283369965972     1.186092159597    -0.836113900000     1.007825032230
         H           -1.267916965972     1.114251159597     0.942176100000     1.007825032230
         H            2.524721034028    -0.856219840403     0.677054100000     1.007825032230

  Basis Set: AUG-CC-PVTZ
    Blend: AUG-CC-PVTZ
  Basis Set: (AUG-CC-PVTZ AUX)
    Blend: AUG-CC-PVTZ-JKFIT
	 Reference Energy          =    -292.0812747356786190 [Eh]
	 Singles Energy            =      -0.0000000000000000 [Eh]
	 Same-Spin Energy          =      -0.2616841390064459 [Eh]
	 Opposite-Spin Energy      =      -0.8589451546985282 [Eh]
	 Correlation Energy        =      -1.1206292937049742 [Eh]
	 Total Energy              =    -293.2019040293835701 [Eh]

	 ================> DF-SCS-MP2 Energies <==================
	-----------------------------------------------------------
	 SCS Same-Spin Scale       =       0.3333333333333333 [-]
	 SCS Opposite-Spin Scale   =       1.2000000000000000 [-]
	 SCS Same-Spin Energy      =      -0.0872280463354820 [Eh]
	 SCS Opposite-Spin Energy  =      -1.0307341856382337 [Eh]
	 SCS Correlation Energy    =      -1.1179622319737157 [Eh]
	 SCS Total Energy          =    -293.1992369676523253 [Eh]
	-----------------------------------------------------------

  Dipole Moment: [D]
     X:     0.3871      Y:     0.8499      Z:     1.1970     Total:     1.5182

*** Psi4 exiting successfully. Buy a developer a beer!
