                               Psi4 1.3.2 release

  ==> Input File <==

--------------------------------------------------------------------------
#psi4
#
memory 32 gb

molecule  {
0 1
  F       -2.3906030    -0.3590020    -0.0066210
  O        2.4327490    -0.2858150    -0.0983620
  C       -0.0144610    -0.3473430    -0.0304030
  C        1.2232757     0.4258930     0.1545051
  C       -1.2767230     0.4877420     0.0169350
  H       -0.0325250    -1.0483020     0.8127700
  H       -0.0047840    -0.9400090    -0.9495720
  H        1.2695770     1.0976100     0.9528610
  H        1.2812900     1.1998280    -0.8120650
  H       -1.3458030     1.1584320    -0.8458890
  H       -1.3305600     1.0866320     0.9324260
  H        2.4617370    -0.8846700     0.6667060
units angstrom
no_reorient  #important for SAPT in psi4, default
symmetry c1  #important for SAPT in psi4, default
}

set PROPERTIES_ORIGIN ["COM"]
properties('MP2/aug-cc-pvtz', properties = ['dipole'])
--------------------------------------------------------------------------

    Molecular point group: c1
  Charge       = 0
  Multiplicity = 1
  Basis Set: AUG-CC-PVTZ
    Blend: AUG-CC-PVTZ
  Basis Set: (AUG-CC-PVTZ AUX)
    Blend: AUG-CC-PVTZ-JKFIT

    Orbital Energies [Eh]
    ---------------------

    Doubly Occupied:

       1A    -26.280090     2A    -20.575799     3A    -11.318219
       4A    -11.294992     5A    -11.237726     6A     -1.585925
       7A     -1.373609     8A     -1.079922     9A     -0.927519
      10A     -0.836924    11A     -0.721352    12A     -0.699417
      13A     -0.689273    14A     -0.670873    15A     -0.606434
      16A     -0.600164    17A     -0.581950    18A     -0.513679
      19A     -0.511643    20A     -0.472745    21A     -0.453701

  @DF-RHF Final Energy:  -292.05636125946023

   => Energetics <=

    Nuclear Repulsion Energy =            182.9447971537317699
    One-Electron Energy =                -763.9384051311593566
    Two-Electron Energy =                 288.9372467179673549
    Total Energy =                       -292.0563612594602318
  Basis Set: (AUG-CC-PVTZ AUX)
    Blend: AUG-CC-PVTZ-RI
    Molecular point group: c1

    Geometry (in Angstrom), charge = 0, multiplicity = 1:

       Center              X                  Y                   Z               Mass
    ------------   -----------------  -----------------  -----------------  -----------------
         F           -2.326488615646    -0.321666530467    -0.016314092498    18.998403162730
         O            2.496863384354    -0.248479530467    -0.108055092498    15.994914619570
         C            0.049653384354    -0.310007530467    -0.040096092498    12.000000000000
         C            1.287390084354     0.463228469533     0.144812007502    12.000000000000
         C           -1.212608615646     0.525077469533     0.007241907502    12.000000000000
         H            0.031589384354    -1.010966530467     0.803076907502     1.007825032230
         H            0.059330384354    -0.902673530467    -0.959265092498     1.007825032230
         H            1.333691384354     1.134945469533     0.943167907502     1.007825032230
         H            1.345404384354     1.237163469533    -0.821758092498     1.007825032230
         H           -1.281688615646     1.195767469533    -0.855582092498     1.007825032230
         H           -1.266445615646     1.123967469533     0.922732907502     1.007825032230
         H            2.525851384354    -0.847334530467     0.657012907502     1.007825032230

  Basis Set: AUG-CC-PVTZ
    Blend: AUG-CC-PVTZ
  Basis Set: (AUG-CC-PVTZ AUX)
    Blend: AUG-CC-PVTZ-JKFIT
	 Reference Energy          =    -292.0563612594602318 [Eh]
	 Singles Energy            =      -0.0000000000000000 [Eh]
	 Same-Spin Energy          =      -0.2630074016461620 [Eh]
	 Opposite-Spin Energy      =      -0.8618554732080483 [Eh]
	 Correlation Energy        =      -1.1248628748542102 [Eh]
	 Total Energy              =    -293.1812241343144478 [Eh]

	 ================> DF-SCS-MP2 Energies <==================
	-----------------------------------------------------------
	 SCS Same-Spin Scale       =       0.3333333333333333 [-]
	 SCS Opposite-Spin Scale   =       1.2000000000000000 [-]
	 SCS Same-Spin Energy      =      -0.0876691338820540 [Eh]
	 SCS Opposite-Spin Energy  =      -1.0342265678496581 [Eh]
	 SCS Correlation Energy    =      -1.1218957017317122 [Eh]
	 SCS Total Energy          =    -293.1782569611919484 [Eh]
	-----------------------------------------------------------

  Dipole Moment: [D]
     X:     0.4393      Y:     0.7538      Z:     1.3662     Total:     1.6211

*** Psi4 exiting successfully. Buy a developer a beer!
