                               Psi4 1.3.2 release

  ==> Input File <==

--------------------------------------------------------------------------
#psi4
#
memory 32 gb

molecule  {
0 1
  F       -2.4194826    -0.3196558    -0.0047030
  O        2.4327490    -0.2858150    -0.0983620
  C       -0.0144610    -0.3473430    -0.0304030
  C        1.2502680     0.5009380     0.0283430
  C       -1.2767230     0.4877420     0.0169350
  H       -0.0325250    -1.0483020     0.8127700
  H       -0.0047840    -0.9400090    -0.9495720
  H        1.2695770     1.0976100     0.9528610
  H        1.2812900     1.1998280    -0.8120650
  H       -1.3458030     1.1584320    -0.8458890
  H       -1.3305600     1.0866320     0.9324260
  H        2.4617370    -0.8846700     0.6667060
units angstrom
no_reorient  #important for SAPT in psi4, default
symmetry c1  #important for SAPT in psi4, default
}

set PROPERTIES_ORIGIN ["COM"]
properties('MP2/aug-cc-pvtz', properties = ['dipole'])
--------------------------------------------------------------------------

    Molecular point group: c1
  Charge       = 0
  Multiplicity = 1
  Basis Set: AUG-CC-PVTZ
    Blend: AUG-CC-PVTZ
  Basis Set: (AUG-CC-PVTZ AUX)
    Blend: AUG-CC-PVTZ-JKFIT

    Orbital Energies [Eh]
    ---------------------

    Doubly Occupied:

       1A    -26.278147     2A    -20.569582     3A    -11.315543
       4A    -11.291014     5A    -11.237945     6A     -1.583974
       7A     -1.366752     8A     -1.070677     9A     -0.926139
      10A     -0.839792    11A     -0.716979    12A     -0.699170
      13A     -0.679933    14A     -0.667157    15A     -0.619786
      16A     -0.593709    17A     -0.569691    18A     -0.516686
      19A     -0.507101    20A     -0.489490    21A     -0.455782

  @DF-RHF Final Energy:  -292.08109975452800

   => Energetics <=

    Nuclear Repulsion Energy =            182.1173289246482625
    One-Electron Energy =                -762.4067605702780384
    Two-Electron Energy =                 288.2083318911017500
    Total Energy =                       -292.0810997545279974
  Basis Set: (AUG-CC-PVTZ AUX)
    Blend: AUG-CC-PVTZ-RI
    Molecular point group: c1

    Geometry (in Angstrom), charge = 0, multiplicity = 1:

       Center              X                  Y                   Z               Mass
    ------------   -----------------  -----------------  -----------------  -----------------
         F           -2.352488469642    -0.303436220773     0.004534623242    18.998403162730
         O            2.499743130358    -0.269595420773    -0.089124376758    15.994914619570
         C            0.052533130358    -0.331123420773    -0.021165376758    12.000000000000
         C            1.317262130358     0.517157579227     0.037580623242    12.000000000000
         C           -1.209728869642     0.503961579227     0.026172623242    12.000000000000
         H            0.034469130358    -1.032082420773     0.822007623242     1.007825032230
         H            0.062210130358    -0.923789420773    -0.940334376758     1.007825032230
         H            1.336571130358     1.113829579227     0.962098623242     1.007825032230
         H            1.348284130358     1.216047579227    -0.802827376758     1.007825032230
         H           -1.278808869642     1.174651579227    -0.836651376758     1.007825032230
         H           -1.263565869642     1.102851579227     0.941663623242     1.007825032230
         H            2.528731130358    -0.868450420773     0.675943623242     1.007825032230

  Basis Set: AUG-CC-PVTZ
    Blend: AUG-CC-PVTZ
  Basis Set: (AUG-CC-PVTZ AUX)
    Blend: AUG-CC-PVTZ-JKFIT
	 Reference Energy          =    -292.0810997545279974 [Eh]
	 Singles Energy            =      -0.0000000000000000 [Eh]
	 Same-Spin Energy          =      -0.2617593781043649 [Eh]
	 Opposite-Spin Energy      =      -0.8593192239551452 [Eh]
	 Correlation Energy        =      -1.1210786020595100 [Eh]
	 Total Energy              =    -293.2021783565875239 [Eh]

	 ================> DF-SCS-MP2 Energies <==================
	-----------------------------------------------------------
	 SCS Same-Spin Scale       =       0.3333333333333333 [-]
	 SCS Opposite-Spin Scale   =       1.2000000000000000 [-]
	 SCS Same-Spin Energy      =      -0.0872531260347883 [Eh]
	 SCS Opposite-Spin Energy  =      -1.0311830687461740 [Eh]
	 SCS Correlation Energy    =      -1.1184361947809625 [Eh]
	 SCS Total Energy          =    -293.1995359493089381 [Eh]
	-----------------------------------------------------------

  Dipole Moment: [D]
     X:     0.5284      Y:     0.8429      Z:     1.1958     Total:     1.5556

*** Psi4 exiting successfully. Buy a developer a beer!
