                               Psi4 1.4a3.dev225

  ==> Input File <==

--------------------------------------------------------------------------
#psi4
#
memory 32 gb

molecule  {
0 1
  F       -2.3905990    -0.3589170    -0.0065240
  O        2.4327270    -0.2857950    -0.0983550
  C       -0.0144620    -0.3474730    -0.0305520
  C        1.2667521     0.4898691     0.0265384
  C       -1.2767010     0.4876670     0.0169150
  H       -0.0324870    -1.0484940     0.8125610
  H       -0.0047440    -0.9399880    -0.9498040
  H        1.2693770     1.0974880     0.9528950
  H        1.2812390     1.1998900    -0.8120130
  H       -1.3457900     1.1584290    -0.8458720
  H       -1.3303370     1.0865880     0.9324180
  H        2.4623010    -0.8838830     0.6672960
units angstrom
no_reorient  #important for SAPT in psi4, default
symmetry c1  #important for SAPT in psi4, default
}

set PROPERTIES_ORIGIN ["COM"]
properties('MP2/aug-cc-pvtz', properties = ['dipole'])
--------------------------------------------------------------------------

    Molecular point group: c1
  Charge       = 0
  Multiplicity = 1
  Basis Set: AUG-CC-PVTZ
    Blend: AUG-CC-PVTZ
  Basis Set: (AUG-CC-PVTZ AUX)
    Blend: AUG-CC-PVTZ-JKFIT

    Orbital Energies [Eh]
    ---------------------

    Doubly Occupied:

       1A    -26.278124     2A    -20.571038     3A    -11.315477
       4A    -11.290530     5A    -11.236279     6A     -1.584069
       7A     -1.374396     8A     -1.067868     9A     -0.925089
      10A     -0.839011    11A     -0.717485    12A     -0.701005
      13A     -0.680611    14A     -0.666901    15A     -0.621403
      16A     -0.595803    17A     -0.570498    18A     -0.515234
      19A     -0.507827    20A     -0.487034    21A     -0.452408

  @DF-RHF Final Energy:  -292.08112759194984

   => Energetics <=

    Nuclear Repulsion Energy =            182.4598295354032018
    One-Electron Energy =                -763.0857317032910032
    Two-Electron Energy =                 288.5447745759379927
    Total Energy =                       -292.0811275919498371
  Basis Set: (AUG-CC-PVTZ AUX)
    Blend: AUG-CC-PVTZ-RI
    Molecular point group: c1

    Geometry (in Angstrom), charge = 0, multiplicity = 1:

       Center              X                  Y                   Z               Mass
    ------------   -----------------  -----------------  -----------------  -----------------
         F           -2.333176961246    -0.331417785473     0.003455747953    18.998403162730
         O            2.490149038754    -0.258295785473    -0.088375252047    15.994914619570
         C            0.042960038754    -0.319973785473    -0.020572252047    12.000000000000
         C            1.324174138754     0.517368314527     0.036518147953    12.000000000000
         C           -1.219278961246     0.515166214527     0.026894747953    12.000000000000
         H            0.024935038754    -1.020994785473     0.822540747953     1.007825032230
         H            0.052678038754    -0.912488785473    -0.939824252047     1.007825032230
         H            1.326799038754     1.124987214527     0.962874747953     1.007825032230
         H            1.338661038754     1.227389214527    -0.802033252047     1.007825032230
         H           -1.288367961246     1.185928214527    -0.835892252047     1.007825032230
         H           -1.272914961246     1.114087214527     0.942397747953     1.007825032230
         H            2.519723038754    -0.856383785473     0.677275747953     1.007825032230

  Basis Set: AUG-CC-PVTZ
    Blend: AUG-CC-PVTZ
  Basis Set: (AUG-CC-PVTZ AUX)
    Blend: AUG-CC-PVTZ-JKFIT
	 Reference Energy          =    -292.0811275919498371 [Eh]
	 Singles Energy            =      -0.0000000000000000 [Eh]
	 Same-Spin Energy          =      -0.2617217322885134 [Eh]
	 Opposite-Spin Energy      =      -0.8590291821423506 [Eh]
	 Correlation Energy        =      -1.1207509144308641 [Eh]
	 Total Energy              =    -293.2018785063806945 [Eh]

	 ================> DF-SCS-MP2 Energies <==================
	-----------------------------------------------------------
	 SCS Same-Spin Scale       =       0.3333333333333333 [-]
	 SCS Opposite-Spin Scale   =       1.2000000000000000 [-]
	 SCS Same-Spin Energy      =      -0.0872405774295044 [Eh]
	 SCS Opposite-Spin Energy  =      -1.0308350185708206 [Eh]
	 SCS Correlation Energy    =      -1.1180755960003250 [Eh]
	 SCS Total Energy          =    -293.1992031879501610 [Eh]
	-----------------------------------------------------------

  Dipole Moment: [D]
     X:     0.5403      Y:     0.8600      Z:     1.1942     Total:     1.5677

*** Psi4 exiting successfully. Buy a developer a beer!
