                               Psi4 1.4a3.dev225

  ==> Input File <==

--------------------------------------------------------------------------
#psi4
#
memory 32 gb

molecule  {
0 1
  F       -2.3905990    -0.3589170    -0.0065240
  O        2.4327270    -0.2857950    -0.0983550
  C       -0.0144620    -0.3474730    -0.0305520
  C        1.2916312     0.4733183     0.0238735
  C       -1.2767010     0.4876670     0.0169150
  H       -0.0324870    -1.0484940     0.8125610
  H       -0.0047440    -0.9399880    -0.9498040
  H        1.2693770     1.0974880     0.9528950
  H        1.2812390     1.1998900    -0.8120130
  H       -1.3457900     1.1584290    -0.8458720
  H       -1.3303370     1.0865880     0.9324180
  H        2.4623010    -0.8838830     0.6672960
units angstrom
no_reorient  #important for SAPT in psi4, default
symmetry c1  #important for SAPT in psi4, default
}

set PROPERTIES_ORIGIN ["COM"]
properties('MP2/aug-cc-pvtz', properties = ['dipole'])
--------------------------------------------------------------------------

    Molecular point group: c1
  Charge       = 0
  Multiplicity = 1
  Basis Set: AUG-CC-PVTZ
    Blend: AUG-CC-PVTZ
  Basis Set: (AUG-CC-PVTZ AUX)
    Blend: AUG-CC-PVTZ-JKFIT

    Orbital Energies [Eh]
    ---------------------

    Doubly Occupied:

       1A    -26.277768     2A    -20.574272     3A    -11.315000
       4A    -11.291458     5A    -11.235449     6A     -1.583641
       7A     -1.387668     8A     -1.064525     9A     -0.923789
      10A     -0.838773    11A     -0.719246    12A     -0.702690
      13A     -0.681005    14A     -0.667497    15A     -0.625446
      16A     -0.600213    17A     -0.572786    18A     -0.512422
      19A     -0.508021    20A     -0.483217    21A     -0.448231

  @DF-RHF Final Energy:  -292.07950224061074

   => Energetics <=

    Nuclear Repulsion Energy =            182.5881109443396895
    One-Electron Energy =                -763.3089932629985697
    Two-Electron Energy =                 288.6413800780480869
    Total Energy =                       -292.0795022406107364
  Basis Set: (AUG-CC-PVTZ AUX)
    Blend: AUG-CC-PVTZ-RI
    Molecular point group: c1

    Geometry (in Angstrom), charge = 0, multiplicity = 1:

       Center              X                  Y                   Z               Mass
    ------------   -----------------  -----------------  -----------------  -----------------
         F           -2.337002156564    -0.328873077558     0.003865479937    18.998403162730
         O            2.486323843436    -0.255751077558    -0.087965520063    15.994914619570
         C            0.039134843436    -0.317429077558    -0.020162520063    12.000000000000
         C            1.345228043436     0.503362222442     0.034262979937    12.000000000000
         C           -1.223104156564     0.517710922442     0.027304479937    12.000000000000
         H            0.021109843436    -1.018450077558     0.822950479937     1.007825032230
         H            0.048852843436    -0.909944077558    -0.939414520063     1.007825032230
         H            1.322973843436     1.127531922442     0.963284479937     1.007825032230
         H            1.334835843436     1.229933922442    -0.801623520063     1.007825032230
         H           -1.292193156564     1.188472922442    -0.835482520063     1.007825032230
         H           -1.276740156564     1.116631922442     0.942807479937     1.007825032230
         H            2.515897843436    -0.853839077558     0.677685479937     1.007825032230

  Basis Set: AUG-CC-PVTZ
    Blend: AUG-CC-PVTZ
  Basis Set: (AUG-CC-PVTZ AUX)
    Blend: AUG-CC-PVTZ-JKFIT
	 Reference Energy          =    -292.0795022406107364 [Eh]
	 Singles Energy            =      -0.0000000000000000 [Eh]
	 Same-Spin Energy          =      -0.2617019103435464 [Eh]
	 Opposite-Spin Energy      =      -0.8586581173563692 [Eh]
	 Correlation Energy        =      -1.1203600276999155 [Eh]
	 Total Energy              =    -293.1998622683106532 [Eh]

	 ================> DF-SCS-MP2 Energies <==================
	-----------------------------------------------------------
	 SCS Same-Spin Scale       =       0.3333333333333333 [-]
	 SCS Opposite-Spin Scale   =       1.2000000000000000 [-]
	 SCS Same-Spin Energy      =      -0.0872339701145155 [Eh]
	 SCS Opposite-Spin Energy  =      -1.0303897408276430 [Eh]
	 SCS Correlation Energy    =      -1.1176237109421585 [Eh]
	 SCS Total Energy          =    -293.1971259515528914 [Eh]
	-----------------------------------------------------------

  Dipole Moment: [D]
     X:     0.6519      Y:     0.7999      Z:     1.1864     Total:     1.5724

*** Psi4 exiting successfully. Buy a developer a beer!
