                               Psi4 1.4a3.dev225

  ==> Input File <==

--------------------------------------------------------------------------
#psi4
#
memory 32 gb

molecule  {
0 1
  F       -2.3905990    -0.3589170    -0.0065240
  O        2.4327270    -0.2857950    -0.0983550
  C       -0.0144620    -0.3474730    -0.0305520
  C        1.2501660     0.5009030     0.0283150
  C       -1.2767010     0.4876670     0.0169150
  H       -0.0324870    -1.0484940     0.8125610
  H       -0.0047440    -0.9399880    -0.9498040
  H        1.2693770     1.0974880     0.9528950
  H        1.2812390     1.1998900    -0.8120130
  H       -1.3457900     1.1584290    -0.8458720
  H       -1.3303370     1.0865880     0.9324180
  H        2.4629095    -0.8961892     0.6830500
units angstrom
no_reorient  #important for SAPT in psi4, default
symmetry c1  #important for SAPT in psi4, default
}

set PROPERTIES_ORIGIN ["COM"]
properties('MP2/aug-cc-pvtz', properties = ['dipole'])
--------------------------------------------------------------------------

    Molecular point group: c1
  Charge       = 0
  Multiplicity = 1
  Basis Set: AUG-CC-PVTZ
    Blend: AUG-CC-PVTZ
  Basis Set: (AUG-CC-PVTZ AUX)
    Blend: AUG-CC-PVTZ-JKFIT

    Orbital Energies [Eh]
    ---------------------

    Doubly Occupied:

       1A    -26.278277     2A    -20.570721     3A    -11.315697
       4A    -11.289934     5A    -11.236700     6A     -1.584274
       7A     -1.361862     8A     -1.069662     9A     -0.924865
      10A     -0.838583    11A     -0.715990    12A     -0.698429
      13A     -0.679270    14A     -0.666477    15A     -0.617947
      16A     -0.592289    17A     -0.568703    18A     -0.517043
      19A     -0.507010    20A     -0.488632    21A     -0.454181

  @DF-RHF Final Energy:  -292.07963563076339

   => Energetics <=

    Nuclear Repulsion Energy =            182.2731630614925393
    One-Electron Energy =                -762.7525076591542756
    Two-Electron Energy =                 288.3997089668984017
    Total Energy =                       -292.0796356307633914
  Basis Set: (AUG-CC-PVTZ AUX)
    Blend: AUG-CC-PVTZ-RI
    Molecular point group: c1

    Geometry (in Angstrom), charge = 0, multiplicity = 1:

       Center              X                  Y                   Z               Mass
    ------------   -----------------  -----------------  -----------------  -----------------
         F           -2.330634683391    -0.332955354156     0.002979163912    18.998403162730
         O            2.492691316609    -0.259833354156    -0.088851836088    15.994914619570
         C            0.045502316609    -0.321511354156    -0.021048836088    12.000000000000
         C            1.310130316609     0.526864645844     0.037818163912    12.000000000000
         C           -1.216736683391     0.513628645844     0.026418163912    12.000000000000
         H            0.027477316609    -1.022532354156     0.822064163912     1.007825032230
         H            0.055220316609    -0.914026354156    -0.940300836088     1.007825032230
         H            1.329341316609     1.123449645844     0.962398163912     1.007825032230
         H            1.341203316609     1.225851645844    -0.802509836088     1.007825032230
         H           -1.285825683391     1.184390645844    -0.836368836088     1.007825032230
         H           -1.270372683391     1.112549645844     0.941921163912     1.007825032230
         H            2.522873816609    -0.870227554156     0.692553163912     1.007825032230

  Basis Set: AUG-CC-PVTZ
    Blend: AUG-CC-PVTZ
  Basis Set: (AUG-CC-PVTZ AUX)
    Blend: AUG-CC-PVTZ-JKFIT
	 Reference Energy          =    -292.0796356307633914 [Eh]
	 Singles Energy            =      -0.0000000000000000 [Eh]
	 Same-Spin Energy          =      -0.2619850064273680 [Eh]
	 Opposite-Spin Energy      =      -0.8599390184566407 [Eh]
	 Correlation Energy        =      -1.1219240248840086 [Eh]
	 Total Energy              =    -293.2015596556473724 [Eh]

	 ================> DF-SCS-MP2 Energies <==================
	-----------------------------------------------------------
	 SCS Same-Spin Scale       =       0.3333333333333333 [-]
	 SCS Opposite-Spin Scale   =       1.2000000000000000 [-]
	 SCS Same-Spin Energy      =      -0.0873283354757893 [Eh]
	 SCS Opposite-Spin Energy  =      -1.0319268221479687 [Eh]
	 SCS Correlation Energy    =      -1.1192551576237579 [Eh]
	 SCS Total Energy          =    -293.1988907883871320 [Eh]
	-----------------------------------------------------------

  Dipole Moment: [D]
     X:     0.4749      Y:     0.8874      Z:     1.2087     Total:     1.5729

*** Psi4 exiting successfully. Buy a developer a beer!
