                               Psi4 1.3.2 release

  ==> Input File <==

--------------------------------------------------------------------------
#psi4
#
memory 32 gb

molecule  {
0 1
  F       -2.3906030    -0.3590020    -0.0066210
  O        2.4327490    -0.2858150    -0.0983620
  C       -0.0144610    -0.3473430    -0.0304030
  C        1.2621632     0.5240754    -0.0140884
  C       -1.2767230     0.4877420     0.0169350
  H       -0.0325250    -1.0483020     0.8127700
  H       -0.0047840    -0.9400090    -0.9495720
  H        1.2695770     1.0976100     0.9528610
  H        1.2812900     1.1998280    -0.8120650
  H       -1.3458030     1.1584320    -0.8458890
  H       -1.3305600     1.0866320     0.9324260
  H        2.4617370    -0.8846700     0.6667060
units angstrom
no_reorient  #important for SAPT in psi4, default
symmetry c1  #important for SAPT in psi4, default
}

set PROPERTIES_ORIGIN ["COM"]
properties('MP2/aug-cc-pvtz', properties = ['dipole'])
--------------------------------------------------------------------------

    Molecular point group: c1
  Charge       = 0
  Multiplicity = 1
  Basis Set: AUG-CC-PVTZ
    Blend: AUG-CC-PVTZ
  Basis Set: (AUG-CC-PVTZ AUX)
    Blend: AUG-CC-PVTZ-JKFIT

    Orbital Energies [Eh]
    ---------------------

    Doubly Occupied:

       1A    -26.277756     2A    -20.567402     3A    -11.315048
       4A    -11.290178     5A    -11.237296     6A     -1.583779
       7A     -1.364384     8A     -1.067018     9A     -0.926986
      10A     -0.841419    11A     -0.714970    12A     -0.699697
      13A     -0.677071    14A     -0.665910    15A     -0.626837
      16A     -0.591561    17A     -0.566157    18A     -0.521822
      19A     -0.505396    20A     -0.492266    21A     -0.447448

  @DF-RHF Final Energy:  -292.07886720278447

   => Energetics <=

    Nuclear Repulsion Energy =            182.1508723964790590
    One-Electron Energy =                -762.4986755716133757
    Two-Electron Energy =                 288.2689359723498796
    Total Energy =                       -292.0788672027844655
  Basis Set: (AUG-CC-PVTZ AUX)
    Blend: AUG-CC-PVTZ-RI
    Molecular point group: c1

    Geometry (in Angstrom), charge = 0, multiplicity = 1:

       Center              X                  Y                   Z               Mass
    ------------   -----------------  -----------------  -----------------  -----------------
         F           -2.332467621436    -0.336762207435     0.009607386453    18.998403162730
         O            2.490884378564    -0.263575207435    -0.082133613547    15.994914619570
         C            0.043674378564    -0.325103207435    -0.014174613547    12.000000000000
         C            1.320298578564     0.546315192565     0.002139986453    12.000000000000
         C           -1.218587621436     0.509981792565     0.033163386453    12.000000000000
         H            0.025610378564    -1.026062207435     0.828998386453     1.007825032230
         H            0.053351378564    -0.917769207435    -0.933343613547     1.007825032230
         H            1.327712378564     1.119849792565     0.969089386453     1.007825032230
         H            1.339425378564     1.222067792565    -0.795836613547     1.007825032230
         H           -1.287667621436     1.180671792565    -0.829660613547     1.007825032230
         H           -1.272424621436     1.108871792565     0.948654386453     1.007825032230
         H            2.519872378564    -0.862430207435     0.682934386453     1.007825032230

  Basis Set: AUG-CC-PVTZ
    Blend: AUG-CC-PVTZ
  Basis Set: (AUG-CC-PVTZ AUX)
    Blend: AUG-CC-PVTZ-JKFIT
	 Reference Energy          =    -292.0788672027844655 [Eh]
	 Singles Energy            =      -0.0000000000000000 [Eh]
	 Same-Spin Energy          =      -0.2615471058784274 [Eh]
	 Opposite-Spin Energy      =      -0.8590547698406520 [Eh]
	 Correlation Energy        =      -1.1206018757190794 [Eh]
	 Total Energy              =    -293.1994690785035687 [Eh]

	 ================> DF-SCS-MP2 Energies <==================
	-----------------------------------------------------------
	 SCS Same-Spin Scale       =       0.3333333333333333 [-]
	 SCS Opposite-Spin Scale   =       1.2000000000000000 [-]
	 SCS Same-Spin Energy      =      -0.0871823686261425 [Eh]
	 SCS Opposite-Spin Energy  =      -1.0308657238087824 [Eh]
	 SCS Correlation Energy    =      -1.1180480924349250 [Eh]
	 SCS Total Energy          =    -293.1969152952194122 [Eh]
	-----------------------------------------------------------

  Dipole Moment: [D]
     X:     0.4887      Y:     0.9219      Z:     1.1451     Total:     1.5491

*** Psi4 exiting successfully. Buy a developer a beer!
