                               Psi4 1.3.2 release

  ==> Input File <==

--------------------------------------------------------------------------
#psi4
#
memory 32 gb

molecule  {
0 1
  F       -2.3372283    -0.4199414     0.1154143
  O        2.4327490    -0.2858150    -0.0983620
  C       -0.0144610    -0.3473430    -0.0304030
  C        1.2502680     0.5009380     0.0283430
  C       -1.2767230     0.4877420     0.0169350
  H       -0.0325250    -1.0483020     0.8127700
  H       -0.0047840    -0.9400090    -0.9495720
  H        1.2695770     1.0976100     0.9528610
  H        1.2812900     1.1998280    -0.8120650
  H       -1.3458030     1.1584320    -0.8458890
  H       -1.3305600     1.0866320     0.9324260
  H        2.4617370    -0.8846700     0.6667060
units angstrom
no_reorient  #important for SAPT in psi4, default
symmetry c1  #important for SAPT in psi4, default
}

set PROPERTIES_ORIGIN ["COM"]
properties('MP2/aug-cc-pvtz', properties = ['dipole'])
--------------------------------------------------------------------------

    Molecular point group: c1
  Charge       = 0
  Multiplicity = 1
  Basis Set: AUG-CC-PVTZ
    Blend: AUG-CC-PVTZ
  Basis Set: (AUG-CC-PVTZ AUX)
    Blend: AUG-CC-PVTZ-JKFIT

    Orbital Energies [Eh]
    ---------------------

    Doubly Occupied:

       1A    -26.278590     2A    -20.567726     3A    -11.316204
       4A    -11.288541     5A    -11.235034     6A     -1.585165
       7A     -1.364995     8A     -1.069154     9A     -0.925632
      10A     -0.838810    11A     -0.716437    12A     -0.702409
      13A     -0.680422    14A     -0.665301    15A     -0.617403
      16A     -0.590771    17A     -0.569510    18A     -0.516467
      19A     -0.508598    20A     -0.487840    21A     -0.452733

  @DF-RHF Final Energy:  -292.07898100448813

   => Energetics <=

    Nuclear Repulsion Energy =            182.8567462958789349
    One-Electron Energy =                -763.9159698462857477
    Two-Electron Energy =                 288.9802425459187134
    Total Energy =                       -292.0789810044881278
  Basis Set: (AUG-CC-PVTZ AUX)
    Blend: AUG-CC-PVTZ-RI
    Molecular point group: c1

    Geometry (in Angstrom), charge = 0, multiplicity = 1:

       Center              X                  Y                   Z               Mass
    ------------   -----------------  -----------------  -----------------  -----------------
         F           -2.290256444281    -0.379310381790     0.095413068015    18.998403162730
         O            2.479720855719    -0.245183981790    -0.118363231985    15.994914619570
         C            0.032510855719    -0.306711981790    -0.050404231985    12.000000000000
         C            1.297239855719     0.541569018210     0.008341768015    12.000000000000
         C           -1.229751144281     0.528373018210    -0.003066231985    12.000000000000
         H            0.014446855719    -1.007670981790     0.792768768015     1.007825032230
         H            0.042187855719    -0.899377981790    -0.969573231985     1.007825032230
         H            1.316548855719     1.138241018210     0.932859768015     1.007825032230
         H            1.328261855719     1.240459018210    -0.832066231985     1.007825032230
         H           -1.298831144281     1.199063018210    -0.865890231985     1.007825032230
         H           -1.283588144281     1.127263018210     0.912424768015     1.007825032230
         H            2.508708855719    -0.844038981790     0.646704768015     1.007825032230

  Basis Set: AUG-CC-PVTZ
    Blend: AUG-CC-PVTZ
  Basis Set: (AUG-CC-PVTZ AUX)
    Blend: AUG-CC-PVTZ-JKFIT
	 Reference Energy          =    -292.0789810044881278 [Eh]
	 Singles Energy            =      -0.0000000000000000 [Eh]
	 Same-Spin Energy          =      -0.2618605834803528 [Eh]
	 Opposite-Spin Energy      =      -0.8595092913185670 [Eh]
	 Correlation Energy        =      -1.1213698747989198 [Eh]
	 Total Energy              =    -293.2003508792870434 [Eh]

	 ================> DF-SCS-MP2 Energies <==================
	-----------------------------------------------------------
	 SCS Same-Spin Scale       =       0.3333333333333333 [-]
	 SCS Opposite-Spin Scale   =       1.2000000000000000 [-]
	 SCS Same-Spin Energy      =      -0.0872868611601176 [Eh]
	 SCS Opposite-Spin Energy  =      -1.0314111495822804 [Eh]
	 SCS Correlation Energy    =      -1.1186980107423981 [Eh]
	 SCS Total Energy          =    -293.1976790152305057 [Eh]
	-----------------------------------------------------------

  Dipole Moment: [D]
     X:     0.3574      Y:     0.9775      Z:     1.0407     Total:     1.4718

*** Psi4 exiting successfully. Buy a developer a beer!
