                               Psi4 1.4a3.dev225

  ==> Input File <==

--------------------------------------------------------------------------
#psi4
#
memory 32 gb

molecule  {
0 1
  F       -2.3905990    -0.3589170    -0.0065240
  O        2.4327270    -0.2857950    -0.0983550
  C       -0.0144620    -0.3474730    -0.0305520
  C        1.2501660     0.5009030     0.0283150
  C       -1.3165032     0.4574166     0.0160775
  H       -0.0324870    -1.0484940     0.8125610
  H       -0.0047440    -0.9399880    -0.9498040
  H        1.2693770     1.0974880     0.9528950
  H        1.2812390     1.1998900    -0.8120130
  H       -1.3457900     1.1584290    -0.8458720
  H       -1.3303370     1.0865880     0.9324180
  H        2.4623010    -0.8838830     0.6672960
units angstrom
no_reorient  #important for SAPT in psi4, default
symmetry c1  #important for SAPT in psi4, default
}

set PROPERTIES_ORIGIN ["COM"]
properties('MP2/aug-cc-pvtz', properties = ['dipole'])
--------------------------------------------------------------------------

    Molecular point group: c1
  Charge       = 0
  Multiplicity = 1
  Basis Set: AUG-CC-PVTZ
    Blend: AUG-CC-PVTZ
  Basis Set: (AUG-CC-PVTZ AUX)
    Blend: AUG-CC-PVTZ-JKFIT

    Orbital Energies [Eh]
    ---------------------

    Doubly Occupied:

       1A    -26.290125     2A    -20.568097     3A    -11.316680
       4A    -11.288965     5A    -11.235366     6A     -1.610968
       7A     -1.365129     8A     -1.064006     9A     -0.925618
      10A     -0.838907    11A     -0.722459    12A     -0.712547
      13A     -0.687925    14A     -0.680937    15A     -0.620887
      16A     -0.593268    17A     -0.567403    18A     -0.509528
      19A     -0.497481    20A     -0.484835    21A     -0.453842

  @DF-RHF Final Energy:  -292.07994362967202

   => Energetics <=

    Nuclear Repulsion Energy =            182.6912121695803535
    One-Electron Energy =                -763.4723673160390263
    Two-Electron Energy =                 288.7012115167866568
    Total Energy =                       -292.0799436296720160
  Basis Set: (AUG-CC-PVTZ AUX)
    Blend: AUG-CC-PVTZ-RI
    Molecular point group: c1

    Geometry (in Angstrom), charge = 0, multiplicity = 1:

       Center              X                  Y                   Z               Mass
    ------------   -----------------  -----------------  -----------------  -----------------
         F           -2.324507183754    -0.328463222573     0.003311360056    18.998403162730
         O            2.498818816246    -0.255341222573    -0.088519639944    15.994914619570
         C            0.051629816246    -0.317019222573    -0.020716639944    12.000000000000
         C            1.316257816246     0.531356777427     0.038150360056    12.000000000000
         C           -1.250411383754     0.487870377427     0.025912860056    12.000000000000
         H            0.033604816246    -1.018040222573     0.822396360056     1.007825032230
         H            0.061347816246    -0.909534222573    -0.939968639944     1.007825032230
         H            1.335468816246     1.127941777427     0.962730360056     1.007825032230
         H            1.347330816246     1.230343777427    -0.802177639944     1.007825032230
         H           -1.279698183754     1.188882777427    -0.836036639944     1.007825032230
         H           -1.264245183754     1.117041777427     0.942253360056     1.007825032230
         H            2.528392816246    -0.853429222573     0.677131360056     1.007825032230

  Basis Set: AUG-CC-PVTZ
    Blend: AUG-CC-PVTZ
  Basis Set: (AUG-CC-PVTZ AUX)
    Blend: AUG-CC-PVTZ-JKFIT
	 Reference Energy          =    -292.0799436296720160 [Eh]
	 Singles Energy            =      -0.0000000000000000 [Eh]
	 Same-Spin Energy          =      -0.2615907529056534 [Eh]
	 Opposite-Spin Energy      =      -0.8584144186036546 [Eh]
	 Correlation Energy        =      -1.1200051715093080 [Eh]
	 Total Energy              =    -293.1999488011813355 [Eh]

	 ================> DF-SCS-MP2 Energies <==================
	-----------------------------------------------------------
	 SCS Same-Spin Scale       =       0.3333333333333333 [-]
	 SCS Opposite-Spin Scale   =       1.2000000000000000 [-]
	 SCS Same-Spin Energy      =      -0.0871969176352178 [Eh]
	 SCS Opposite-Spin Energy  =      -1.0300973023243856 [Eh]
	 SCS Correlation Energy    =      -1.1172942199596034 [Eh]
	 SCS Total Energy          =    -293.1972378496316196 [Eh]
	-----------------------------------------------------------

  Dipole Moment: [D]
     X:     0.2624      Y:     0.7750      Z:     1.1944     Total:     1.4478

*** Psi4 exiting successfully. Buy a developer a beer!
