                               Psi4 1.3.2 release

  ==> Input File <==

--------------------------------------------------------------------------
#psi4
#
memory 32 gb

molecule  {
0 1
  F       -2.3906030    -0.3590020    -0.0066210
  O        2.3743628    -0.3660756    -0.1057991
  C       -0.0144610    -0.3473430    -0.0304030
  C        1.2502680     0.5009380     0.0283430
  C       -1.2767230     0.4877420     0.0169350
  H       -0.0325250    -1.0483020     0.8127700
  H       -0.0047840    -0.9400090    -0.9495720
  H        1.2695770     1.0976100     0.9528610
  H        1.2812900     1.1998280    -0.8120650
  H       -1.3458030     1.1584320    -0.8458890
  H       -1.3305600     1.0866320     0.9324260
  H        2.4617370    -0.8846700     0.6667060
units angstrom
no_reorient  #important for SAPT in psi4, default
symmetry c1  #important for SAPT in psi4, default
}

set PROPERTIES_ORIGIN ["COM"]
properties('MP2/aug-cc-pvtz', properties = ['dipole'])
--------------------------------------------------------------------------

    Molecular point group: c1
  Charge       = 0
  Multiplicity = 1
  Basis Set: AUG-CC-PVTZ
    Blend: AUG-CC-PVTZ
  Basis Set: (AUG-CC-PVTZ AUX)
    Blend: AUG-CC-PVTZ-JKFIT

    Orbital Energies [Eh]
    ---------------------

    Doubly Occupied:

       1A    -26.276633     2A    -20.563824     3A    -11.313557
       4A    -11.291309     5A    -11.234043     6A     -1.582694
       7A     -1.373629     8A     -1.069176     9A     -0.928227
      10A     -0.839067    11A     -0.719494    12A     -0.700828
      13A     -0.683127    14A     -0.665172    15A     -0.621486
      16A     -0.591126    17A     -0.567089    18A     -0.517869
      19A     -0.506884    20A     -0.488868    21A     -0.453352

  @DF-RHF Final Energy:  -292.08133580606381

   => Energetics <=

    Nuclear Repulsion Energy =            183.0255337513339953
    One-Electron Energy =                -764.2388352425200537
    Two-Electron Energy =                 289.1319656851222248
    Total Energy =                       -292.0813358060638052
  Basis Set: (AUG-CC-PVTZ AUX)
    Blend: AUG-CC-PVTZ-RI
    Molecular point group: c1

    Geometry (in Angstrom), charge = 0, multiplicity = 1:

       Center              X                  Y                   Z               Mass
    ------------   -----------------  -----------------  -----------------  -----------------
         F           -2.318673246168    -0.316756462462     0.004607635588    18.998403162730
         O            2.446292553832    -0.323830062462    -0.094570464412    15.994914619570
         C            0.057468753832    -0.305097462462    -0.019174364412    12.000000000000
         C            1.322197753832     0.543183537538     0.039571635588    12.000000000000
         C           -1.204793246168     0.529987537538     0.028163635588    12.000000000000
         H            0.039404753832    -1.006056462462     0.823998635588     1.007825032230
         H            0.067145753832    -0.897763462462    -0.938343364412     1.007825032230
         H            1.341506753832     1.139855537538     0.964089635588     1.007825032230
         H            1.353219753832     1.242073537538    -0.800836364412     1.007825032230
         H           -1.273873246168     1.200677537538    -0.834660364412     1.007825032230
         H           -1.258630246168     1.128877537538     0.943654635588     1.007825032230
         H            2.533666753832    -0.842424462462     0.677934635588     1.007825032230

  Basis Set: AUG-CC-PVTZ
    Blend: AUG-CC-PVTZ
  Basis Set: (AUG-CC-PVTZ AUX)
    Blend: AUG-CC-PVTZ-JKFIT
	 Reference Energy          =    -292.0813358060638052 [Eh]
	 Singles Energy            =      -0.0000000000000000 [Eh]
	 Same-Spin Energy          =      -0.2613273032452877 [Eh]
	 Opposite-Spin Energy      =      -0.8580944099034638 [Eh]
	 Correlation Energy        =      -1.1194217131487516 [Eh]
	 Total Energy              =    -293.2007575192125728 [Eh]

	 ================> DF-SCS-MP2 Energies <==================
	-----------------------------------------------------------
	 SCS Same-Spin Scale       =       0.3333333333333333 [-]
	 SCS Opposite-Spin Scale   =       1.2000000000000000 [-]
	 SCS Same-Spin Energy      =      -0.0871091010817626 [Eh]
	 SCS Opposite-Spin Energy  =      -1.0297132918841565 [Eh]
	 SCS Correlation Energy    =      -1.1168223929659191 [Eh]
	 SCS Total Energy          =    -293.1981581990297059 [Eh]
	-----------------------------------------------------------

  Dipole Moment: [D]
     X:     0.6354      Y:     1.0769      Z:     1.2572     Total:     1.7731

*** Psi4 exiting successfully. Buy a developer a beer!
