                               Psi4 1.3.2 release

  ==> Input File <==

--------------------------------------------------------------------------
#psi4
#
memory 32 gb

molecule  {
0 1
  F       -2.3906030    -0.3590020    -0.0066210
  O        2.4327490    -0.2858150    -0.0983620
  C       -0.0144610    -0.3473430    -0.0304030
  C        1.2502680     0.5009380     0.0283430
  C       -1.2767230     0.4877420     0.0169350
  H       -0.0325250    -1.0483020     0.8127700
  H       -0.0047840    -0.9400090    -0.9495720
  H        1.2695770     1.0976100     0.9528610
  H        1.2812900     1.1998280    -0.8120650
  H       -1.3458030     1.1584320    -0.8458890
  H       -1.3305600     1.0866320     0.9324260
  H        2.4587547    -0.8230598     0.5879958
units angstrom
no_reorient  #important for SAPT in psi4, default
symmetry c1  #important for SAPT in psi4, default
}

set PROPERTIES_ORIGIN ["COM"]
properties('MP2/aug-cc-pvtz', properties = ['dipole'])
--------------------------------------------------------------------------

    Molecular point group: c1
  Charge       = 0
  Multiplicity = 1
  Basis Set: AUG-CC-PVTZ
    Blend: AUG-CC-PVTZ
  Basis Set: (AUG-CC-PVTZ AUX)
    Blend: AUG-CC-PVTZ-JKFIT

    Orbital Energies [Eh]
    ---------------------

    Doubly Occupied:

       1A    -26.278768     2A    -20.558780     3A    -11.316363
       4A    -11.291178     5A    -11.237552     6A     -1.584718
       7A     -1.392143     8A     -1.072865     9A     -0.932515
      10A     -0.843715    11A     -0.724728    12A     -0.705586
      13A     -0.683597    14A     -0.667458    15A     -0.624903
      16A     -0.595299    17A     -0.570800    18A     -0.519597
      19A     -0.509172    20A     -0.491183    21A     -0.457374

  @DF-RHF Final Energy:  -292.07598606459680

   => Energetics <=

    Nuclear Repulsion Energy =            182.9814113762672889
    One-Electron Energy =                -763.9982029694784842
    Two-Electron Energy =                 288.9408055286144190
    Total Energy =                       -292.0759860645968047
  Basis Set: (AUG-CC-PVTZ AUX)
    Blend: AUG-CC-PVTZ-RI
    Molecular point group: c1

    Geometry (in Angstrom), charge = 0, multiplicity = 1:

       Center              X                  Y                   Z               Mass
    ------------   -----------------  -----------------  -----------------  -----------------
         F           -2.330600208269    -0.334000365475     0.004099875973    18.998403162730
         O            2.492751791731    -0.260813365475    -0.087641124027    15.994914619570
         C            0.045541791731    -0.322341365475    -0.019682124027    12.000000000000
         C            1.310270791731     0.525939634525     0.039063875973    12.000000000000
         C           -1.216720208269     0.512743634525     0.027655875973    12.000000000000
         H            0.027477791731    -1.023300365475     0.823490875973     1.007825032230
         H            0.055218791731    -0.915007365475    -0.938851124027     1.007825032230
         H            1.329579791731     1.122611634525     0.963581875973     1.007825032230
         H            1.341292791731     1.224829634525    -0.801344124027     1.007825032230
         H           -1.285800208269     1.183433634525    -0.835168124027     1.007825032230
         H           -1.270557208269     1.111633634525     0.943146875973     1.007825032230
         H            2.518757491731    -0.798058165475     0.598716675973     1.007825032230

  Basis Set: AUG-CC-PVTZ
    Blend: AUG-CC-PVTZ
  Basis Set: (AUG-CC-PVTZ AUX)
    Blend: AUG-CC-PVTZ-JKFIT
	 Reference Energy          =    -292.0759860645968047 [Eh]
	 Singles Energy            =      -0.0000000000000000 [Eh]
	 Same-Spin Energy          =      -0.2606590002314636 [Eh]
	 Opposite-Spin Energy      =      -0.8564830201886779 [Eh]
	 Correlation Energy        =      -1.1171420204201414 [Eh]
	 Total Energy              =    -293.1931280850169514 [Eh]

	 ================> DF-SCS-MP2 Energies <==================
	-----------------------------------------------------------
	 SCS Same-Spin Scale       =       0.3333333333333333 [-]
	 SCS Opposite-Spin Scale   =       1.2000000000000000 [-]
	 SCS Same-Spin Energy      =      -0.0868863334104879 [Eh]
	 SCS Opposite-Spin Energy  =      -1.0277796242264134 [Eh]
	 SCS Correlation Energy    =      -1.1146659576369014 [Eh]
	 SCS Total Energy          =    -293.1906520222336781 [Eh]
	-----------------------------------------------------------

  Dipole Moment: [D]
     X:     0.4332      Y:     0.9525      Z:     1.1447     Total:     1.5509

*** Psi4 exiting successfully. Buy a developer a beer!
