                               Psi4 1.3.2 release

  ==> Input File <==

--------------------------------------------------------------------------
#psi4
#
memory 32 gb

molecule  {
0 1
  F       -2.3906030    -0.3590020    -0.0066210
  O        2.4550774    -0.2328721    -0.1796301
  C       -0.0144610    -0.3473430    -0.0304030
  C        1.2502680     0.5009380     0.0283430
  C       -1.2767230     0.4877420     0.0169350
  H       -0.0325250    -1.0483020     0.8127700
  H       -0.0047840    -0.9400090    -0.9495720
  H        1.2695770     1.0976100     0.9528610
  H        1.2812900     1.1998280    -0.8120650
  H       -1.3458030     1.1584320    -0.8458890
  H       -1.3305600     1.0866320     0.9324260
  H        2.4617370    -0.8846700     0.6667060
units angstrom
no_reorient  #important for SAPT in psi4, default
symmetry c1  #important for SAPT in psi4, default
}

set PROPERTIES_ORIGIN ["COM"]
properties('MP2/aug-cc-pvtz', properties = ['dipole'])
--------------------------------------------------------------------------

    Molecular point group: c1
  Charge       = 0
  Multiplicity = 1
  Basis Set: AUG-CC-PVTZ
    Blend: AUG-CC-PVTZ
  Basis Set: (AUG-CC-PVTZ AUX)
    Blend: AUG-CC-PVTZ-JKFIT

    Orbital Energies [Eh]
    ---------------------

    Doubly Occupied:

       1A    -26.278944     2A    -20.580649     3A    -11.316609
       4A    -11.288747     5A    -11.237885     6A     -1.584874
       7A     -1.352250     8A     -1.069224     9A     -0.921059
      10A     -0.836105    11A     -0.715305    12A     -0.695049
      13A     -0.676564    14A     -0.667313    15A     -0.606026
      16A     -0.593636    17A     -0.569946    18A     -0.513756
      19A     -0.509201    20A     -0.487777    21A     -0.455405

  @DF-RHF Final Energy:  -292.06588596984176

   => Energetics <=

    Nuclear Repulsion Energy =            181.7977497140428795
    One-Electron Energy =                -761.8146227108455832
    Two-Electron Energy =                 287.9509870269609451
    Total Energy =                       -292.0658859698417587
  Basis Set: (AUG-CC-PVTZ AUX)
    Blend: AUG-CC-PVTZ-RI
    Molecular point group: c1

    Geometry (in Angstrom), charge = 0, multiplicity = 1:

       Center              X                  Y                   Z               Mass
    ------------   -----------------  -----------------  -----------------  -----------------
         F           -2.335214625794    -0.344054741349     0.019738313299    18.998403162730
         O            2.510465774206    -0.217924841349    -0.153270786701    15.994914619570
         C            0.040927374206    -0.332395741349    -0.004043686701    12.000000000000
         C            1.305656374206     0.515885258651     0.054702313299    12.000000000000
         C           -1.221334625794     0.502689258651     0.043294313299    12.000000000000
         H            0.022863374206    -1.033354741349     0.839129313299     1.007825032230
         H            0.050604374206    -0.925061741349    -0.923212686701     1.007825032230
         H            1.324965374206     1.112557258651     0.979220313299     1.007825032230
         H            1.336678374206     1.214775258651    -0.785705686701     1.007825032230
         H           -1.290414625794     1.173379258651    -0.819529686701     1.007825032230
         H           -1.275171625794     1.101579258651     0.958785313299     1.007825032230
         H            2.517125374206    -0.869722741349     0.693065313299     1.007825032230

  Basis Set: AUG-CC-PVTZ
    Blend: AUG-CC-PVTZ
  Basis Set: (AUG-CC-PVTZ AUX)
    Blend: AUG-CC-PVTZ-JKFIT
	 Reference Energy          =    -292.0658859698417587 [Eh]
	 Singles Energy            =      -0.0000000000000000 [Eh]
	 Same-Spin Energy          =      -0.2631514058979172 [Eh]
	 Opposite-Spin Energy      =      -0.8631561001018968 [Eh]
	 Correlation Energy        =      -1.1263075059998140 [Eh]
	 Total Energy              =    -293.1921934758415773 [Eh]

	 ================> DF-SCS-MP2 Energies <==================
	-----------------------------------------------------------
	 SCS Same-Spin Scale       =       0.3333333333333333 [-]
	 SCS Opposite-Spin Scale   =       1.2000000000000000 [-]
	 SCS Same-Spin Energy      =      -0.0877171352993057 [Eh]
	 SCS Opposite-Spin Energy  =      -1.0357873201222760 [Eh]
	 SCS Correlation Energy    =      -1.1235044554215818 [Eh]
	 SCS Total Energy          =    -293.1893904252633547 [Eh]
	-----------------------------------------------------------

  Dipole Moment: [D]
     X:     0.4469      Y:     0.8142      Z:     1.2886     Total:     1.5885

*** Psi4 exiting successfully. Buy a developer a beer!
