                               Psi4 1.3.2 release

  ==> Input File <==

--------------------------------------------------------------------------
#psi4
#
memory 32 gb

molecule  {
0 1
  F       -2.3906030    -0.3590020    -0.0066210
  O        2.4388759    -0.2729289    -0.1187524
  C       -0.0144610    -0.3473430    -0.0304030
  C        1.2502680     0.5009380     0.0283430
  C       -1.2767230     0.4877420     0.0169350
  H       -0.0325250    -1.0483020     0.8127700
  H       -0.0047840    -0.9400090    -0.9495720
  H        1.2695770     1.0976100     0.9528610
  H        1.2812900     1.1998280    -0.8120650
  H       -1.3458030     1.1584320    -0.8458890
  H       -1.3305600     1.0866320     0.9324260
  H        2.4617370    -0.8846700     0.6667060
units angstrom
no_reorient  #important for SAPT in psi4, default
symmetry c1  #important for SAPT in psi4, default
}

set PROPERTIES_ORIGIN ["COM"]
properties('MP2/aug-cc-pvtz', properties = ['dipole'])
--------------------------------------------------------------------------

    Molecular point group: c1
  Charge       = 0
  Multiplicity = 1
  Basis Set: AUG-CC-PVTZ
    Blend: AUG-CC-PVTZ
  Basis Set: (AUG-CC-PVTZ AUX)
    Blend: AUG-CC-PVTZ-JKFIT

    Orbital Energies [Eh]
    ---------------------

    Doubly Occupied:

       1A    -26.278489     2A    -20.571990     3A    -11.316005
       4A    -11.289665     5A    -11.237087     6A     -1.584448
       7A     -1.362192     8A     -1.069822     9A     -0.924492
      10A     -0.838477    11A     -0.716314    12A     -0.698349
      13A     -0.679390    14A     -0.666818    15A     -0.615871
      16A     -0.593028    17A     -0.569230    18A     -0.516689
      19A     -0.507872    20A     -0.489062    21A     -0.454780

  @DF-RHF Final Energy:  -292.07886321275822

   => Energetics <=

    Nuclear Repulsion Energy =            182.2245961895324911
    One-Electron Energy =                -762.6467828253086054
    Two-Electron Energy =                 288.3433234230179210
    Total Energy =                       -292.0788632127582218
  Basis Set: (AUG-CC-PVTZ AUX)
    Blend: AUG-CC-PVTZ-RI
    Molecular point group: c1

    Geometry (in Angstrom), charge = 0, multiplicity = 1:

       Center              X                  Y                   Z               Mass
    ------------   -----------------  -----------------  -----------------  -----------------
         F           -2.331894344680    -0.335845634999     0.007262241480    18.998403162730
         O            2.497584555320    -0.249772534999    -0.104869158520    15.994914619570
         C            0.044247655320    -0.324186634999    -0.016519758520    12.000000000000
         C            1.308976655320     0.524094365001     0.042226241480    12.000000000000
         C           -1.218014344680     0.510898365001     0.030818241480    12.000000000000
         H            0.026183655320    -1.025145634999     0.826653241480     1.007825032230
         H            0.053924655320    -0.916852634999    -0.935688758520     1.007825032230
         H            1.328285655320     1.120766365001     0.966744241480     1.007825032230
         H            1.339998655320     1.222984365001    -0.798181758520     1.007825032230
         H           -1.287094344680     1.181588365001    -0.832005758520     1.007825032230
         H           -1.271851344680     1.109788365001     0.946309241480     1.007825032230
         H            2.520445655320    -0.861513634999     0.680589241480     1.007825032230

  Basis Set: AUG-CC-PVTZ
    Blend: AUG-CC-PVTZ
  Basis Set: (AUG-CC-PVTZ AUX)
    Blend: AUG-CC-PVTZ-JKFIT
	 Reference Energy          =    -292.0788632127582218 [Eh]
	 Singles Energy            =      -0.0000000000000000 [Eh]
	 Same-Spin Energy          =      -0.2621026538335035 [Eh]
	 Opposite-Spin Energy      =      -0.8602286996971108 [Eh]
	 Correlation Energy        =      -1.1223313535306143 [Eh]
	 Total Energy              =    -293.2011945662888479 [Eh]

	 ================> DF-SCS-MP2 Energies <==================
	-----------------------------------------------------------
	 SCS Same-Spin Scale       =       0.3333333333333333 [-]
	 SCS Opposite-Spin Scale   =       1.2000000000000000 [-]
	 SCS Same-Spin Energy      =      -0.0873675512778345 [Eh]
	 SCS Opposite-Spin Energy  =      -1.0322744396365329 [Eh]
	 SCS Correlation Energy    =      -1.1196419909143673 [Eh]
	 SCS Total Energy          =    -293.1985052036725961 [Eh]
	-----------------------------------------------------------

  Dipole Moment: [D]
     X:     0.4632      Y:     0.8745      Z:     1.2222     Total:     1.5726

*** Psi4 exiting successfully. Buy a developer a beer!
