                               Psi4 1.3.2 release

  ==> Input File <==

--------------------------------------------------------------------------
#psi4
#
memory 32 gb

molecule  {
0 1
  F       -2.3906030    -0.3590020    -0.0066210
  O        2.4327490    -0.2858150    -0.0983620
  C       -0.0144610    -0.3473430    -0.0304030
  C        1.2502680     0.5009380     0.0283430
  C       -1.2767230     0.4877420     0.0169350
  H       -0.0325250    -1.0483020     0.8127700
  H       -0.0047840    -0.9400090    -0.9495720
  H        1.2695770     1.0976100     0.9528610
  H        1.2812900     1.1998280    -0.8120650
  H       -1.3458030     1.1584320    -0.8458890
  H       -1.3305600     1.0866320     0.9324260
  H        2.4677016    -1.0078904     0.8241263
units angstrom
no_reorient  #important for SAPT in psi4, default
symmetry c1  #important for SAPT in psi4, default
}

set PROPERTIES_ORIGIN ["COM"]
properties('MP2/aug-cc-pvtz', properties = ['dipole'])
--------------------------------------------------------------------------

    Molecular point group: c1
  Charge       = 0
  Multiplicity = 1
  Basis Set: AUG-CC-PVTZ
    Blend: AUG-CC-PVTZ
  Basis Set: (AUG-CC-PVTZ AUX)
    Blend: AUG-CC-PVTZ-JKFIT

    Orbital Energies [Eh]
    ---------------------

    Doubly Occupied:

       1A    -26.277705     2A    -20.584406     3A    -11.314944
       4A    -11.288823     5A    -11.235728     6A     -1.583697
       7A     -1.334683     8A     -1.066469     9A     -0.917855
      10A     -0.833123    11A     -0.712101    12A     -0.690733
      13A     -0.668112    14A     -0.663938    15A     -0.604940
      16A     -0.588019    17A     -0.566229    18A     -0.513639
      19A     -0.503518    20A     -0.482504    21A     -0.451276

  @DF-RHF Final Energy:  -292.04581170390219

   => Energetics <=

    Nuclear Repulsion Energy =            181.4333181752495250
    One-Electron Energy =                -761.1933758395073255
    Two-Electron Energy =                 287.7142459603556404
    Total Energy =                       -292.0458117039021886
  Basis Set: (AUG-CC-PVTZ AUX)
    Blend: AUG-CC-PVTZ-RI
    Molecular point group: c1

    Geometry (in Angstrom), charge = 0, multiplicity = 1:

       Center              X                  Y                   Z               Mass
    ------------   -----------------  -----------------  -----------------  -----------------
         F           -2.330715738443    -0.331613671601     0.001050753059    18.998403162730
         O            2.492636261557    -0.258426671601    -0.090690246941    15.994914619570
         C            0.045426261557    -0.319954671601    -0.022731246941    12.000000000000
         C            1.310155261557     0.528326328399     0.036014753059    12.000000000000
         C           -1.216835738443     0.515130328399     0.024606753059    12.000000000000
         H            0.027362261557    -1.020913671601     0.820441753059     1.007825032230
         H            0.055103261557    -0.912620671601    -0.941900246941     1.007825032230
         H            1.329464261557     1.124998328399     0.960532753059     1.007825032230
         H            1.341177261557     1.227216328399    -0.804393246941     1.007825032230
         H           -1.285915738443     1.185820328399    -0.838217246941     1.007825032230
         H           -1.270672738443     1.114020328399     0.940097753059     1.007825032230
         H            2.527588861557    -0.980502071601     0.831798053059     1.007825032230

  Basis Set: AUG-CC-PVTZ
    Blend: AUG-CC-PVTZ
  Basis Set: (AUG-CC-PVTZ AUX)
    Blend: AUG-CC-PVTZ-JKFIT
	 Reference Energy          =    -292.0458117039021886 [Eh]
	 Singles Energy            =      -0.0000000000000000 [Eh]
	 Same-Spin Energy          =      -0.2637760633038757 [Eh]
	 Opposite-Spin Energy      =      -0.8658509468819537 [Eh]
	 Correlation Energy        =      -1.1296270101858294 [Eh]
	 Total Energy              =    -293.1754387140880453 [Eh]

	 ================> DF-SCS-MP2 Energies <==================
	-----------------------------------------------------------
	 SCS Same-Spin Scale       =       0.3333333333333333 [-]
	 SCS Opposite-Spin Scale   =       1.2000000000000000 [-]
	 SCS Same-Spin Energy      =      -0.0879253544346252 [Eh]
	 SCS Opposite-Spin Energy  =      -1.0390211362583444 [Eh]
	 SCS Correlation Energy    =      -1.1269464906929696 [Eh]
	 SCS Total Energy          =    -293.1727581945951329 [Eh]
	-----------------------------------------------------------

  Dipole Moment: [D]
     X:     0.5127      Y:     0.8138      Z:     1.2866     Total:     1.6064

*** Psi4 exiting successfully. Buy a developer a beer!
