                               Psi4 1.4a3.dev225

  ==> Input File <==

--------------------------------------------------------------------------
#psi4
#
memory 32 gb

molecule  {
0 1
  F       -2.3905990    -0.3589170    -0.0065240
  O        2.4327270    -0.2857950    -0.0983550
  C       -0.0144620    -0.3474730    -0.0305520
  C        1.2501660     0.5009030     0.0283150
  C       -1.2607801     0.4997672     0.0172500
  H       -0.0324870    -1.0484940     0.8125610
  H       -0.0047440    -0.9399880    -0.9498040
  H        1.2693770     1.0974880     0.9528950
  H        1.2812390     1.1998900    -0.8120130
  H       -1.3457900     1.1584290    -0.8458720
  H       -1.3303370     1.0865880     0.9324180
  H        2.4623010    -0.8838830     0.6672960
units angstrom
no_reorient  #important for SAPT in psi4, default
symmetry c1  #important for SAPT in psi4, default
}

set PROPERTIES_ORIGIN ["COM"]
properties('MP2/aug-cc-pvtz', properties = ['dipole'])
--------------------------------------------------------------------------

    Molecular point group: c1
  Charge       = 0
  Multiplicity = 1
  Basis Set: AUG-CC-PVTZ
    Blend: AUG-CC-PVTZ
  Basis Set: (AUG-CC-PVTZ AUX)
    Blend: AUG-CC-PVTZ-JKFIT

    Orbital Energies [Eh]
    ---------------------

    Doubly Occupied:

       1A    -26.273668     2A    -20.569250     3A    -11.315780
       4A    -11.290611     5A    -11.237449     6A     -1.574482
       7A     -1.366509     8A     -1.072626     9A     -0.926252
      10A     -0.839841    11A     -0.715906    12A     -0.696073
      13A     -0.676297    14A     -0.661195    15A     -0.617987
      16A     -0.592274    17A     -0.569424    18A     -0.521019
      19A     -0.510681    20A     -0.490381    21A     -0.454906

  @DF-RHF Final Energy:  -292.08043768985698

   => Energetics <=

    Nuclear Repulsion Energy =            182.2681802368985302
    One-Electron Energy =                -762.7520144142106346
    Two-Electron Energy =                 288.4033964874551543
    Total Energy =                       -292.0804376898569785
  Basis Set: (AUG-CC-PVTZ AUX)
    Blend: AUG-CC-PVTZ-RI
    Molecular point group: c1

    Geometry (in Angstrom), charge = 0, multiplicity = 1:

       Center              X                  Y                   Z               Mass
    ------------   -----------------  -----------------  -----------------  -----------------
         F           -2.333074685845    -0.334974684678     0.003131086593    18.998403162730
         O            2.490251314155    -0.261852684678    -0.088699913407    15.994914619570
         C            0.043062314155    -0.323530684678    -0.020896913407    12.000000000000
         C            1.307690314155     0.524845315322     0.037970086593    12.000000000000
         C           -1.203255785845     0.523709515322     0.026905086593    12.000000000000
         H            0.025037314155    -1.024551684678     0.822216086593     1.007825032230
         H            0.052780314155    -0.916045684678    -0.940148913407     1.007825032230
         H            1.326901314155     1.121430315322     0.962550086593     1.007825032230
         H            1.338763314155     1.223832315322    -0.802357913407     1.007825032230
         H           -1.288265685845     1.182371315322    -0.836216913407     1.007825032230
         H           -1.272812685845     1.110530315322     0.942073086593     1.007825032230
         H            2.519825314155    -0.859940684678     0.676951086593     1.007825032230

  Basis Set: AUG-CC-PVTZ
    Blend: AUG-CC-PVTZ
  Basis Set: (AUG-CC-PVTZ AUX)
    Blend: AUG-CC-PVTZ-JKFIT
	 Reference Energy          =    -292.0804376898569785 [Eh]
	 Singles Energy            =      -0.0000000000000000 [Eh]
	 Same-Spin Energy          =      -0.2618674686280019 [Eh]
	 Opposite-Spin Energy      =      -0.8597470785798893 [Eh]
	 Correlation Energy        =      -1.1216145472078911 [Eh]
	 Total Energy              =    -293.2020522370648905 [Eh]

	 ================> DF-SCS-MP2 Energies <==================
	-----------------------------------------------------------
	 SCS Same-Spin Scale       =       0.3333333333333333 [-]
	 SCS Opposite-Spin Scale   =       1.2000000000000000 [-]
	 SCS Same-Spin Energy      =      -0.0872891562093340 [Eh]
	 SCS Opposite-Spin Energy  =      -1.0316964942958671 [Eh]
	 SCS Correlation Energy    =      -1.1189856505052009 [Eh]
	 SCS Total Energy          =    -293.1994233403621593 [Eh]
	-----------------------------------------------------------

  Dipole Moment: [D]
     X:     0.5499      Y:     0.9433      Z:     1.2002     Total:     1.6226

*** Psi4 exiting successfully. Buy a developer a beer!
