                               Psi4 1.3.2 release

  ==> Input File <==

--------------------------------------------------------------------------
#psi4
#
memory 32 gb

molecule  {
0 1
  F       -2.3906030    -0.3590020    -0.0066210
  O        2.4327490    -0.2858150    -0.0983620
  C       -0.0144610    -0.3473430    -0.0304030
  C        1.2448598     0.4890080     0.0495040
  C       -1.2767230     0.4877420     0.0169350
  H       -0.0325250    -1.0483020     0.8127700
  H       -0.0047840    -0.9400090    -0.9495720
  H        1.2695770     1.0976100     0.9528610
  H        1.2812900     1.1998280    -0.8120650
  H       -1.3458030     1.1584320    -0.8458890
  H       -1.3305600     1.0866320     0.9324260
  H        2.4617370    -0.8846700     0.6667060
units angstrom
no_reorient  #important for SAPT in psi4, default
symmetry c1  #important for SAPT in psi4, default
}

set PROPERTIES_ORIGIN ["COM"]
properties('MP2/aug-cc-pvtz', properties = ['dipole'])
--------------------------------------------------------------------------

    Molecular point group: c1
  Charge       = 0
  Multiplicity = 1
  Basis Set: AUG-CC-PVTZ
    Blend: AUG-CC-PVTZ
  Basis Set: (AUG-CC-PVTZ AUX)
    Blend: AUG-CC-PVTZ-JKFIT

    Orbital Energies [Eh]
    ---------------------

    Doubly Occupied:

       1A    -26.278640     2A    -20.569817     3A    -11.316199
       4A    -11.290395     5A    -11.236755     6A     -1.584583
       7A     -1.367123     8A     -1.071735     9A     -0.925818
      10A     -0.838557    11A     -0.717807    12A     -0.699752
      13A     -0.681785    14A     -0.667157    15A     -0.616144
      16A     -0.593713    17A     -0.570749    18A     -0.515438
      19A     -0.508425    20A     -0.485932    21A     -0.458023

  @DF-RHF Final Energy:  -292.08011780730061

   => Energetics <=

    Nuclear Repulsion Energy =            182.4879504137715855
    One-Electron Energy =                -763.1470357066368706
    Two-Electron Energy =                 288.5789674855646467
    Total Energy =                       -292.0801178073006099
  Basis Set: (AUG-CC-PVTZ AUX)
    Blend: AUG-CC-PVTZ-RI
    Molecular point group: c1

    Geometry (in Angstrom), charge = 0, multiplicity = 1:

       Center              X                  Y                   Z               Mass
    ------------   -----------------  -----------------  -----------------  -----------------
         F           -2.329807200252    -0.331370547194    -0.000170031170    18.998403162730
         O            2.493544799748    -0.258183547194    -0.091911031170    15.994914619570
         C            0.046334799748    -0.319711547194    -0.023952031170    12.000000000000
         C            1.305655599748     0.516639452806     0.055954968830    12.000000000000
         C           -1.215927200252     0.515373452806     0.023385968830    12.000000000000
         H            0.028270799748    -1.020670547194     0.819220968830     1.007825032230
         H            0.056011799748    -0.912377547194    -0.943121031170     1.007825032230
         H            1.330372799748     1.125241452806     0.959311968830     1.007825032230
         H            1.342085799748     1.227459452806    -0.805614031170     1.007825032230
         H           -1.285007200252     1.186063452806    -0.839438031170     1.007825032230
         H           -1.269764200252     1.114263452806     0.938876968830     1.007825032230
         H            2.522532799748    -0.857038547194     0.673156968830     1.007825032230

  Basis Set: AUG-CC-PVTZ
    Blend: AUG-CC-PVTZ
  Basis Set: (AUG-CC-PVTZ AUX)
    Blend: AUG-CC-PVTZ-JKFIT
	 Reference Energy          =    -292.0801178073006099 [Eh]
	 Singles Energy            =      -0.0000000000000000 [Eh]
	 Same-Spin Energy          =      -0.2619163207300785 [Eh]
	 Opposite-Spin Energy      =      -0.8595878524536785 [Eh]
	 Correlation Energy        =      -1.1215041731837569 [Eh]
	 Total Energy              =    -293.2016219804843900 [Eh]

	 ================> DF-SCS-MP2 Energies <==================
	-----------------------------------------------------------
	 SCS Same-Spin Scale       =       0.3333333333333333 [-]
	 SCS Opposite-Spin Scale   =       1.2000000000000000 [-]
	 SCS Same-Spin Energy      =      -0.0873054402433595 [Eh]
	 SCS Opposite-Spin Energy  =      -1.0315054229444143 [Eh]
	 SCS Correlation Energy    =      -1.1188108631877738 [Eh]
	 SCS Total Energy          =    -293.1989286704883853 [Eh]
	-----------------------------------------------------------

  Dipole Moment: [D]
     X:     0.4600      Y:     0.8798      Z:     1.2250     Total:     1.5768

*** Psi4 exiting successfully. Buy a developer a beer!
