                               Psi4 1.3.2 release

  ==> Input File <==

--------------------------------------------------------------------------
#psi4
#
memory 32 gb

molecule  {
0 1
  F       -2.3906030    -0.3590020    -0.0066210
  O        2.4327490    -0.2858150    -0.0983620
  C       -0.0144610    -0.3473430    -0.0304030
  C        1.1673414     0.5561125     0.0372287
  C       -1.2767230     0.4877420     0.0169350
  H       -0.0325250    -1.0483020     0.8127700
  H       -0.0047840    -0.9400090    -0.9495720
  H        1.2695770     1.0976100     0.9528610
  H        1.2812900     1.1998280    -0.8120650
  H       -1.3458030     1.1584320    -0.8458890
  H       -1.3305600     1.0866320     0.9324260
  H        2.4617370    -0.8846700     0.6667060
units angstrom
no_reorient  #important for SAPT in psi4, default
symmetry c1  #important for SAPT in psi4, default
}

set PROPERTIES_ORIGIN ["COM"]
properties('MP2/aug-cc-pvtz', properties = ['dipole'])
--------------------------------------------------------------------------

    Molecular point group: c1
  Charge       = 0
  Multiplicity = 1
  Basis Set: AUG-CC-PVTZ
    Blend: AUG-CC-PVTZ
  Basis Set: (AUG-CC-PVTZ AUX)
    Blend: AUG-CC-PVTZ-JKFIT

    Orbital Energies [Eh]
    ---------------------

    Doubly Occupied:

       1A    -26.279501     2A    -20.558163     3A    -11.317578
       4A    -11.290471     5A    -11.239738     6A     -1.585724
       7A     -1.330273     8A     -1.081840     9A     -0.930049
      10A     -0.842623    11A     -0.717938    12A     -0.696191
      13A     -0.677454    14A     -0.666364    15A     -0.611792
      16A     -0.580877    17A     -0.562537    18A     -0.530032
      19A     -0.502823    20A     -0.493203    21A     -0.459282

  @DF-RHF Final Energy:  -292.07156061525984

   => Energetics <=

    Nuclear Repulsion Energy =            182.0559481490220435
    One-Electron Energy =                -762.3461104866490814
    Two-Electron Energy =                 288.2186017223672252
    Total Energy =                       -292.0715606152598411
  Basis Set: (AUG-CC-PVTZ AUX)
    Blend: AUG-CC-PVTZ-RI
    Molecular point group: c1

    Geometry (in Angstrom), charge = 0, multiplicity = 1:

       Center              X                  Y                   Z               Mass
    ------------   -----------------  -----------------  -----------------  -----------------
         F           -2.317888641270    -0.341687954948     0.001717312829    18.998403162730
         O            2.505463358730    -0.268500954948    -0.090023687171    15.994914619570
         C            0.058253358730    -0.330028954948    -0.022064687171    12.000000000000
         C            1.240055758730     0.573426545052     0.045567012829    12.000000000000
         C           -1.204008641270     0.505056045052     0.025273312829    12.000000000000
         H            0.040189358730    -1.030987954948     0.821108312829     1.007825032230
         H            0.067930358730    -0.922694954948    -0.941233687171     1.007825032230
         H            1.342291358730     1.114924045052     0.961199312829     1.007825032230
         H            1.354004358730     1.217142045052    -0.803726687171     1.007825032230
         H           -1.273088641270     1.175746045052    -0.837550687171     1.007825032230
         H           -1.257845641270     1.103946045052     0.940764312829     1.007825032230
         H            2.534451358730    -0.867355954948     0.675044312829     1.007825032230

  Basis Set: AUG-CC-PVTZ
    Blend: AUG-CC-PVTZ
  Basis Set: (AUG-CC-PVTZ AUX)
    Blend: AUG-CC-PVTZ-JKFIT
	 Reference Energy          =    -292.0715606152598411 [Eh]
	 Singles Energy            =      -0.0000000000000000 [Eh]
	 Same-Spin Energy          =      -0.2623668954487007 [Eh]
	 Opposite-Spin Energy      =      -0.8615049036306970 [Eh]
	 Correlation Energy        =      -1.1238717990793976 [Eh]
	 Total Energy              =    -293.1954324143392228 [Eh]

	 ================> DF-SCS-MP2 Energies <==================
	-----------------------------------------------------------
	 SCS Same-Spin Scale       =       0.3333333333333333 [-]
	 SCS Opposite-Spin Scale   =       1.2000000000000000 [-]
	 SCS Same-Spin Energy      =      -0.0874556318162336 [Eh]
	 SCS Opposite-Spin Energy  =      -1.0338058843568363 [Eh]
	 SCS Correlation Energy    =      -1.1212615161730699 [Eh]
	 SCS Total Energy          =    -293.1928221314329335 [Eh]
	-----------------------------------------------------------

  Dipole Moment: [D]
     X:     0.1402      Y:     1.0579      Z:     1.2115     Total:     1.6145

*** Psi4 exiting successfully. Buy a developer a beer!
