                               Psi4 1.3.2 release

  ==> Input File <==

--------------------------------------------------------------------------
#psi4
#
memory 32 gb

molecule  {
0 1
  F       -2.3906030    -0.3590020    -0.0066210
  O        2.4327490    -0.2858150    -0.0983620
  C       -0.0144610    -0.3473430    -0.0304030
  C        1.2754845     0.5462261    -0.0566224
  C       -1.2767230     0.4877420     0.0169350
  H       -0.0325250    -1.0483020     0.8127700
  H       -0.0047840    -0.9400090    -0.9495720
  H        1.2695770     1.0976100     0.9528610
  H        1.2812900     1.1998280    -0.8120650
  H       -1.3458030     1.1584320    -0.8458890
  H       -1.3305600     1.0866320     0.9324260
  H        2.4617370    -0.8846700     0.6667060
units angstrom
no_reorient  #important for SAPT in psi4, default
symmetry c1  #important for SAPT in psi4, default
}

set PROPERTIES_ORIGIN ["COM"]
properties('MP2/aug-cc-pvtz', properties = ['dipole'])
--------------------------------------------------------------------------

    Molecular point group: c1
  Charge       = 0
  Multiplicity = 1
  Basis Set: AUG-CC-PVTZ
    Blend: AUG-CC-PVTZ
  Basis Set: (AUG-CC-PVTZ AUX)
    Blend: AUG-CC-PVTZ-JKFIT

    Orbital Energies [Eh]
    ---------------------

    Doubly Occupied:

       1A    -26.277171     2A    -20.566287     3A    -11.314314
       4A    -11.291039     5A    -11.238078     6A     -1.583250
       7A     -1.363001     8A     -1.064076     9A     -0.929265
      10A     -0.843864    11A     -0.712935    12A     -0.699507
      13A     -0.674228    14A     -0.665817    15A     -0.635836
      16A     -0.591142    17A     -0.563979    18A     -0.524854
      19A     -0.503613    20A     -0.492566    21A     -0.439683

  @DF-RHF Final Energy:  -292.06981491922755

   => Energetics <=

    Nuclear Repulsion Energy =            181.9088705934669292
    One-Electron Energy =                -762.0083601433840386
    Two-Electron Energy =                 288.0296746306894988
    Total Energy =                       -292.0698149192275537
  Basis Set: (AUG-CC-PVTZ AUX)
    Blend: AUG-CC-PVTZ-RI
    Molecular point group: c1

    Geometry (in Angstrom), charge = 0, multiplicity = 1:

       Center              X                  Y                   Z               Mass
    ------------   -----------------  -----------------  -----------------  -----------------
         F           -2.334515789352    -0.340167907559     0.016147046556    18.998403162730
         O            2.488836210648    -0.266980907559    -0.075593953444    15.994914619570
         C            0.041626210648    -0.328508907559    -0.007634953444    12.000000000000
         C            1.331571710648     0.565060192441    -0.033854353444    12.000000000000
         C           -1.220635789352     0.506576092441     0.039703046556    12.000000000000
         H            0.023562210648    -1.029467907559     0.835538046556     1.007825032230
         H            0.051303210648    -0.921174907559    -0.926803953444     1.007825032230
         H            1.325664210648     1.116444092441     0.975629046556     1.007825032230
         H            1.337377210648     1.218662092441    -0.789296953444     1.007825032230
         H           -1.289715789352     1.177266092441    -0.823120953444     1.007825032230
         H           -1.274472789352     1.105466092441     0.955194046556     1.007825032230
         H            2.517824210648    -0.865835907559     0.689474046556     1.007825032230

  Basis Set: AUG-CC-PVTZ
    Blend: AUG-CC-PVTZ
  Basis Set: (AUG-CC-PVTZ AUX)
    Blend: AUG-CC-PVTZ-JKFIT
	 Reference Energy          =    -292.0698149192275537 [Eh]
	 Singles Energy            =      -0.0000000000000000 [Eh]
	 Same-Spin Energy          =      -0.2614331415671352 [Eh]
	 Opposite-Spin Energy      =      -0.8590972111037118 [Eh]
	 Correlation Energy        =      -1.1205303526708470 [Eh]
	 Total Energy              =    -293.1903452718984227 [Eh]

	 ================> DF-SCS-MP2 Energies <==================
	-----------------------------------------------------------
	 SCS Same-Spin Scale       =       0.3333333333333333 [-]
	 SCS Opposite-Spin Scale   =       1.2000000000000000 [-]
	 SCS Same-Spin Energy      =      -0.0871443805223784 [Eh]
	 SCS Opposite-Spin Energy  =      -1.0309166533244543 [Eh]
	 SCS Correlation Energy    =      -1.1180610338468326 [Eh]
	 SCS Total Energy          =    -293.1878759530744105 [Eh]
	-----------------------------------------------------------

  Dipole Moment: [D]
     X:     0.5145      Y:     0.9351      Z:     1.0941     Total:     1.5285

*** Psi4 exiting successfully. Buy a developer a beer!
