                               Psi4 1.3.2 release

  ==> Input File <==

--------------------------------------------------------------------------
#psi4
#
memory 32 gb

molecule  {
0 1
  F       -2.3906030    -0.3590020    -0.0066210
  O        2.4046597    -0.3349249    -0.0164766
  C       -0.0144610    -0.3473430    -0.0304030
  C        1.2502680     0.5009380     0.0283430
  C       -1.2767230     0.4877420     0.0169350
  H       -0.0325250    -1.0483020     0.8127700
  H       -0.0047840    -0.9400090    -0.9495720
  H        1.2695770     1.0976100     0.9528610
  H        1.2812900     1.1998280    -0.8120650
  H       -1.3458030     1.1584320    -0.8458890
  H       -1.3305600     1.0866320     0.9324260
  H        2.4617370    -0.8846700     0.6667060
units angstrom
no_reorient  #important for SAPT in psi4, default
symmetry c1  #important for SAPT in psi4, default
}

set PROPERTIES_ORIGIN ["COM"]
properties('MP2/aug-cc-pvtz', properties = ['dipole'])
--------------------------------------------------------------------------

    Molecular point group: c1
  Charge       = 0
  Multiplicity = 1
  Basis Set: AUG-CC-PVTZ
    Blend: AUG-CC-PVTZ
  Basis Set: (AUG-CC-PVTZ AUX)
    Blend: AUG-CC-PVTZ-JKFIT

    Orbital Energies [Eh]
    ---------------------

    Doubly Occupied:

       1A    -26.277814     2A    -20.555614     3A    -11.315060
       4A    -11.292748     5A    -11.236004     6A     -1.583818
       7A     -1.385042     8A     -1.072061     9A     -0.933735
      10A     -0.843291    11A     -0.721849    12A     -0.705563
      13A     -0.682770    14A     -0.665731    15A     -0.631946
      16A     -0.591717    17A     -0.568323    18A     -0.519560
      19A     -0.505388    20A     -0.487976    21A     -0.454437

  @DF-RHF Final Energy:  -292.07660937216986

   => Energetics <=

    Nuclear Repulsion Energy =            183.0693549548979320
    One-Electron Energy =                -764.2310280392711093
    Two-Electron Energy =                 289.0850637122033504
    Total Energy =                       -292.0766093721698553
  Basis Set: (AUG-CC-PVTZ AUX)
    Blend: AUG-CC-PVTZ-RI
    Molecular point group: c1

    Geometry (in Angstrom), charge = 0, multiplicity = 1:

       Center              X                  Y                   Z               Mass
    ------------   -----------------  -----------------  -----------------  -----------------
         F           -2.324882191320    -0.323140382526    -0.013697818217    18.998403162730
         O            2.470380508680    -0.299063282526    -0.023553418217    15.994914619570
         C            0.051259808680    -0.311481382526    -0.037479818217    12.000000000000
         C            1.315988808680     0.536799617474     0.021266181783    12.000000000000
         C           -1.211002191320     0.523603617474     0.009858181783    12.000000000000
         H            0.033195808680    -1.012440382526     0.805693181783     1.007825032230
         H            0.060936808680    -0.904147382526    -0.956648818217     1.007825032230
         H            1.335297808680     1.133471617474     0.945784181783     1.007825032230
         H            1.347010808680     1.235689617474    -0.819141818217     1.007825032230
         H           -1.280082191320     1.194293617474    -0.852965818217     1.007825032230
         H           -1.264839191320     1.122493617474     0.925349181783     1.007825032230
         H            2.527457808680    -0.848808382526     0.659629181783     1.007825032230

  Basis Set: AUG-CC-PVTZ
    Blend: AUG-CC-PVTZ
  Basis Set: (AUG-CC-PVTZ AUX)
    Blend: AUG-CC-PVTZ-JKFIT
	 Reference Energy          =    -292.0766093721698553 [Eh]
	 Singles Energy            =      -0.0000000000000000 [Eh]
	 Same-Spin Energy          =      -0.2605441850419980 [Eh]
	 Opposite-Spin Energy      =      -0.8562095533932447 [Eh]
	 Correlation Energy        =      -1.1167537384352426 [Eh]
	 Total Energy              =    -293.1933631106051052 [Eh]

	 ================> DF-SCS-MP2 Energies <==================
	-----------------------------------------------------------
	 SCS Same-Spin Scale       =       0.3333333333333333 [-]
	 SCS Opposite-Spin Scale   =       1.2000000000000000 [-]
	 SCS Same-Spin Energy      =      -0.0868480616806660 [Eh]
	 SCS Opposite-Spin Energy  =      -1.0274514640718935 [Eh]
	 SCS Correlation Energy    =      -1.1142995257525594 [Eh]
	 SCS Total Energy          =    -293.1909088979224407 [Eh]
	-----------------------------------------------------------

  Dipole Moment: [D]
     X:     0.4872      Y:     0.9967      Z:     1.0892     Total:     1.5547

*** Psi4 exiting successfully. Buy a developer a beer!
