                               Psi4 1.3.2 release

  ==> Input File <==

--------------------------------------------------------------------------
#psi4
#
memory 32 gb

molecule  {
0 1
  F       -2.3906030    -0.3590020    -0.0066210
  O        2.3430972    -0.4046455    -0.1092747
  C       -0.0144610    -0.3473430    -0.0304030
  C        1.2502680     0.5009380     0.0283430
  C       -1.2767230     0.4877420     0.0169350
  H       -0.0325250    -1.0483020     0.8127700
  H       -0.0047840    -0.9400090    -0.9495720
  H        1.2695770     1.0976100     0.9528610
  H        1.2812900     1.1998280    -0.8120650
  H       -1.3458030     1.1584320    -0.8458890
  H       -1.3305600     1.0866320     0.9324260
  H        2.4617370    -0.8846700     0.6667060
units angstrom
no_reorient  #important for SAPT in psi4, default
symmetry c1  #important for SAPT in psi4, default
}

set PROPERTIES_ORIGIN ["COM"]
properties('MP2/aug-cc-pvtz', properties = ['dipole'])
--------------------------------------------------------------------------

    Molecular point group: c1
  Charge       = 0
  Multiplicity = 1
  Basis Set: AUG-CC-PVTZ
    Blend: AUG-CC-PVTZ
  Basis Set: (AUG-CC-PVTZ AUX)
    Blend: AUG-CC-PVTZ-JKFIT

    Orbital Energies [Eh]
    ---------------------

    Doubly Occupied:

       1A    -26.275712     2A    -20.561740     3A    -11.312315
       4A    -11.291809     5A    -11.232648     6A     -1.581819
       7A     -1.376921     8A     -1.068634     9A     -0.929159
      10A     -0.838542    11A     -0.721365    12A     -0.701017
      13A     -0.683959    14A     -0.664406    15A     -0.622287
      16A     -0.589715    17A     -0.566096    18A     -0.517768
      19A     -0.506989    20A     -0.488959    21A     -0.451954

  @DF-RHF Final Energy:  -292.07962083508255

   => Energetics <=

    Nuclear Repulsion Energy =            183.3541394648090659
    One-Electron Energy =                -764.8998928601598664
    Two-Electron Energy =                 289.4661325602683064
    Total Energy =                       -292.0796208350825509
  Basis Set: (AUG-CC-PVTZ AUX)
    Blend: AUG-CC-PVTZ-RI
    Molecular point group: c1

    Geometry (in Angstrom), charge = 0, multiplicity = 1:

       Center              X                  Y                   Z               Mass
    ------------   -----------------  -----------------  -----------------  -----------------
         F           -2.312265778883    -0.308852076415     0.005319913404    18.998403162730
         O            2.421434421117    -0.354495576415    -0.097333786596    15.994914619570
         C            0.063876221117    -0.297193076415    -0.018462086596    12.000000000000
         C            1.328605221117     0.551087923585     0.040283913404    12.000000000000
         C           -1.198385778883     0.537891923585     0.028875913404    12.000000000000
         H            0.045812221117    -0.998152076415     0.824710913404     1.007825032230
         H            0.073553221117    -0.889859076415    -0.937631086596     1.007825032230
         H            1.347914221117     1.147759923585     0.964801913404     1.007825032230
         H            1.359627221117     1.249977923585    -0.800124086596     1.007825032230
         H           -1.267465778883     1.208581923585    -0.833948086596     1.007825032230
         H           -1.252222778883     1.136781923585     0.944366913404     1.007825032230
         H            2.540074221117    -0.834520076415     0.678646913404     1.007825032230

  Basis Set: AUG-CC-PVTZ
    Blend: AUG-CC-PVTZ
  Basis Set: (AUG-CC-PVTZ AUX)
    Blend: AUG-CC-PVTZ-JKFIT
	 Reference Energy          =    -292.0796208350825509 [Eh]
	 Singles Energy            =      -0.0000000000000000 [Eh]
	 Same-Spin Energy          =      -0.2611985112391674 [Eh]
	 Opposite-Spin Energy      =      -0.8577010471103562 [Eh]
	 Correlation Energy        =      -1.1188995583495236 [Eh]
	 Total Energy              =    -293.1985203934320907 [Eh]

	 ================> DF-SCS-MP2 Energies <==================
	-----------------------------------------------------------
	 SCS Same-Spin Scale       =       0.3333333333333333 [-]
	 SCS Opposite-Spin Scale   =       1.2000000000000000 [-]
	 SCS Same-Spin Energy      =      -0.0870661704130558 [Eh]
	 SCS Opposite-Spin Energy  =      -1.0292412565324274 [Eh]
	 SCS Correlation Energy    =      -1.1163074269454831 [Eh]
	 SCS Total Energy          =    -293.1959282620280192 [Eh]
	-----------------------------------------------------------

  Dipole Moment: [D]
     X:     0.7304      Y:     1.1654      Z:     1.2838     Total:     1.8814

*** Psi4 exiting successfully. Buy a developer a beer!
