                               Psi4 1.3.2 release

  ==> Input File <==

--------------------------------------------------------------------------
#psi4
#
memory 32 gb

molecule  {
0 1
  F       -2.3906030    -0.3590020    -0.0066210
  O        2.4327490    -0.2858150    -0.0983620
  C       -0.0144610    -0.3473430    -0.0304030
  C        1.2502680     0.5009380     0.0283430
  C       -1.1971248     0.5482506     0.0186183
  H       -0.0325250    -1.0483020     0.8127700
  H       -0.0047840    -0.9400090    -0.9495720
  H        1.2695770     1.0976100     0.9528610
  H        1.2812900     1.1998280    -0.8120650
  H       -1.3458030     1.1584320    -0.8458890
  H       -1.3305600     1.0866320     0.9324260
  H        2.4617370    -0.8846700     0.6667060
units angstrom
no_reorient  #important for SAPT in psi4, default
symmetry c1  #important for SAPT in psi4, default
}

set PROPERTIES_ORIGIN ["COM"]
properties('MP2/aug-cc-pvtz', properties = ['dipole'])
--------------------------------------------------------------------------

    Molecular point group: c1
  Charge       = 0
  Multiplicity = 1
  Basis Set: AUG-CC-PVTZ
    Blend: AUG-CC-PVTZ
  Basis Set: (AUG-CC-PVTZ AUX)
    Blend: AUG-CC-PVTZ-JKFIT

    Orbital Energies [Eh]
    ---------------------

    Doubly Occupied:

       1A    -26.254730     2A    -20.570769     3A    -11.317492
       4A    -11.292859     5A    -11.240186     6A     -1.538643
       7A     -1.368301     8A     -1.082805     9A     -0.928045
      10A     -0.842871    11A     -0.715815    12A     -0.687679
      13A     -0.661216    14A     -0.643524    15A     -0.607655
      16A     -0.588290    17A     -0.568754    18A     -0.535217
      19A     -0.520688    20A     -0.494098    21A     -0.455695

  @DF-RHF Final Energy:  -292.07154065446360

   => Energetics <=

    Nuclear Repulsion Energy =            181.8625243257326645
    One-Electron Energy =                -762.0374627479347964
    Two-Electron Energy =                 288.1033977677384996
    Total Energy =                       -292.0715406544636039
  Basis Set: (AUG-CC-PVTZ AUX)
    Blend: AUG-CC-PVTZ-RI
    Molecular point group: c1

    Geometry (in Angstrom), charge = 0, multiplicity = 1:

       Center              X                  Y                   Z               Mass
    ------------   -----------------  -----------------  -----------------  -----------------
         F           -2.342877049376    -0.342508080047     0.002824691583    18.998403162730
         O            2.480474950624    -0.269321080047    -0.088916308417    15.994914619570
         C            0.033264950624    -0.330849080047    -0.020957308417    12.000000000000
         C            1.297993950624     0.517431919953     0.037788691583    12.000000000000
         C           -1.149398849376     0.564744519953     0.028063991583    12.000000000000
         H            0.015200950624    -1.031808080047     0.822215691583     1.007825032230
         H            0.042941950624    -0.923515080047    -0.940126308417     1.007825032230
         H            1.317302950624     1.114103919953     0.962306691583     1.007825032230
         H            1.329015950624     1.216321919953    -0.802619308417     1.007825032230
         H           -1.298077049376     1.174925919953    -0.836443308417     1.007825032230
         H           -1.282834049376     1.103125919953     0.941871691583     1.007825032230
         H            2.509462950624    -0.868176080047     0.676151691583     1.007825032230

  Basis Set: AUG-CC-PVTZ
    Blend: AUG-CC-PVTZ
  Basis Set: (AUG-CC-PVTZ AUX)
    Blend: AUG-CC-PVTZ-JKFIT
	 Reference Energy          =    -292.0715406544636039 [Eh]
	 Singles Energy            =      -0.0000000000000000 [Eh]
	 Same-Spin Energy          =      -0.2624106771817622 [Eh]
	 Opposite-Spin Energy      =      -0.8616012148660989 [Eh]
	 Correlation Energy        =      -1.1240118920478610 [Eh]
	 Total Energy              =    -293.1955525465114647 [Eh]

	 ================> DF-SCS-MP2 Energies <==================
	-----------------------------------------------------------
	 SCS Same-Spin Scale       =       0.3333333333333333 [-]
	 SCS Opposite-Spin Scale   =       1.2000000000000000 [-]
	 SCS Same-Spin Energy      =      -0.0874702257272541 [Eh]
	 SCS Opposite-Spin Energy  =      -1.0339214578393185 [Eh]
	 SCS Correlation Energy    =      -1.1213916835665727 [Eh]
	 SCS Total Energy          =    -293.1929323380301753 [Eh]
	-----------------------------------------------------------

  Dipole Moment: [D]
     X:     0.8674      Y:     1.1113      Z:     1.2051     Total:     1.8546

*** Psi4 exiting successfully. Buy a developer a beer!
