                               Psi4 1.3.2 release

  ==> Input File <==

--------------------------------------------------------------------------
#psi4
#
memory 32 gb

molecule  {
0 1
  F       -2.3906030    -0.3590020    -0.0066210
  O        2.4446408    -0.2598070    -0.1390981
  C       -0.0144610    -0.3473430    -0.0304030
  C        1.2502680     0.5009380     0.0283430
  C       -1.2767230     0.4877420     0.0169350
  H       -0.0325250    -1.0483020     0.8127700
  H       -0.0047840    -0.9400090    -0.9495720
  H        1.2695770     1.0976100     0.9528610
  H        1.2812900     1.1998280    -0.8120650
  H       -1.3458030     1.1584320    -0.8458890
  H       -1.3305600     1.0866320     0.9324260
  H        2.4617370    -0.8846700     0.6667060
units angstrom
no_reorient  #important for SAPT in psi4, default
symmetry c1  #important for SAPT in psi4, default
}

set PROPERTIES_ORIGIN ["COM"]
properties('MP2/aug-cc-pvtz', properties = ['dipole'])
--------------------------------------------------------------------------

    Molecular point group: c1
  Charge       = 0
  Multiplicity = 1
  Basis Set: AUG-CC-PVTZ
    Blend: AUG-CC-PVTZ
  Basis Set: (AUG-CC-PVTZ AUX)
    Blend: AUG-CC-PVTZ-JKFIT

    Orbital Energies [Eh]
    ---------------------

    Doubly Occupied:

       1A    -26.278636     2A    -20.574970     3A    -11.316203
       4A    -11.289287     5A    -11.237341     6A     -1.584586
       7A     -1.358577     8A     -1.069570     9A     -0.923193
      10A     -0.837631    11A     -0.715872    12A     -0.697078
      13A     -0.678495    14A     -0.666995    15A     -0.612501
      16A     -0.593259    17A     -0.569452    18A     -0.515800
      19A     -0.508338    20A     -0.488840    21A     -0.454947

  @DF-RHF Final Energy:  -292.07544553705247

   => Energetics <=

    Nuclear Repulsion Energy =            182.0759883881131884
    One-Electron Energy =                -762.3597209994912873
    Two-Electron Energy =                 288.2082870743256535
    Total Energy =                       -292.0754455370524738
  Basis Set: (AUG-CC-PVTZ AUX)
    Blend: AUG-CC-PVTZ-RI
    Molecular point group: c1

    Geometry (in Angstrom), charge = 0, multiplicity = 1:

       Center              X                  Y                   Z               Mass
    ------------   -----------------  -----------------  -----------------  -----------------
         F           -2.333075783966    -0.338534793210     0.011431821054    18.998403162730
         O            2.502168016034    -0.239339793210    -0.121045278946    15.994914619570
         C            0.043066216034    -0.326875793210    -0.012350178946    12.000000000000
         C            1.307795216034     0.521405206790     0.046395821054    12.000000000000
         C           -1.219195783966     0.508209206790     0.034987821054    12.000000000000
         H            0.025002216034    -1.027834793210     0.830822821054     1.007825032230
         H            0.052743216034    -0.919541793210    -0.931519178946     1.007825032230
         H            1.327104216034     1.118077206790     0.970913821054     1.007825032230
         H            1.338817216034     1.220295206790    -0.794012178946     1.007825032230
         H           -1.288275783966     1.178899206790    -0.827836178946     1.007825032230
         H           -1.273032783966     1.107099206790     0.950478821054     1.007825032230
         H            2.519264216034    -0.864202793210     0.684758821054     1.007825032230

  Basis Set: AUG-CC-PVTZ
    Blend: AUG-CC-PVTZ
  Basis Set: (AUG-CC-PVTZ AUX)
    Blend: AUG-CC-PVTZ-JKFIT
	 Reference Energy          =    -292.0754455370524738 [Eh]
	 Singles Energy            =      -0.0000000000000000 [Eh]
	 Same-Spin Energy          =      -0.2624456516237835 [Eh]
	 Opposite-Spin Energy      =      -0.8611643713233859 [Eh]
	 Correlation Energy        =      -1.1236100229471693 [Eh]
	 Total Energy              =    -293.1990555599996355 [Eh]

	 ================> DF-SCS-MP2 Energies <==================
	-----------------------------------------------------------
	 SCS Same-Spin Scale       =       0.3333333333333333 [-]
	 SCS Opposite-Spin Scale   =       1.2000000000000000 [-]
	 SCS Same-Spin Energy      =      -0.0874818838745945 [Eh]
	 SCS Opposite-Spin Energy  =      -1.0333972455880629 [Eh]
	 SCS Correlation Energy    =      -1.1208791294626574 [Eh]
	 SCS Total Energy          =    -293.1963246665151246 [Eh]
	-----------------------------------------------------------

  Dipole Moment: [D]
     X:     0.4580      Y:     0.8534      Z:     1.2454     Total:     1.5777

*** Psi4 exiting successfully. Buy a developer a beer!
