                               Psi4 1.3.2 release

  ==> Input File <==

--------------------------------------------------------------------------
#psi4
#
memory 32 gb

molecule  {
0 1
  F       -2.3906030    -0.3590020    -0.0066210
  O        2.4327490    -0.2858150    -0.0983620
  C       -0.0144610    -0.3473430    -0.0304030
  C        1.2560364     0.5126283     0.0071434
  C       -1.2767230     0.4877420     0.0169350
  H       -0.0325250    -1.0483020     0.8127700
  H       -0.0047840    -0.9400090    -0.9495720
  H        1.2695770     1.0976100     0.9528610
  H        1.2812900     1.1998280    -0.8120650
  H       -1.3458030     1.1584320    -0.8458890
  H       -1.3305600     1.0866320     0.9324260
  H        2.4617370    -0.8846700     0.6667060
units angstrom
no_reorient  #important for SAPT in psi4, default
symmetry c1  #important for SAPT in psi4, default
}

set PROPERTIES_ORIGIN ["COM"]
properties('MP2/aug-cc-pvtz', properties = ['dipole'])
--------------------------------------------------------------------------

    Molecular point group: c1
  Charge       = 0
  Multiplicity = 1
  Basis Set: AUG-CC-PVTZ
    Blend: AUG-CC-PVTZ
  Basis Set: (AUG-CC-PVTZ AUX)
    Blend: AUG-CC-PVTZ-JKFIT

    Orbital Energies [Eh]
    ---------------------

    Doubly Occupied:

       1A    -26.278050     2A    -20.568107     3A    -11.315426
       4A    -11.290046     5A    -11.237027     6A     -1.584046
       7A     -1.365206     8A     -1.068557     9A     -0.926337
      10A     -0.840332    11A     -0.715958    12A     -0.699744
      13A     -0.678637    14A     -0.666205    15A     -0.622818
      16A     -0.592063    17A     -0.567494    18A     -0.519701
      19A     -0.506375    20A     -0.491154    21A     -0.451123

  @DF-RHF Final Energy:  -292.08081949608061

   => Energetics <=

    Nuclear Repulsion Energy =            182.2672207049480164
    One-Electron Energy =                -762.7272675985266233
    Two-Electron Energy =                 288.3792273974979707
    Total Energy =                       -292.0808194960806077
  Basis Set: (AUG-CC-PVTZ AUX)
    Blend: AUG-CC-PVTZ-RI
    Molecular point group: c1

    Geometry (in Angstrom), charge = 0, multiplicity = 1:

       Center              X                  Y                   Z               Mass
    ------------   -----------------  -----------------  -----------------  -----------------
         F           -2.331525617639    -0.335002200307     0.006342968448    18.998403162730
         O            2.491826382361    -0.261815200307    -0.085398031552    15.994914619570
         C            0.044616382361    -0.323343200307    -0.017439031552    12.000000000000
         C            1.315113782361     0.536628099693     0.020107368448    12.000000000000
         C           -1.217645617639     0.511741799693     0.029898968448    12.000000000000
         H            0.026552382361    -1.024302200307     0.825733968448     1.007825032230
         H            0.054293382361    -0.916009200307    -0.936608031552     1.007825032230
         H            1.328654382361     1.121609799693     0.965824968448     1.007825032230
         H            1.340367382361     1.223827799693    -0.799101031552     1.007825032230
         H           -1.286725617639     1.182431799693    -0.832925031552     1.007825032230
         H           -1.271482617639     1.110631799693     0.945389968448     1.007825032230
         H            2.520814382361    -0.860670200307     0.679669968448     1.007825032230

  Basis Set: AUG-CC-PVTZ
    Blend: AUG-CC-PVTZ
  Basis Set: (AUG-CC-PVTZ AUX)
    Blend: AUG-CC-PVTZ-JKFIT
	 Reference Energy          =    -292.0808194960806077 [Eh]
	 Singles Energy            =      -0.0000000000000000 [Eh]
	 Same-Spin Energy          =      -0.2616445352805741 [Eh]
	 Opposite-Spin Energy      =      -0.8591561157136982 [Eh]
	 Correlation Energy        =      -1.1208006509942723 [Eh]
	 Total Energy              =    -293.2016201470748911 [Eh]

	 ================> DF-SCS-MP2 Energies <==================
	-----------------------------------------------------------
	 SCS Same-Spin Scale       =       0.3333333333333333 [-]
	 SCS Opposite-Spin Scale   =       1.2000000000000000 [-]
	 SCS Same-Spin Energy      =      -0.0872148450935247 [Eh]
	 SCS Opposite-Spin Energy  =      -1.0309873388564379 [Eh]
	 SCS Correlation Energy    =      -1.1182021839499625 [Eh]
	 SCS Total Energy          =    -293.1990216800305689 [Eh]
	-----------------------------------------------------------

  Dipole Moment: [D]
     X:     0.4778      Y:     0.9108      Z:     1.1712     Total:     1.5587

*** Psi4 exiting successfully. Buy a developer a beer!
