                               Psi4 1.4a3.dev225

  ==> Input File <==

--------------------------------------------------------------------------
#psi4
#
memory 32 gb

molecule  {
0 1
  F       -2.3905990    -0.3589170    -0.0065240
  O        2.4327270    -0.2857950    -0.0983550
  C       -0.0144620    -0.3474730    -0.0305520
  C        1.2501660     0.5009030     0.0283150
  C       -1.2767010     0.4876670     0.0169150
  H       -0.0324870    -1.0484940     0.8125610
  H       -0.0047440    -0.9399880    -0.9498040
  H        1.2693770     1.0974880     0.9528950
  H        1.2812390     1.1998900    -0.8120130
  H       -1.3457900     1.1584290    -0.8458720
  H       -1.3303370     1.0865880     0.9324180
  H        2.4638223    -0.9146485     0.7066809
units angstrom
no_reorient  #important for SAPT in psi4, default
symmetry c1  #important for SAPT in psi4, default
}

set PROPERTIES_ORIGIN ["COM"]
properties('MP2/aug-cc-pvtz', properties = ['dipole'])
--------------------------------------------------------------------------

    Molecular point group: c1
  Charge       = 0
  Multiplicity = 1
  Basis Set: AUG-CC-PVTZ
    Blend: AUG-CC-PVTZ
  Basis Set: (AUG-CC-PVTZ AUX)
    Blend: AUG-CC-PVTZ-JKFIT

    Orbital Energies [Eh]
    ---------------------

    Doubly Occupied:

       1A    -26.278166     2A    -20.573317     3A    -11.315549
       4A    -11.289681     5A    -11.236510     6A     -1.584168
       7A     -1.356026     8A     -1.069004     9A     -0.923363
      10A     -0.837482    11A     -0.714888    12A     -0.696527
      13A     -0.677590    14A     -0.666225    15A     -0.615931
      16A     -0.591589    17A     -0.568240    18A     -0.516425
      19A     -0.506446    20A     -0.487856    21A     -0.453534

  @DF-RHF Final Energy:  -292.07614892244459

   => Energetics <=

    Nuclear Repulsion Energy =            182.1172768952195611
    One-Electron Energy =                -762.4698177091783009
    Two-Electron Energy =                 288.2763918915141517
    Total Energy =                       -292.0761489224445882
  Basis Set: (AUG-CC-PVTZ AUX)
    Blend: AUG-CC-PVTZ-RI
    Molecular point group: c1

    Geometry (in Angstrom), charge = 0, multiplicity = 1:

       Center              X                  Y                   Z               Mass
    ------------   -----------------  -----------------  -----------------  -----------------
         F           -2.330646470260    -0.332716991578     0.002674021125    18.998403162730
         O            2.492679529740    -0.259594991578    -0.089156978875    15.994914619570
         C            0.045490529740    -0.321272991578    -0.021353978875    12.000000000000
         C            1.310118529740     0.527103008422     0.037513021125    12.000000000000
         C           -1.216748470260     0.513867008422     0.026113021125    12.000000000000
         H            0.027465529740    -1.022293991578     0.821759021125     1.007825032230
         H            0.055208529740    -0.913787991578    -0.940605978875     1.007825032230
         H            1.329329529740     1.123688008422     0.962093021125     1.007825032230
         H            1.341191529740     1.226090008422    -0.802814978875     1.007825032230
         H           -1.285837470260     1.184629008422    -0.836673978875     1.007825032230
         H           -1.270384470260     1.112788008422     0.941616021125     1.007825032230
         H            2.523774829740    -0.888448491578     0.715878921125     1.007825032230

  Basis Set: AUG-CC-PVTZ
    Blend: AUG-CC-PVTZ
  Basis Set: (AUG-CC-PVTZ AUX)
    Blend: AUG-CC-PVTZ-JKFIT
	 Reference Energy          =    -292.0761489224445882 [Eh]
	 Singles Energy            =      -0.0000000000000000 [Eh]
	 Same-Spin Energy          =      -0.2623051354426797 [Eh]
	 Opposite-Spin Energy      =      -0.8608673864663055 [Eh]
	 Correlation Energy        =      -1.1231725219089852 [Eh]
	 Total Energy              =    -293.1993214443535862 [Eh]

	 ================> DF-SCS-MP2 Energies <==================
	-----------------------------------------------------------
	 SCS Same-Spin Scale       =       0.3333333333333333 [-]
	 SCS Opposite-Spin Scale   =       1.2000000000000000 [-]
	 SCS Same-Spin Energy      =      -0.0874350451475599 [Eh]
	 SCS Opposite-Spin Energy  =      -1.0330408637595665 [Eh]
	 SCS Correlation Energy    =      -1.1204759089071263 [Eh]
	 SCS Total Energy          =    -293.1966248313516985 [Eh]
	-----------------------------------------------------------

  Dipole Moment: [D]
     X:     0.4833      Y:     0.8729      Z:     1.2235     Total:     1.5788

*** Psi4 exiting successfully. Buy a developer a beer!
