                               Psi4 1.3.2 release

  ==> Input File <==

--------------------------------------------------------------------------
#psi4
#
memory 32 gb

molecule  {
0 1
  F       -2.2959705    -0.4706655    -0.0121936
  O        2.4327490    -0.2858150    -0.0983620
  C       -0.0144610    -0.3473430    -0.0304030
  C        1.2502680     0.5009380     0.0283430
  C       -1.2767230     0.4877420     0.0169350
  H       -0.0325250    -1.0483020     0.8127700
  H       -0.0047840    -0.9400090    -0.9495720
  H        1.2695770     1.0976100     0.9528610
  H        1.2812900     1.1998280    -0.8120650
  H       -1.3458030     1.1584320    -0.8458890
  H       -1.3305600     1.0866320     0.9324260
  H        2.4617370    -0.8846700     0.6667060
units angstrom
no_reorient  #important for SAPT in psi4, default
symmetry c1  #important for SAPT in psi4, default
}

set PROPERTIES_ORIGIN ["COM"]
properties('MP2/aug-cc-pvtz', properties = ['dipole'])
--------------------------------------------------------------------------

    Molecular point group: c1
  Charge       = 0
  Multiplicity = 1
  Basis Set: AUG-CC-PVTZ
    Blend: AUG-CC-PVTZ
  Basis Set: (AUG-CC-PVTZ AUX)
    Blend: AUG-CC-PVTZ-JKFIT

    Orbital Energies [Eh]
    ---------------------

    Doubly Occupied:

       1A    -26.278780     2A    -20.566726     3A    -11.316551
       4A    -11.287081     5A    -11.233535     6A     -1.585729
       7A     -1.364031     8A     -1.068325     9A     -0.925325
      10A     -0.838323    11A     -0.717006    12A     -0.702135
      13A     -0.680428    14A     -0.665041    15A     -0.617634
      16A     -0.589255    17A     -0.566734    18A     -0.519579
      19A     -0.508097    20A     -0.487276    21A     -0.450678

  @DF-RHF Final Energy:  -292.07847231392452

   => Energetics <=

    Nuclear Repulsion Energy =            183.2686906600026191
    One-Electron Energy =                -764.7577835248489464
    Two-Electron Energy =                 289.4106205509217489
    Total Energy =                       -292.0784723139245216
  Basis Set: (AUG-CC-PVTZ AUX)
    Blend: AUG-CC-PVTZ-RI
    Molecular point group: c1

    Geometry (in Angstrom), charge = 0, multiplicity = 1:

       Center              X                  Y                   Z               Mass
    ------------   -----------------  -----------------  -----------------  -----------------
         F           -2.259041584317    -0.417687262726    -0.001132621014    18.998403162730
         O            2.469677915683    -0.232836762726    -0.087301021014    15.994914619570
         C            0.022467915683    -0.294364762726    -0.019342021014    12.000000000000
         C            1.287196915683     0.553916237274     0.039403978986    12.000000000000
         C           -1.239794084317     0.540720237274     0.027995978986    12.000000000000
         H            0.004403915683    -0.995323762726     0.823830978986     1.007825032230
         H            0.032144915683    -0.887030762726    -0.938511021014     1.007825032230
         H            1.306505915683     1.150588237274     0.963921978986     1.007825032230
         H            1.318218915683     1.252806237274    -0.801004021014     1.007825032230
         H           -1.308874084317     1.211410237274    -0.834828021014     1.007825032230
         H           -1.293631084317     1.139610237274     0.943486978986     1.007825032230
         H            2.498665915683    -0.831691762726     0.677766978986     1.007825032230

  Basis Set: AUG-CC-PVTZ
    Blend: AUG-CC-PVTZ
  Basis Set: (AUG-CC-PVTZ AUX)
    Blend: AUG-CC-PVTZ-JKFIT
	 Reference Energy          =    -292.0784723139245216 [Eh]
	 Singles Energy            =      -0.0000000000000000 [Eh]
	 Same-Spin Energy          =      -0.2618978095424899 [Eh]
	 Opposite-Spin Energy      =      -0.8595799192131186 [Eh]
	 Correlation Energy        =      -1.1214777287556084 [Eh]
	 Total Energy              =    -293.1999500426801433 [Eh]

	 ================> DF-SCS-MP2 Energies <==================
	-----------------------------------------------------------
	 SCS Same-Spin Scale       =       0.3333333333333333 [-]
	 SCS Opposite-Spin Scale   =       1.2000000000000000 [-]
	 SCS Same-Spin Energy      =      -0.0872992698474966 [Eh]
	 SCS Opposite-Spin Energy  =      -1.0314959030557422 [Eh]
	 SCS Correlation Energy    =      -1.1187951729032388 [Eh]
	 SCS Total Energy          =    -293.1972674868277409 [Eh]
	-----------------------------------------------------------

  Dipole Moment: [D]
     X:     0.2675      Y:     1.0442      Z:     1.2034     Total:     1.6155

*** Psi4 exiting successfully. Buy a developer a beer!
