                               Psi4 1.3.2 release

  ==> Input File <==

--------------------------------------------------------------------------
#psi4
#
memory 32 gb

molecule  {
0 1
  F       -2.3906030    -0.3590020    -0.0066210
  O        2.4327490    -0.2858150    -0.0983620
  C       -0.0144610    -0.3473430    -0.0304030
  C        1.4161212     0.3905891     0.0105715
  C       -1.2767230     0.4877420     0.0169350
  H       -0.0325250    -1.0483020     0.8127700
  H       -0.0047840    -0.9400090    -0.9495720
  H        1.2695770     1.0976100     0.9528610
  H        1.2812900     1.1998280    -0.8120650
  H       -1.3458030     1.1584320    -0.8458890
  H       -1.3305600     1.0866320     0.9324260
  H        2.4617370    -0.8846700     0.6667060
units angstrom
no_reorient  #important for SAPT in psi4, default
symmetry c1  #important for SAPT in psi4, default
}

set PROPERTIES_ORIGIN ["COM"]
properties('MP2/aug-cc-pvtz', properties = ['dipole'])
--------------------------------------------------------------------------

    Molecular point group: c1
  Charge       = 0
  Multiplicity = 1
  Basis Set: AUG-CC-PVTZ
    Blend: AUG-CC-PVTZ
  Basis Set: (AUG-CC-PVTZ AUX)
    Blend: AUG-CC-PVTZ-JKFIT

    Orbital Energies [Eh]
    ---------------------

    Doubly Occupied:

       1A    -26.275451     2A    -20.593029     3A    -11.312308
       4A    -11.301592     5A    -11.230658     6A     -1.580994
       7A     -1.472238     8A     -1.048656     9A     -0.918974
      10A     -0.846130    11A     -0.740976    12A     -0.704023
      13A     -0.683695    14A     -0.681922    15A     -0.652181
      16A     -0.621911    17A     -0.580205    18A     -0.508408
      19A     -0.501686    20A     -0.452653    21A     -0.415357

  @DF-RHF Final Energy:  -292.03600786471202

   => Energetics <=

    Nuclear Repulsion Energy =            183.4773848533465355
    One-Electron Energy =                -764.7806898137405369
    Two-Electron Energy =                 289.2672970956820109
    Total Energy =                       -292.0360078647120190
  Basis Set: (AUG-CC-PVTZ AUX)
    Blend: AUG-CC-PVTZ-RI
    Molecular point group: c1

    Geometry (in Angstrom), charge = 0, multiplicity = 1:

       Center              X                  Y                   Z               Mass
    ------------   -----------------  -----------------  -----------------  -----------------
         F           -2.356138872441    -0.316238508030     0.005815893431    18.998403162730
         O            2.467213127559    -0.243051508030    -0.085925106569    15.994914619570
         C            0.020003127559    -0.304579508030    -0.017966106569    12.000000000000
         C            1.450585327559     0.433352591970     0.023008393431    12.000000000000
         C           -1.242258872441     0.530505491970     0.029371893431    12.000000000000
         H            0.001939127559    -1.005538508030     0.825206893431     1.007825032230
         H            0.029680127559    -0.897245508030    -0.937135106569     1.007825032230
         H            1.304041127559     1.140373491970     0.965297893431     1.007825032230
         H            1.315754127559     1.242591491970    -0.799628106569     1.007825032230
         H           -1.311338872441     1.201195491970    -0.833452106569     1.007825032230
         H           -1.296095872441     1.129395491970     0.944862893431     1.007825032230
         H            2.496201127559    -0.841906508030     0.679142893431     1.007825032230

  Basis Set: AUG-CC-PVTZ
    Blend: AUG-CC-PVTZ
  Basis Set: (AUG-CC-PVTZ AUX)
    Blend: AUG-CC-PVTZ-JKFIT
	 Reference Energy          =    -292.0360078647120190 [Eh]
	 Singles Energy            =      -0.0000000000000000 [Eh]
	 Same-Spin Energy          =      -0.2625131350019692 [Eh]
	 Opposite-Spin Energy      =      -0.8584154193425358 [Eh]
	 Correlation Energy        =      -1.1209285543445051 [Eh]
	 Total Energy              =    -293.1569364190565352 [Eh]

	 ================> DF-SCS-MP2 Energies <==================
	-----------------------------------------------------------
	 SCS Same-Spin Scale       =       0.3333333333333333 [-]
	 SCS Opposite-Spin Scale   =       1.2000000000000000 [-]
	 SCS Same-Spin Energy      =      -0.0875043783339897 [Eh]
	 SCS Opposite-Spin Energy  =      -1.0300985032110430 [Eh]
	 SCS Correlation Energy    =      -1.1176028815450327 [Eh]
	 SCS Total Energy          =    -293.1536107462570726 [Eh]
	-----------------------------------------------------------

  Dipole Moment: [D]
     X:     1.3189      Y:     0.4079      Z:     1.1183     Total:     1.7767

*** Psi4 exiting successfully. Buy a developer a beer!
