                               Psi4 1.4a2.dev612

  ==> Input File <==

--------------------------------------------------------------------------
#psi4
#
memory 32 gb

molecule  {
0 1
  O        1.0716460     0.4753830     0.0137820
  O        2.5311320    -1.1057930    -0.7123110
  C       -2.3693550    -0.0883010     0.2982860
  C       -3.5980660     0.7810210     0.4066790
  C       -1.2626340     0.3942960    -0.2965320
  C        0.0082920    -0.3313460    -0.5624280
  C       -2.5132090    -1.4745150     0.8629900
  C       -4.7090750     0.3554230    -0.5595870
  C        3.3466197     0.8266925     0.5256886
  C        2.3120420    -0.0450080    -0.1482500
  C        4.7580620     0.3036620     0.3135630
  H       -3.3290990     1.8240090     0.2046860
  H       -3.9789780     0.7461160     1.4360390
  H       -1.2730680     1.4248330    -0.6509560
  H        0.2030610    -0.4353830    -1.6357720
  H        0.0474490    -1.3311670    -0.1253770
  H       -2.7951440    -1.4155820     1.9226690
  H       -3.3106690    -2.0257820     0.3507100
  H       -1.6004590    -2.0681310     0.7873000
  H       -5.0436390    -0.6667330    -0.3605950
  H       -4.3535760     0.4008270    -1.5926810
  H       -5.5777020     1.0147490    -0.4669260
  H        3.2685340     1.8407540    -0.0713220
  H        3.0874670     1.0628020     1.4826470
  H        4.8339620    -0.6514900     0.8358700
  H        5.0104170     0.1293290    -0.7342450
  H        5.4905370     0.9935700     0.7404870
units angstrom
no_reorient  #important for SAPT in psi4, default
symmetry c1  #important for SAPT in psi4, default
}

set PROPERTIES_ORIGIN ["COM"]
properties('MP2/aug-cc-pvtz', properties = ['dipole'])
--------------------------------------------------------------------------

    Molecular point group: c1
  Charge       = 0
  Multiplicity = 1
  Basis Set: AUG-CC-PVTZ
    Blend: AUG-CC-PVTZ
  Basis Set: (AUG-CC-PVTZ AUX)
    Blend: AUG-CC-PVTZ-JKFIT

    Orbital Energies [Eh]
    ---------------------

    Doubly Occupied:

       1A    -20.597269     2A    -20.540797     3A    -11.376324
       4A    -11.286506     5A    -11.244255     6A    -11.243753
       7A    -11.228418     8A    -11.226447     9A    -11.223291
      10A    -11.219201    11A    -11.218659    12A     -1.448123
      13A     -1.347669    14A     -1.112511    15A     -1.064350
      16A     -1.021910    17A     -0.978013    18A     -0.919736
      19A     -0.879680    20A     -0.833851    21A     -0.768445
      22A     -0.724605    23A     -0.689717    24A     -0.679064
      25A     -0.662423    26A     -0.637224    27A     -0.622360
      28A     -0.604252    29A     -0.588474    30A     -0.574597
      31A     -0.552665    32A     -0.545650    33A     -0.534728
      34A     -0.530117    35A     -0.517766    36A     -0.515012
      37A     -0.511957    38A     -0.484385    39A     -0.479626
      40A     -0.465639    41A     -0.457205    42A     -0.443618
      43A     -0.346036

  @DF-RHF Final Energy:  -500.02797309286996

   => Energetics <=

    Nuclear Repulsion Energy =            603.0736395476887992
    One-Electron Energy =               -1876.3105704323834289
    Two-Electron Energy =                 773.2089577918246732
    Total Energy =                       -500.0279730928699564
  Basis Set: (AUG-CC-PVTZ AUX)
    Blend: AUG-CC-PVTZ-RI
    Molecular point group: c1

    Geometry (in Angstrom), charge = 0, multiplicity = 1:

       Center              X                  Y                   Z               Mass
    ------------   -----------------  -----------------  -----------------  -----------------
         O            1.072258346515     0.479040205890     0.007048846989    15.994914619570
         O            2.531744346515    -1.102135794110    -0.719044153011    15.994914619570
         C           -2.368742653485    -0.084643794110     0.291552846989    12.000000000000
         C           -3.597453653485     0.784678205890     0.399945846989    12.000000000000
         C           -1.262021653485     0.397953205890    -0.303265153011    12.000000000000
         C            0.008904346515    -0.327688794110    -0.569161153011    12.000000000000
         C           -2.512596653485    -1.470857794110     0.856256846989    12.000000000000
         C           -4.708462653485     0.359080205890    -0.566320153011    12.000000000000
         C            3.347232046515     0.830349705890     0.518955446989    12.000000000000
         C            2.312654346515    -0.041350794110    -0.154983153011    12.000000000000
         C            4.758674346515     0.307319205890     0.306829846989    12.000000000000
         H           -3.328486653485     1.827666205890     0.197952846989     1.007825032230
         H           -3.978365653485     0.749773205890     1.429305846989     1.007825032230
         H           -1.272455653485     1.428490205890    -0.657689153011     1.007825032230
         H            0.203673346515    -0.431725794110    -1.642505153011     1.007825032230
         H            0.048061346515    -1.327509794110    -0.132110153011     1.007825032230
         H           -2.794531653485    -1.411924794110     1.915935846989     1.007825032230
         H           -3.310056653485    -2.022124794110     0.343976846989     1.007825032230
         H           -1.599846653485    -2.064473794110     0.780566846989     1.007825032230
         H           -5.043026653485    -0.663075794110    -0.367328153011     1.007825032230
         H           -4.352963653485     0.404484205890    -1.599414153011     1.007825032230
         H           -5.577089653485     1.018406205890    -0.473659153011     1.007825032230
         H            3.269146346515     1.844411205890    -0.078055153011     1.007825032230
         H            3.088079346515     1.066459205890     1.475913846989     1.007825032230
         H            4.834574346515    -0.647832794110     0.829136846989     1.007825032230
         H            5.011029346515     0.132986205890    -0.740978153011     1.007825032230
         H            5.491149346515     0.997227205890     0.733753846989     1.007825032230

  Basis Set: AUG-CC-PVTZ
    Blend: AUG-CC-PVTZ
  Basis Set: (AUG-CC-PVTZ AUX)
    Blend: AUG-CC-PVTZ-JKFIT
	 Reference Energy          =    -500.0279730928699564 [Eh]
	 Singles Energy            =      -0.0000000000000000 [Eh]
	 Same-Spin Energy          =      -0.5099044975288854 [Eh]
	 Opposite-Spin Energy      =      -1.7172950190869276 [Eh]
	 Correlation Energy        =      -2.2271995166158129 [Eh]
	 Total Energy              =    -502.2551726094857827 [Eh]

	 ================> DF-SCS-MP2 Energies <==================
	-----------------------------------------------------------
	 SCS Same-Spin Scale       =       0.3333333333333333 [-]
	 SCS Opposite-Spin Scale   =       1.2000000000000000 [-]
	 SCS Same-Spin Energy      =      -0.1699681658429618 [Eh]
	 SCS Opposite-Spin Energy  =      -2.0607540229043129 [Eh]
	 SCS Correlation Energy    =      -2.2307221887472748 [Eh]
	 SCS Total Energy          =    -502.2586952816172357 [Eh]
	-----------------------------------------------------------

  Dipole Moment: [D]
     X:    -1.4375      Y:     1.1528      Z:     0.8697     Total:     2.0376

*** Psi4 exiting successfully. Buy a developer a beer!
