                               Psi4 1.4a2.dev612

  ==> Input File <==

--------------------------------------------------------------------------
#psi4
#
memory 32 gb

molecule  {
0 1
  O        1.0716460     0.4753830     0.0137820
  O        2.5311320    -1.1057930    -0.7123110
  C       -2.3693550    -0.0883010     0.2982860
  C       -3.5980660     0.7810210     0.4066790
  C       -1.2626340     0.3942960    -0.2965320
  C        0.0082920    -0.3313460    -0.5624280
  C       -2.5132090    -1.4745150     0.8629900
  C       -4.7090750     0.3554230    -0.5595870
  C        3.3545870     0.8742710     0.4380940
  C        2.3120420    -0.0450080    -0.1482500
  C        4.7580620     0.3036620     0.3135630
  H       -3.3290990     1.8240090     0.2046860
  H       -3.9789780     0.7461160     1.4360390
  H       -1.2730680     1.4248330    -0.6509560
  H        0.2030610    -0.4353830    -1.6357720
  H        0.0474490    -1.3311670    -0.1253770
  H       -2.7951440    -1.4155820     1.9226690
  H       -3.3106690    -2.0257820     0.3507100
  H       -1.6004590    -2.0681310     0.7873000
  H       -5.0436390    -0.6667330    -0.3605950
  H       -4.3535760     0.4008270    -1.5926810
  H       -5.5777020     1.0147490    -0.4669260
  H        3.2685340     1.8407540    -0.0713220
  H        3.0874670     1.0628020     1.4826470
  H        4.8339620    -0.6514900     0.8358700
  H        5.0104170     0.1293290    -0.7342450
  H        5.4905370     0.9935700     0.7404870
units angstrom
no_reorient  #important for SAPT in psi4, default
symmetry c1  #important for SAPT in psi4, default
}

set PROPERTIES_ORIGIN ["COM"]
properties('MP2/aug-cc-pvtz', properties = ['dipole'])
--------------------------------------------------------------------------

    Molecular point group: c1
  Charge       = 0
  Multiplicity = 1
  Basis Set: AUG-CC-PVTZ
    Blend: AUG-CC-PVTZ
  Basis Set: (AUG-CC-PVTZ AUX)
    Blend: AUG-CC-PVTZ-JKFIT

    Orbital Energies [Eh]
    ---------------------

    Doubly Occupied:

       1A    -20.597305     2A    -20.540758     3A    -11.375515
       4A    -11.286507     5A    -11.244266     6A    -11.242192
       7A    -11.228422     8A    -11.226407     9A    -11.223292
      10A    -11.219212    11A    -11.217865    12A     -1.448117
      13A     -1.347598    14A     -1.112508    15A     -1.063907
      16A     -1.021797    17A     -0.977965    18A     -0.919658
      19A     -0.879130    20A     -0.833535    21A     -0.767426
      22A     -0.722690    23A     -0.687831    24A     -0.680039
      25A     -0.660154    26A     -0.638625    27A     -0.623741
      28A     -0.605192    29A     -0.588043    30A     -0.574434
      31A     -0.552842    32A     -0.544577    33A     -0.533717
      34A     -0.522189    35A     -0.517524    36A     -0.514484
      37A     -0.512076    38A     -0.492263    39A     -0.483925
      40A     -0.465694    41A     -0.457314    42A     -0.444438
      43A     -0.346099

  @DF-RHF Final Energy:  -500.03836787943249

   => Energetics <=

    Nuclear Repulsion Energy =            603.0791217352361855
    One-Electron Energy =               -1876.3524309678703048
    Two-Electron Energy =                 773.2349413532016342
    Total Energy =                       -500.0383678794324851
  Basis Set: (AUG-CC-PVTZ AUX)
    Blend: AUG-CC-PVTZ-RI
    Molecular point group: c1

    Geometry (in Angstrom), charge = 0, multiplicity = 1:

       Center              X                  Y                   Z               Mass
    ------------   -----------------  -----------------  -----------------  -----------------
         O            1.071645928863     0.475383017976     0.013781928369    15.994914619570
         O            2.531131928863    -1.105792982024    -0.712311071631    15.994914619570
         C           -2.369355071137    -0.088300982024     0.298285928369    12.000000000000
         C           -3.598066071137     0.781021017976     0.406678928369    12.000000000000
         C           -1.262634071137     0.394296017976    -0.296532071631    12.000000000000
         C            0.008291928863    -0.331345982024    -0.562428071631    12.000000000000
         C           -2.513209071137    -1.474514982024     0.862989928369    12.000000000000
         C           -4.709075071137     0.355423017976    -0.559587071631    12.000000000000
         C            3.354586928863     0.874271017976     0.438093928369    12.000000000000
         C            2.312041928863    -0.045007982024    -0.148250071631    12.000000000000
         C            4.758061928863     0.303662017976     0.313562928369    12.000000000000
         H           -3.329099071137     1.824009017976     0.204685928369     1.007825032230
         H           -3.978978071137     0.746116017976     1.436038928369     1.007825032230
         H           -1.273068071137     1.424833017976    -0.650956071631     1.007825032230
         H            0.203060928863    -0.435382982024    -1.635772071631     1.007825032230
         H            0.047448928863    -1.331166982024    -0.125377071631     1.007825032230
         H           -2.795144071137    -1.415581982024     1.922668928369     1.007825032230
         H           -3.310669071137    -2.025781982024     0.350709928369     1.007825032230
         H           -1.600459071137    -2.068130982024     0.787299928369     1.007825032230
         H           -5.043639071137    -0.666732982024    -0.360595071631     1.007825032230
         H           -4.353576071137     0.400827017976    -1.592681071631     1.007825032230
         H           -5.577702071137     1.014749017976    -0.466926071631     1.007825032230
         H            3.268533928863     1.840754017976    -0.071322071631     1.007825032230
         H            3.087466928863     1.062802017976     1.482646928369     1.007825032230
         H            4.833961928863    -0.651489982024     0.835869928369     1.007825032230
         H            5.010416928863     0.129329017976    -0.734245071631     1.007825032230
         H            5.490536928863     0.993570017976     0.740486928369     1.007825032230

  Basis Set: AUG-CC-PVTZ
    Blend: AUG-CC-PVTZ
  Basis Set: (AUG-CC-PVTZ AUX)
    Blend: AUG-CC-PVTZ-JKFIT
	 Reference Energy          =    -500.0383678794324851 [Eh]
	 Singles Energy            =      -0.0000000000000000 [Eh]
	 Same-Spin Energy          =      -0.5097562120408459 [Eh]
	 Opposite-Spin Energy      =      -1.7168236365399132 [Eh]
	 Correlation Energy        =      -2.2265798485807591 [Eh]
	 Total Energy              =    -502.2649477280132260 [Eh]

	 ================> DF-SCS-MP2 Energies <==================
	-----------------------------------------------------------
	 SCS Same-Spin Scale       =       0.3333333333333333 [-]
	 SCS Opposite-Spin Scale   =       1.2000000000000000 [-]
	 SCS Same-Spin Energy      =      -0.1699187373469486 [Eh]
	 SCS Opposite-Spin Energy  =      -2.0601883638478959 [Eh]
	 SCS Correlation Energy    =      -2.2301071011948448 [Eh]
	 SCS Total Energy          =    -502.2684749806273317 [Eh]
	-----------------------------------------------------------

  Dipole Moment: [D]
     X:    -1.4472      Y:     1.1819      Z:     0.8320     Total:     2.0454

*** Psi4 exiting successfully. Buy a developer a beer!
