                               Psi4 1.4a2.dev612

  ==> Input File <==

--------------------------------------------------------------------------
#psi4
#
memory 32 gb

molecule  {
0 1
  O        1.0716460     0.4753830     0.0137820
  O        2.5311320    -1.1057930    -0.7123110
  C       -2.3693550    -0.0883010     0.2982860
  C       -3.5980660     0.7810210     0.4066790
  C       -1.2626340     0.3942960    -0.2965320
  C        0.0082920    -0.3313460    -0.5624280
  C       -2.5615160    -1.5246304     0.7301183
  C       -4.7090750     0.3554230    -0.5595870
  C        3.3545870     0.8742710     0.4380940
  C        2.3120420    -0.0450080    -0.1482500
  C        4.7580620     0.3036620     0.3135630
  H       -3.3290990     1.8240090     0.2046860
  H       -3.9789780     0.7461160     1.4360390
  H       -1.2730680     1.4248330    -0.6509560
  H        0.2030610    -0.4353830    -1.6357720
  H        0.0474490    -1.3311670    -0.1253770
  H       -2.7951440    -1.4155820     1.9226690
  H       -3.3106690    -2.0257820     0.3507100
  H       -1.6004590    -2.0681310     0.7873000
  H       -5.0436390    -0.6667330    -0.3605950
  H       -4.3535760     0.4008270    -1.5926810
  H       -5.5777020     1.0147490    -0.4669260
  H        3.2685340     1.8407540    -0.0713220
  H        3.0874670     1.0628020     1.4826470
  H        4.8339620    -0.6514900     0.8358700
  H        5.0104170     0.1293290    -0.7342450
  H        5.4905370     0.9935700     0.7404870
units angstrom
no_reorient  #important for SAPT in psi4, default
symmetry c1  #important for SAPT in psi4, default
}

set PROPERTIES_ORIGIN ["COM"]
properties('MP2/aug-cc-pvtz', properties = ['dipole'])
--------------------------------------------------------------------------

    Molecular point group: c1
  Charge       = 0
  Multiplicity = 1
  Basis Set: AUG-CC-PVTZ
    Blend: AUG-CC-PVTZ
  Basis Set: (AUG-CC-PVTZ AUX)
    Blend: AUG-CC-PVTZ-JKFIT

    Orbital Energies [Eh]
    ---------------------

    Doubly Occupied:

       1A    -20.597633     2A    -20.540952     3A    -11.375733
       4A    -11.286890     5A    -11.246414     6A    -11.242323
       7A    -11.229738     8A    -11.228442     9A    -11.224192
      10A    -11.220078    11A    -11.217962    12A     -1.448391
      13A     -1.347834    14A     -1.112828    15A     -1.064098
      16A     -1.022264    17A     -0.978666    18A     -0.922147
      19A     -0.879828    20A     -0.833775    21A     -0.767828
      22A     -0.725329    23A     -0.688834    24A     -0.680237
      25A     -0.661159    26A     -0.642247    27A     -0.625899
      28A     -0.612404    29A     -0.584831    30A     -0.579227
      31A     -0.554472    32A     -0.547396    33A     -0.534405
      34A     -0.520375    35A     -0.517490    36A     -0.513255
      37A     -0.494089    38A     -0.491613    39A     -0.485313
      40A     -0.465495    41A     -0.457424    42A     -0.444640
      43A     -0.345573

  @DF-RHF Final Energy:  -500.01527450945679

   => Energetics <=

    Nuclear Repulsion Energy =            603.0102397350600540
    One-Electron Energy =               -1876.1315727871178751
    Two-Electron Energy =                 773.1060585426009766
    Total Energy =                       -500.0152745094567308
  Basis Set: (AUG-CC-PVTZ AUX)
    Blend: AUG-CC-PVTZ-RI
    Molecular point group: c1

    Geometry (in Angstrom), charge = 0, multiplicity = 1:

       Center              X                  Y                   Z               Mass
    ------------   -----------------  -----------------  -----------------  -----------------
         O            1.075359113948     0.479235208255     0.023995297335    15.994914619570
         O            2.534845113948    -1.101940791745    -0.702097702665    15.994914619570
         C           -2.365641886052    -0.084448791745     0.308499297335    12.000000000000
         C           -3.594352886052     0.784873208255     0.416892297335    12.000000000000
         C           -1.258920886052     0.398148208255    -0.286318702665    12.000000000000
         C            0.012005113948    -0.327493791745    -0.552214702665    12.000000000000
         C           -2.557802886052    -1.520778191745     0.740331597335    12.000000000000
         C           -4.705361886052     0.359275208255    -0.549373702665    12.000000000000
         C            3.358300113948     0.878123208255     0.448307297335    12.000000000000
         C            2.315755113948    -0.041155791745    -0.138036702665    12.000000000000
         C            4.761775113948     0.307514208255     0.323776297335    12.000000000000
         H           -3.325385886052     1.827861208255     0.214899297335     1.007825032230
         H           -3.975264886052     0.749968208255     1.446252297335     1.007825032230
         H           -1.269354886052     1.428685208255    -0.640742702665     1.007825032230
         H            0.206774113948    -0.431530791745    -1.625558702665     1.007825032230
         H            0.051162113948    -1.327314791745    -0.115163702665     1.007825032230
         H           -2.791430886052    -1.411729791745     1.932882297335     1.007825032230
         H           -3.306955886052    -2.021929791745     0.360923297335     1.007825032230
         H           -1.596745886052    -2.064278791745     0.797513297335     1.007825032230
         H           -5.039925886052    -0.662880791745    -0.350381702665     1.007825032230
         H           -4.349862886052     0.404679208255    -1.582467702665     1.007825032230
         H           -5.573988886052     1.018601208255    -0.456712702665     1.007825032230
         H            3.272247113948     1.844606208255    -0.061108702665     1.007825032230
         H            3.091180113948     1.066654208255     1.492860297335     1.007825032230
         H            4.837675113948    -0.647637791745     0.846083297335     1.007825032230
         H            5.014130113948     0.133181208255    -0.724031702665     1.007825032230
         H            5.494250113948     0.997422208255     0.750700297335     1.007825032230

  Basis Set: AUG-CC-PVTZ
    Blend: AUG-CC-PVTZ
  Basis Set: (AUG-CC-PVTZ AUX)
    Blend: AUG-CC-PVTZ-JKFIT
	 Reference Energy          =    -500.0152745094567877 [Eh]
	 Singles Energy            =      -0.0000000000000000 [Eh]
	 Same-Spin Energy          =      -0.5100453879757446 [Eh]
	 Opposite-Spin Energy      =      -1.7178782535658033 [Eh]
	 Correlation Energy        =      -2.2279236415415480 [Eh]
	 Total Energy              =    -502.2431981509983530 [Eh]

	 ================> DF-SCS-MP2 Energies <==================
	-----------------------------------------------------------
	 SCS Same-Spin Scale       =       0.3333333333333333 [-]
	 SCS Opposite-Spin Scale   =       1.2000000000000000 [-]
	 SCS Same-Spin Energy      =      -0.1700151293252482 [Eh]
	 SCS Opposite-Spin Energy  =      -2.0614539042789639 [Eh]
	 SCS Correlation Energy    =      -2.2314690336042120 [Eh]
	 SCS Total Energy          =    -502.2467435430609726 [Eh]
	-----------------------------------------------------------

  Dipole Moment: [D]
     X:    -1.4419      Y:     1.1879      Z:     0.7280     Total:     2.0050

*** Psi4 exiting successfully. Buy a developer a beer!
