                               Psi4 1.4a2.dev612

  ==> Input File <==

--------------------------------------------------------------------------
#psi4
#
memory 32 gb

molecule  {
0 1
  O        1.0716460     0.4753830     0.0137820
  O        2.5311320    -1.1057930    -0.7123110
  C       -2.3693550    -0.0883010     0.2982860
  C       -3.5980660     0.7810210     0.4066790
  C       -1.2626340     0.3942960    -0.2965320
  C        0.0082920    -0.3313460    -0.5624280
  C       -2.5132090    -1.4745150     0.8629900
  C       -4.7090750     0.3554230    -0.5595870
  C        3.3545870     0.8742710     0.4380940
  C        2.3120420    -0.0450080    -0.1482500
  C        4.7580620     0.3036620     0.3135630
  H       -3.3290990     1.8240090     0.2046860
  H       -3.9789780     0.7461160     1.4360390
  H       -1.2379030     1.4549584    -0.5623226
  H        0.2030610    -0.4353830    -1.6357720
  H        0.0474490    -1.3311670    -0.1253770
  H       -2.7951440    -1.4155820     1.9226690
  H       -3.3106690    -2.0257820     0.3507100
  H       -1.6004590    -2.0681310     0.7873000
  H       -5.0436390    -0.6667330    -0.3605950
  H       -4.3535760     0.4008270    -1.5926810
  H       -5.5777020     1.0147490    -0.4669260
  H        3.2685340     1.8407540    -0.0713220
  H        3.0874670     1.0628020     1.4826470
  H        4.8339620    -0.6514900     0.8358700
  H        5.0104170     0.1293290    -0.7342450
  H        5.4905370     0.9935700     0.7404870
units angstrom
no_reorient  #important for SAPT in psi4, default
symmetry c1  #important for SAPT in psi4, default
}

set PROPERTIES_ORIGIN ["COM"]
properties('MP2/aug-cc-pvtz', properties = ['dipole'])
--------------------------------------------------------------------------

    Molecular point group: c1
  Charge       = 0
  Multiplicity = 1
  Basis Set: AUG-CC-PVTZ
    Blend: AUG-CC-PVTZ
  Basis Set: (AUG-CC-PVTZ AUX)
    Blend: AUG-CC-PVTZ-JKFIT

    Orbital Energies [Eh]
    ---------------------

    Doubly Occupied:

       1A    -20.597663     2A    -20.540943     3A    -11.375760
       4A    -11.286611     5A    -11.244115     6A    -11.242391
       7A    -11.228342     8A    -11.226390     9A    -11.223682
      10A    -11.219118    11A    -11.218006    12A     -1.448396
      13A     -1.347834    14A     -1.112389    15A     -1.064077
      16A     -1.021757    17A     -0.977922    18A     -0.919567
      19A     -0.879196    20A     -0.833412    21A     -0.768045
      22A     -0.722314    23A     -0.687371    24A     -0.680066
      25A     -0.660506    26A     -0.638124    27A     -0.623588
      28A     -0.605186    29A     -0.588563    30A     -0.574341
      31A     -0.552845    32A     -0.544654    33A     -0.533302
      34A     -0.522709    35A     -0.517820    36A     -0.514702
      37A     -0.511610    38A     -0.492535    39A     -0.483769
      40A     -0.465504    41A     -0.457887    42A     -0.444473
      43A     -0.345406

  @DF-RHF Final Energy:  -500.03773691436839

   => Energetics <=

    Nuclear Repulsion Energy =            603.0958157858221966
    One-Electron Energy =               -1876.3813223781405668
    Two-Electron Energy =                 773.2477696779499183
    Total Energy =                       -500.0377369143684518
  Basis Set: (AUG-CC-PVTZ AUX)
    Blend: AUG-CC-PVTZ-RI
    Molecular point group: c1

    Geometry (in Angstrom), charge = 0, multiplicity = 1:

       Center              X                  Y                   Z               Mass
    ------------   -----------------  -----------------  -----------------  -----------------
         O            1.071418915696     0.475188538737     0.013209741570    15.994914619570
         O            2.530904915696    -1.105987461263    -0.712883258430    15.994914619570
         C           -2.369582084304    -0.088495461263     0.297713741570    12.000000000000
         C           -3.598293084304     0.780826538737     0.406106741570    12.000000000000
         C           -1.262861084304     0.394101538737    -0.297104258430    12.000000000000
         C            0.008064915696    -0.331540461263    -0.563000258430    12.000000000000
         C           -2.513436084304    -1.474709461263     0.862417741570    12.000000000000
         C           -4.709302084304     0.355228538737    -0.560159258430    12.000000000000
         C            3.354359915696     0.874076538737     0.437521741570    12.000000000000
         C            2.311814915696    -0.045202461263    -0.148822258430    12.000000000000
         C            4.757834915696     0.303467538737     0.312990741570    12.000000000000
         H           -3.329326084304     1.823814538737     0.204113741570     1.007825032230
         H           -3.979205084304     0.745921538737     1.435466741570     1.007825032230
         H           -1.238130084304     1.454763938737    -0.562894858430     1.007825032230
         H            0.202833915696    -0.435577461263    -1.636344258430     1.007825032230
         H            0.047221915696    -1.331361461263    -0.125949258430     1.007825032230
         H           -2.795371084304    -1.415776461263     1.922096741570     1.007825032230
         H           -3.310896084304    -2.025976461263     0.350137741570     1.007825032230
         H           -1.600686084304    -2.068325461263     0.786727741570     1.007825032230
         H           -5.043866084304    -0.666927461263    -0.361167258430     1.007825032230
         H           -4.353803084304     0.400632538737    -1.593253258430     1.007825032230
         H           -5.577929084304     1.014554538737    -0.467498258430     1.007825032230
         H            3.268306915696     1.840559538737    -0.071894258430     1.007825032230
         H            3.087239915696     1.062607538737     1.482074741570     1.007825032230
         H            4.833734915696    -0.651684461263     0.835297741570     1.007825032230
         H            5.010189915696     0.129134538737    -0.734817258430     1.007825032230
         H            5.490309915696     0.993375538737     0.739914741570     1.007825032230

  Basis Set: AUG-CC-PVTZ
    Blend: AUG-CC-PVTZ
  Basis Set: (AUG-CC-PVTZ AUX)
    Blend: AUG-CC-PVTZ-JKFIT
	 Reference Energy          =    -500.0377369143683950 [Eh]
	 Singles Energy            =      -0.0000000000000000 [Eh]
	 Same-Spin Energy          =      -0.5097896322576060 [Eh]
	 Opposite-Spin Energy      =      -1.7168825921887003 [Eh]
	 Correlation Energy        =      -2.2266722244463062 [Eh]
	 Total Energy              =    -502.2644091388146990 [Eh]

	 ================> DF-SCS-MP2 Energies <==================
	-----------------------------------------------------------
	 SCS Same-Spin Scale       =       0.3333333333333333 [-]
	 SCS Opposite-Spin Scale   =       1.2000000000000000 [-]
	 SCS Same-Spin Energy      =      -0.1699298774192020 [Eh]
	 SCS Opposite-Spin Energy  =      -2.0602591106264403 [Eh]
	 SCS Correlation Energy    =      -2.2301889880456423 [Eh]
	 SCS Total Energy          =    -502.2679259024140492 [Eh]
	-----------------------------------------------------------

  Dipole Moment: [D]
     X:    -1.4076      Y:     1.1927      Z:     0.8819     Total:     2.0449

*** Psi4 exiting successfully. Buy a developer a beer!
