                               Psi4 1.4a2.dev612

  ==> Input File <==

--------------------------------------------------------------------------
#psi4
#
memory 32 gb

molecule  {
0 1
  O        1.0716460     0.4753830     0.0137820
  O        2.5311320    -1.1057930    -0.7123110
  C       -2.3693550    -0.0883010     0.2982860
  C       -3.5980660     0.7810210     0.4066790
  C       -1.2626340     0.3942960    -0.2965320
  C        0.0082920    -0.3313460    -0.5624280
  C       -2.5132090    -1.4745150     0.8629900
  C       -4.7090750     0.3554230    -0.5595870
  C        3.3386524     0.7791140     0.6132831
  C        2.3120420    -0.0450080    -0.1482500
  C        4.7580620     0.3036620     0.3135630
  H       -3.3290990     1.8240090     0.2046860
  H       -3.9789780     0.7461160     1.4360390
  H       -1.2730680     1.4248330    -0.6509560
  H        0.2030610    -0.4353830    -1.6357720
  H        0.0474490    -1.3311670    -0.1253770
  H       -2.7951440    -1.4155820     1.9226690
  H       -3.3106690    -2.0257820     0.3507100
  H       -1.6004590    -2.0681310     0.7873000
  H       -5.0436390    -0.6667330    -0.3605950
  H       -4.3535760     0.4008270    -1.5926810
  H       -5.5777020     1.0147490    -0.4669260
  H        3.2685340     1.8407540    -0.0713220
  H        3.0874670     1.0628020     1.4826470
  H        4.8339620    -0.6514900     0.8358700
  H        5.0104170     0.1293290    -0.7342450
  H        5.4905370     0.9935700     0.7404870
units angstrom
no_reorient  #important for SAPT in psi4, default
symmetry c1  #important for SAPT in psi4, default
}

set PROPERTIES_ORIGIN ["COM"]
properties('MP2/aug-cc-pvtz', properties = ['dipole'])
--------------------------------------------------------------------------

    Molecular point group: c1
  Charge       = 0
  Multiplicity = 1
  Basis Set: AUG-CC-PVTZ
    Blend: AUG-CC-PVTZ
  Basis Set: (AUG-CC-PVTZ AUX)
    Blend: AUG-CC-PVTZ-JKFIT

    Orbital Energies [Eh]
    ---------------------

    Doubly Occupied:

       1A    -20.597186     2A    -20.541190     3A    -11.378674
       4A    -11.286512     5A    -11.247760     6A    -11.244230
       7A    -11.228394     8A    -11.226480     9A    -11.223275
      10A    -11.221127    11A    -11.219175    12A     -1.448197
      13A     -1.347986    14A     -1.112489    15A     -1.064821
      16A     -1.022046    17A     -0.978023    18A     -0.919774
      19A     -0.881555    20A     -0.835023    21A     -0.772071
      22A     -0.728890    23A     -0.694616    24A     -0.677847
      25A     -0.664387    26A     -0.634684    27A     -0.621913
      28A     -0.600390    29A     -0.589088    30A     -0.575217
      31A     -0.552740    32A     -0.551105    33A     -0.542888
      34A     -0.532904    35A     -0.516127    36A     -0.514179
      37A     -0.511770    38A     -0.484120    39A     -0.466021
      40A     -0.463305    41A     -0.457090    42A     -0.437866
      43A     -0.345953

  @DF-RHF Final Energy:  -499.99684566924418

   => Energetics <=

    Nuclear Repulsion Energy =            602.9476240812771266
    One-Electron Energy =               -1875.9707578041447960
    Two-Electron Energy =                 773.0262880536234888
    Total Energy =                       -499.9968456692441805
  Basis Set: (AUG-CC-PVTZ AUX)
    Blend: AUG-CC-PVTZ-RI
    Molecular point group: c1

    Geometry (in Angstrom), charge = 0, multiplicity = 1:

       Center              X                  Y                   Z               Mass
    ------------   -----------------  -----------------  -----------------  -----------------
         O            1.072870764167     0.482697393804     0.000315773295    15.994914619570
         O            2.532356764167    -1.098478606196    -0.725777226705    15.994914619570
         C           -2.368130235833    -0.080986606196     0.284819773295    12.000000000000
         C           -3.596841235833     0.788335393804     0.393212773295    12.000000000000
         C           -1.261409235833     0.401610393804    -0.309998226705    12.000000000000
         C            0.009516764167    -0.324031606196    -0.575894226705    12.000000000000
         C           -2.511984235833    -1.467200606196     0.849523773295    12.000000000000
         C           -4.707850235833     0.362737393804    -0.573053226705    12.000000000000
         C            3.339877164167     0.786428393804     0.599816873295    12.000000000000
         C            2.313266764167    -0.037693606196    -0.161716226705    12.000000000000
         C            4.759286764167     0.310976393804     0.300096773295    12.000000000000
         H           -3.327874235833     1.831323393804     0.191219773295     1.007825032230
         H           -3.977753235833     0.753430393804     1.422572773295     1.007825032230
         H           -1.271843235833     1.432147393804    -0.664422226705     1.007825032230
         H            0.204285764167    -0.428068606196    -1.649238226705     1.007825032230
         H            0.048673764167    -1.323852606196    -0.138843226705     1.007825032230
         H           -2.793919235833    -1.408267606196     1.909202773295     1.007825032230
         H           -3.309444235833    -2.018467606196     0.337243773295     1.007825032230
         H           -1.599234235833    -2.060816606196     0.773833773295     1.007825032230
         H           -5.042414235833    -0.659418606196    -0.374061226705     1.007825032230
         H           -4.352351235833     0.408141393804    -1.606147226705     1.007825032230
         H           -5.576477235833     1.022063393804    -0.480392226705     1.007825032230
         H            3.269758764167     1.848068393804    -0.084788226705     1.007825032230
         H            3.088691764167     1.070116393804     1.469180773295     1.007825032230
         H            4.835186764167    -0.644175606196     0.822403773295     1.007825032230
         H            5.011641764167     0.136643393804    -0.747711226705     1.007825032230
         H            5.491761764167     1.000884393804     0.727020773295     1.007825032230

  Basis Set: AUG-CC-PVTZ
    Blend: AUG-CC-PVTZ
  Basis Set: (AUG-CC-PVTZ AUX)
    Blend: AUG-CC-PVTZ-JKFIT
	 Reference Energy          =    -499.9968456692441805 [Eh]
	 Singles Energy            =      -0.0000000000000000 [Eh]
	 Same-Spin Energy          =      -0.5103226905421937 [Eh]
	 Opposite-Spin Energy      =      -1.7187939912721761 [Eh]
	 Correlation Energy        =      -2.2291166818143697 [Eh]
	 Total Energy              =    -502.2259623510585698 [Eh]

	 ================> DF-SCS-MP2 Energies <==================
	-----------------------------------------------------------
	 SCS Same-Spin Scale       =       0.3333333333333333 [-]
	 SCS Opposite-Spin Scale   =       1.2000000000000000 [-]
	 SCS Same-Spin Energy      =      -0.1701075635140646 [Eh]
	 SCS Opposite-Spin Energy  =      -2.0625527895266114 [Eh]
	 SCS Correlation Energy    =      -2.2326603530406759 [Eh]
	 SCS Total Energy          =    -502.2295060222848520 [Eh]
	-----------------------------------------------------------

  Dipole Moment: [D]
     X:    -1.4151      Y:     1.1032      Z:     0.8967     Total:     2.0059

*** Psi4 exiting successfully. Buy a developer a beer!
