                               Psi4 1.4a2.dev612

  ==> Input File <==

--------------------------------------------------------------------------
#psi4
#
memory 32 gb

molecule  {
0 1
  O        1.0716460     0.4753830     0.0137820
  O        2.5311320    -1.1057930    -0.7123110
  C       -2.3693550    -0.0883010     0.2982860
  C       -3.5980660     0.7810210     0.4066790
  C       -1.2626340     0.3942960    -0.2965320
  C        0.0082920    -0.3313460    -0.5624280
  C       -2.5293113    -1.4912201     0.8186994
  C       -4.7090750     0.3554230    -0.5595870
  C        3.3545870     0.8742710     0.4380940
  C        2.3120420    -0.0450080    -0.1482500
  C        4.7580620     0.3036620     0.3135630
  H       -3.3290990     1.8240090     0.2046860
  H       -3.9789780     0.7461160     1.4360390
  H       -1.2730680     1.4248330    -0.6509560
  H        0.2030610    -0.4353830    -1.6357720
  H        0.0474490    -1.3311670    -0.1253770
  H       -2.7951440    -1.4155820     1.9226690
  H       -3.3106690    -2.0257820     0.3507100
  H       -1.6004590    -2.0681310     0.7873000
  H       -5.0436390    -0.6667330    -0.3605950
  H       -4.3535760     0.4008270    -1.5926810
  H       -5.5777020     1.0147490    -0.4669260
  H        3.2685340     1.8407540    -0.0713220
  H        3.0874670     1.0628020     1.4826470
  H        4.8339620    -0.6514900     0.8358700
  H        5.0104170     0.1293290    -0.7342450
  H        5.4905370     0.9935700     0.7404870
units angstrom
no_reorient  #important for SAPT in psi4, default
symmetry c1  #important for SAPT in psi4, default
}

set PROPERTIES_ORIGIN ["COM"]
properties('MP2/aug-cc-pvtz', properties = ['dipole'])
--------------------------------------------------------------------------

    Molecular point group: c1
  Charge       = 0
  Multiplicity = 1
  Basis Set: AUG-CC-PVTZ
    Blend: AUG-CC-PVTZ
  Basis Set: (AUG-CC-PVTZ AUX)
    Blend: AUG-CC-PVTZ-JKFIT

    Orbital Energies [Eh]
    ---------------------

    Doubly Occupied:

       1A    -20.597358     2A    -20.540782     3A    -11.375546
       4A    -11.286553     5A    -11.244532     6A    -11.242205
       7A    -11.228386     8A    -11.226782     9A    -11.223471
      10A    -11.219492    11A    -11.217874    12A     -1.448157
      13A     -1.347630    14A     -1.112579    15A     -1.063935
      16A     -1.021900    17A     -0.977923    18A     -0.920053
      19A     -0.879286    20A     -0.833553    21A     -0.767465
      22A     -0.722910    23A     -0.687957    24A     -0.680125
      25A     -0.660222    26A     -0.639272    27A     -0.624196
      28A     -0.607057    29A     -0.586145    30A     -0.574037
      31A     -0.554158    32A     -0.546699    33A     -0.534876
      34A     -0.520968    35A     -0.517167    36A     -0.512563
      37A     -0.509835    38A     -0.492278    39A     -0.484501
      40A     -0.465747    41A     -0.457342    42A     -0.444473
      43A     -0.346242

  @DF-RHF Final Energy:  -500.03583127116963

   => Energetics <=

    Nuclear Repulsion Energy =            603.0756200756286489
    One-Electron Energy =               -1876.3344322248074150
    Two-Electron Energy =                 773.2229808780091389
    Total Energy =                       -500.0358312711696271
  Basis Set: (AUG-CC-PVTZ AUX)
    Blend: AUG-CC-PVTZ-RI
    Molecular point group: c1

    Geometry (in Angstrom), charge = 0, multiplicity = 1:

       Center              X                  Y                   Z               Mass
    ------------   -----------------  -----------------  -----------------  -----------------
         O            1.072883654662     0.476667078840     0.017186387253    15.994914619570
         O            2.532369654662    -1.104508921160    -0.708906612747    15.994914619570
         C           -2.368117345338    -0.087016921160     0.301690387253    12.000000000000
         C           -3.596828345338     0.782305078840     0.410083387253    12.000000000000
         C           -1.261396345338     0.395580078840    -0.293127612747    12.000000000000
         C            0.009529654662    -0.330061921160    -0.559023612747    12.000000000000
         C           -2.528073645338    -1.489936021160     0.822103787253    12.000000000000
         C           -4.707837345338     0.356707078840    -0.556182612747    12.000000000000
         C            3.355824654662     0.875555078840     0.441498387253    12.000000000000
         C            2.313279654662    -0.043723921160    -0.144845612747    12.000000000000
         C            4.759299654662     0.304946078840     0.316967387253    12.000000000000
         H           -3.327861345338     1.825293078840     0.208090387253     1.007825032230
         H           -3.977740345338     0.747400078840     1.439443387253     1.007825032230
         H           -1.271830345338     1.426117078840    -0.647551612747     1.007825032230
         H            0.204298654662    -0.434098921160    -1.632367612747     1.007825032230
         H            0.048686654662    -1.329882921160    -0.121972612747     1.007825032230
         H           -2.793906345338    -1.414297921160     1.926073387253     1.007825032230
         H           -3.309431345338    -2.024497921160     0.354114387253     1.007825032230
         H           -1.599221345338    -2.066846921160     0.790704387253     1.007825032230
         H           -5.042401345338    -0.665448921160    -0.357190612747     1.007825032230
         H           -4.352338345338     0.402111078840    -1.589276612747     1.007825032230
         H           -5.576464345338     1.016033078840    -0.463521612747     1.007825032230
         H            3.269771654662     1.842038078840    -0.067917612747     1.007825032230
         H            3.088704654662     1.064086078840     1.486051387253     1.007825032230
         H            4.835199654662    -0.650205921160     0.839274387253     1.007825032230
         H            5.011654654662     0.130613078840    -0.730840612747     1.007825032230
         H            5.491774654662     0.994854078840     0.743891387253     1.007825032230

  Basis Set: AUG-CC-PVTZ
    Blend: AUG-CC-PVTZ
  Basis Set: (AUG-CC-PVTZ AUX)
    Blend: AUG-CC-PVTZ-JKFIT
	 Reference Energy          =    -500.0358312711696271 [Eh]
	 Singles Energy            =      -0.0000000000000000 [Eh]
	 Same-Spin Energy          =      -0.5097879977154339 [Eh]
	 Opposite-Spin Energy      =      -1.7169390873458796 [Eh]
	 Correlation Energy        =      -2.2267270850613134 [Eh]
	 Total Energy              =    -502.2625583562309544 [Eh]

	 ================> DF-SCS-MP2 Energies <==================
	-----------------------------------------------------------
	 SCS Same-Spin Scale       =       0.3333333333333333 [-]
	 SCS Opposite-Spin Scale   =       1.2000000000000000 [-]
	 SCS Same-Spin Energy      =      -0.1699293325718113 [Eh]
	 SCS Opposite-Spin Energy  =      -2.0603269048150556 [Eh]
	 SCS Correlation Energy    =      -2.2302562373868668 [Eh]
	 SCS Total Energy          =    -502.2660875085564953 [Eh]
	-----------------------------------------------------------

  Dipole Moment: [D]
     X:    -1.4508      Y:     1.1781      Z:     0.7998     Total:     2.0328

*** Psi4 exiting successfully. Buy a developer a beer!
