                               Psi4 1.4a2.dev612

  ==> Input File <==

--------------------------------------------------------------------------
#psi4
#
memory 32 gb

molecule  {
0 1
  O        1.0716460     0.4753830     0.0137820
  O        2.5311320    -1.1057930    -0.7123110
  C       -2.3693550    -0.0883010     0.2982860
  C       -3.5980660     0.7810210     0.4066790
  C       -1.2626340     0.3942960    -0.2965320
  C        0.0082920    -0.3313460    -0.5624280
  C       -2.5132090    -1.4745150     0.8629900
  C       -4.7090750     0.3554230    -0.5595870
  C        3.3426360     0.8029032     0.5694858
  C        2.3120420    -0.0450080    -0.1482500
  C        4.7580620     0.3036620     0.3135630
  H       -3.3290990     1.8240090     0.2046860
  H       -3.9789780     0.7461160     1.4360390
  H       -1.2730680     1.4248330    -0.6509560
  H        0.2030610    -0.4353830    -1.6357720
  H        0.0474490    -1.3311670    -0.1253770
  H       -2.7951440    -1.4155820     1.9226690
  H       -3.3106690    -2.0257820     0.3507100
  H       -1.6004590    -2.0681310     0.7873000
  H       -5.0436390    -0.6667330    -0.3605950
  H       -4.3535760     0.4008270    -1.5926810
  H       -5.5777020     1.0147490    -0.4669260
  H        3.2685340     1.8407540    -0.0713220
  H        3.0874670     1.0628020     1.4826470
  H        4.8339620    -0.6514900     0.8358700
  H        5.0104170     0.1293290    -0.7342450
  H        5.4905370     0.9935700     0.7404870
units angstrom
no_reorient  #important for SAPT in psi4, default
symmetry c1  #important for SAPT in psi4, default
}

set PROPERTIES_ORIGIN ["COM"]
properties('MP2/aug-cc-pvtz', properties = ['dipole'])
--------------------------------------------------------------------------

    Molecular point group: c1
  Charge       = 0
  Multiplicity = 1
  Basis Set: AUG-CC-PVTZ
    Blend: AUG-CC-PVTZ
  Basis Set: (AUG-CC-PVTZ AUX)
    Blend: AUG-CC-PVTZ-JKFIT

    Orbital Energies [Eh]
    ---------------------

    Doubly Occupied:

       1A    -20.597233     2A    -20.540952     3A    -11.377314
       4A    -11.286508     5A    -11.245453     6A    -11.244244
       7A    -11.228409     8A    -11.226465     9A    -11.223285
      10A    -11.219692    11A    -11.219190    12A     -1.448153
      13A     -1.347799    14A     -1.112503    15A     -1.064579
      16A     -1.021976    17A     -0.978023    18A     -0.919757
      19A     -0.880423    20A     -0.834325    21A     -0.769916
      22A     -0.726532    23A     -0.692091    24A     -0.678389
      25A     -0.663556    26A     -0.635947    27A     -0.622011
      28A     -0.602627    29A     -0.588746    30A     -0.574827
      31A     -0.552641    32A     -0.547238    33A     -0.539487
      34A     -0.532147    35A     -0.516681    36A     -0.514937
      37A     -0.511951    38A     -0.484172    39A     -0.471259
      40A     -0.465526    41A     -0.457186    42A     -0.441707
      43A     -0.345997

  @DF-RHF Final Energy:  -500.01498743836231

   => Energetics <=

    Nuclear Repulsion Energy =            603.0257459606798420
    One-Electron Energy =               -1876.1777599805072896
    Two-Electron Energy =                 773.1370265814651930
    Total Energy =                       -500.0149874383622546
  Basis Set: (AUG-CC-PVTZ AUX)
    Blend: AUG-CC-PVTZ-RI
    Molecular point group: c1

    Geometry (in Angstrom), charge = 0, multiplicity = 1:

       Center              X                  Y                   Z               Mass
    ------------   -----------------  -----------------  -----------------  -----------------
         O            1.072564559185     0.480868803690     0.003682313986    15.994914619570
         O            2.532050559185    -1.100307196310    -0.722410686014    15.994914619570
         C           -2.368436440815    -0.082815196310     0.288186313986    12.000000000000
         C           -3.597147440815     0.786506803690     0.396579313986    12.000000000000
         C           -1.261715440815     0.399781803690    -0.306631686014    12.000000000000
         C            0.009210559185    -0.325860196310    -0.572527686014    12.000000000000
         C           -2.512290440815    -1.469029196310     0.852890313986    12.000000000000
         C           -4.708156440815     0.360908803690    -0.569686686014    12.000000000000
         C            3.343554559185     0.808389003690     0.559386113986    12.000000000000
         C            2.312960559185    -0.039522196310    -0.158349686014    12.000000000000
         C            4.758980559185     0.309147803690     0.303463313986    12.000000000000
         H           -3.328180440815     1.829494803690     0.194586313986     1.007825032230
         H           -3.978059440815     0.751601803690     1.425939313986     1.007825032230
         H           -1.272149440815     1.430318803690    -0.661055686014     1.007825032230
         H            0.203979559185    -0.429897196310    -1.645871686014     1.007825032230
         H            0.048367559185    -1.325681196310    -0.135476686014     1.007825032230
         H           -2.794225440815    -1.410096196310     1.912569313986     1.007825032230
         H           -3.309750440815    -2.020296196310     0.340610313986     1.007825032230
         H           -1.599540440815    -2.062645196310     0.777200313986     1.007825032230
         H           -5.042720440815    -0.661247196310    -0.370694686014     1.007825032230
         H           -4.352657440815     0.406312803690    -1.602780686014     1.007825032230
         H           -5.576783440815     1.020234803690    -0.477025686014     1.007825032230
         H            3.269452559185     1.846239803690    -0.081421686014     1.007825032230
         H            3.088385559185     1.068287803690     1.472547313986     1.007825032230
         H            4.834880559185    -0.646004196310     0.825770313986     1.007825032230
         H            5.011335559185     0.134814803690    -0.744344686014     1.007825032230
         H            5.491455559185     0.999055803690     0.730387313986     1.007825032230

  Basis Set: AUG-CC-PVTZ
    Blend: AUG-CC-PVTZ
  Basis Set: (AUG-CC-PVTZ AUX)
    Blend: AUG-CC-PVTZ-JKFIT
	 Reference Energy          =    -500.0149874383623114 [Eh]
	 Singles Energy            =      -0.0000000000000000 [Eh]
	 Same-Spin Energy          =      -0.5100791875626435 [Eh]
	 Opposite-Spin Energy      =      -1.7179121768348877 [Eh]
	 Correlation Energy        =      -2.2279913643975311 [Eh]
	 Total Energy              =    -502.2429788027598647 [Eh]

	 ================> DF-SCS-MP2 Energies <==================
	-----------------------------------------------------------
	 SCS Same-Spin Scale       =       0.3333333333333333 [-]
	 SCS Opposite-Spin Scale   =       1.2000000000000000 [-]
	 SCS Same-Spin Energy      =      -0.1700263958542145 [Eh]
	 SCS Opposite-Spin Energy  =      -2.0614946122018654 [Eh]
	 SCS Correlation Energy    =      -2.2315210080560797 [Eh]
	 SCS Total Energy          =    -502.2465084464183747 [Eh]
	-----------------------------------------------------------

  Dipole Moment: [D]
     X:    -1.4278      Y:     1.1301      Z:     0.8846     Total:     2.0244

*** Psi4 exiting successfully. Buy a developer a beer!
