                               Psi4 1.4a2.dev612

  ==> Input File <==

--------------------------------------------------------------------------
#psi4
#
memory 32 gb

molecule  {
0 1
  O        1.0716460     0.4753830     0.0137820
  O        2.5311320    -1.1057930    -0.7123110
  C       -2.3693550    -0.0883010     0.2982860
  C       -3.5980660     0.7810210     0.4066790
  C       -1.2626340     0.3942960    -0.2965320
  C        0.0082920    -0.3313460    -0.5624280
  C       -2.5132090    -1.4745150     0.8629900
  C       -4.7090750     0.3554230    -0.5595870
  C        3.3545870     0.8742710     0.4380940
  C        2.3120420    -0.0450080    -0.1482500
  C        4.7580620     0.3036620     0.3135630
  H       -3.3290990     1.8240090     0.2046860
  H       -3.9789780     0.7461160     1.4360390
  H       -1.1675731     1.5152091    -0.3850557
  H        0.2030610    -0.4353830    -1.6357720
  H        0.0474490    -1.3311670    -0.1253770
  H       -2.7951440    -1.4155820     1.9226690
  H       -3.3106690    -2.0257820     0.3507100
  H       -1.6004590    -2.0681310     0.7873000
  H       -5.0436390    -0.6667330    -0.3605950
  H       -4.3535760     0.4008270    -1.5926810
  H       -5.5777020     1.0147490    -0.4669260
  H        3.2685340     1.8407540    -0.0713220
  H        3.0874670     1.0628020     1.4826470
  H        4.8339620    -0.6514900     0.8358700
  H        5.0104170     0.1293290    -0.7342450
  H        5.4905370     0.9935700     0.7404870
units angstrom
no_reorient  #important for SAPT in psi4, default
symmetry c1  #important for SAPT in psi4, default
}

set PROPERTIES_ORIGIN ["COM"]
properties('MP2/aug-cc-pvtz', properties = ['dipole'])
--------------------------------------------------------------------------

    Molecular point group: c1
  Charge       = 0
  Multiplicity = 1
  Basis Set: AUG-CC-PVTZ
    Blend: AUG-CC-PVTZ
  Basis Set: (AUG-CC-PVTZ AUX)
    Blend: AUG-CC-PVTZ-JKFIT

    Orbital Energies [Eh]
    ---------------------

    Doubly Occupied:

       1A    -20.598221     2A    -20.541190     3A    -11.376118
       4A    -11.286801     5A    -11.244863     6A    -11.242687
       7A    -11.228373     8A    -11.226925     9A    -11.226879
      10A    -11.219198    11A    -11.218211    12A     -1.448811
      13A     -1.348175    14A     -1.112261    15A     -1.064344
      16A     -1.021549    17A     -0.978021    18A     -0.919073
      19A     -0.879383    20A     -0.833031    21A     -0.768902
      22A     -0.719880    23A     -0.685957    24A     -0.679955
      25A     -0.660455    26A     -0.636408    27A     -0.623431
      28A     -0.604470    29A     -0.589137    30A     -0.574487
      31A     -0.553091    32A     -0.544904    33A     -0.532735
      34A     -0.523064    35A     -0.517809    36A     -0.515062
      37A     -0.509603    38A     -0.492922    39A     -0.483639
      40A     -0.465095    41A     -0.458595    42A     -0.444283
      43A     -0.343412

  @DF-RHF Final Energy:  -500.03237239271476

   => Energetics <=

    Nuclear Repulsion Energy =            603.0227765783722589
    One-Electron Energy =               -1876.2274875409877950
    Two-Electron Energy =                 773.1723385699007167
    Total Energy =                       -500.0323723927148194
  Basis Set: (AUG-CC-PVTZ AUX)
    Blend: AUG-CC-PVTZ-RI
    Molecular point group: c1

    Geometry (in Angstrom), charge = 0, multiplicity = 1:

       Center              X                  Y                   Z               Mass
    ------------   -----------------  -----------------  -----------------  -----------------
         O            1.070964890009     0.474799580904     0.012065367325    15.994914619570
         O            2.530450890009    -1.106376419096    -0.714027632675    15.994914619570
         C           -2.370036109991    -0.088884419096     0.296569367325    12.000000000000
         C           -3.598747109991     0.780437580904     0.404962367325    12.000000000000
         C           -1.263315109991     0.393712580904    -0.298248632675    12.000000000000
         C            0.007610890009    -0.331929419096    -0.564144632675    12.000000000000
         C           -2.513890109991    -1.475098419096     0.861273367325    12.000000000000
         C           -4.709756109991     0.354839580904    -0.561303632675    12.000000000000
         C            3.353905890009     0.873687580904     0.436377367325    12.000000000000
         C            2.311360890009    -0.045591419096    -0.149966632675    12.000000000000
         C            4.757380890009     0.303078580904     0.311846367325    12.000000000000
         H           -3.329780109991     1.823425580904     0.202969367325     1.007825032230
         H           -3.979659109991     0.745532580904     1.434322367325     1.007825032230
         H           -1.168254209991     1.514625680904    -0.386772332675     1.007825032230
         H            0.202379890009    -0.435966419096    -1.637488632675     1.007825032230
         H            0.046767890009    -1.331750419096    -0.127093632675     1.007825032230
         H           -2.795825109991    -1.416165419096     1.920952367325     1.007825032230
         H           -3.311350109991    -2.026365419096     0.348993367325     1.007825032230
         H           -1.601140109991    -2.068714419096     0.785583367325     1.007825032230
         H           -5.044320109991    -0.667316419096    -0.362311632675     1.007825032230
         H           -4.354257109991     0.400243580904    -1.594397632675     1.007825032230
         H           -5.578383109991     1.014165580904    -0.468642632675     1.007825032230
         H            3.267852890009     1.840170580904    -0.073038632675     1.007825032230
         H            3.086785890009     1.062218580904     1.480930367325     1.007825032230
         H            4.833280890009    -0.652073419096     0.834153367325     1.007825032230
         H            5.009735890009     0.128745580904    -0.735961632675     1.007825032230
         H            5.489855890009     0.992986580904     0.738770367325     1.007825032230

  Basis Set: AUG-CC-PVTZ
    Blend: AUG-CC-PVTZ
  Basis Set: (AUG-CC-PVTZ AUX)
    Blend: AUG-CC-PVTZ-JKFIT
	 Reference Energy          =    -500.0323723927147626 [Eh]
	 Singles Energy            =      -0.0000000000000000 [Eh]
	 Same-Spin Energy          =      -0.5100624933294833 [Eh]
	 Opposite-Spin Energy      =      -1.7175459172701524 [Eh]
	 Correlation Energy        =      -2.2276084105996357 [Eh]
	 Total Energy              =    -502.2599808033144200 [Eh]

	 ================> DF-SCS-MP2 Energies <==================
	-----------------------------------------------------------
	 SCS Same-Spin Scale       =       0.3333333333333333 [-]
	 SCS Opposite-Spin Scale   =       1.2000000000000000 [-]
	 SCS Same-Spin Energy      =      -0.1700208311098277 [Eh]
	 SCS Opposite-Spin Energy  =      -2.0610551007241829 [Eh]
	 SCS Correlation Energy    =      -2.2310759318340105 [Eh]
	 SCS Total Energy          =    -502.2634483245487900 [Eh]
	-----------------------------------------------------------

  Dipole Moment: [D]
     X:    -1.3487      Y:     1.1802      Z:     0.9959     Total:     2.0503

*** Psi4 exiting successfully. Buy a developer a beer!
