                               Psi4 1.4a2.dev612

  ==> Input File <==

--------------------------------------------------------------------------
#psi4
#
memory 32 gb

molecule  {
0 1
  O        1.0716460     0.4753830     0.0137820
  O        2.5311320    -1.1057930    -0.7123110
  C       -2.3693550    -0.0883010     0.2982860
  C       -3.5980660     0.7810210     0.4066790
  C       -1.2626340     0.3942960    -0.2965320
  C        0.0082920    -0.3313460    -0.5624280
  C       -2.5132090    -1.4745150     0.8629900
  C       -4.7090750     0.3554230    -0.5595870
  C        3.3545870     0.8742710     0.4380940
  C        2.3120420    -0.0450080    -0.1482500
  C        4.7580620     0.3036620     0.3135630
  H       -3.3290990     1.8240090     0.2046860
  H       -3.9789780     0.7461160     1.4360390
  H       -1.2027381     1.4850837    -0.4736891
  H        0.2030610    -0.4353830    -1.6357720
  H        0.0474490    -1.3311670    -0.1253770
  H       -2.7951440    -1.4155820     1.9226690
  H       -3.3106690    -2.0257820     0.3507100
  H       -1.6004590    -2.0681310     0.7873000
  H       -5.0436390    -0.6667330    -0.3605950
  H       -4.3535760     0.4008270    -1.5926810
  H       -5.5777020     1.0147490    -0.4669260
  H        3.2685340     1.8407540    -0.0713220
  H        3.0874670     1.0628020     1.4826470
  H        4.8339620    -0.6514900     0.8358700
  H        5.0104170     0.1293290    -0.7342450
  H        5.4905370     0.9935700     0.7404870
units angstrom
no_reorient  #important for SAPT in psi4, default
symmetry c1  #important for SAPT in psi4, default
}

set PROPERTIES_ORIGIN ["COM"]
properties('MP2/aug-cc-pvtz', properties = ['dipole'])
--------------------------------------------------------------------------

    Molecular point group: c1
  Charge       = 0
  Multiplicity = 1
  Basis Set: AUG-CC-PVTZ
    Blend: AUG-CC-PVTZ
  Basis Set: (AUG-CC-PVTZ AUX)
    Blend: AUG-CC-PVTZ-JKFIT

    Orbital Energies [Eh]
    ---------------------

    Doubly Occupied:

       1A    -20.597970     2A    -20.541087     3A    -11.375962
       4A    -11.286705     5A    -11.244320     6A    -11.242557
       7A    -11.228329     8A    -11.226558     9A    -11.224906
      10A    -11.219116    11A    -11.218121    12A     -1.448628
      13A     -1.348027    14A     -1.112304    15A     -1.064223
      16A     -1.021670    17A     -0.977939    18A     -0.919361
      19A     -0.879281    20A     -0.833236    21A     -0.768543
      22A     -0.721309    23A     -0.686714    24A     -0.680047
      25A     -0.660607    26A     -0.637373    27A     -0.623484
      28A     -0.604949    29A     -0.588937    30A     -0.574361
      31A     -0.552931    32A     -0.544765    33A     -0.532957
      34A     -0.523011    35A     -0.517901    36A     -0.514897
      37A     -0.510812    38A     -0.492755    39A     -0.483675
      40A     -0.465318    41A     -0.458312    42A     -0.444427
      43A     -0.344497

  @DF-RHF Final Energy:  -500.03582776696021

   => Energetics <=

    Nuclear Repulsion Energy =            603.0762302866411346
    One-Electron Energy =               -1876.3383551117281058
    Two-Electron Energy =                 773.2262970581268746
    Total Energy =                       -500.0358277669602103
  Basis Set: (AUG-CC-PVTZ AUX)
    Blend: AUG-CC-PVTZ-RI
    Molecular point group: c1

    Geometry (in Angstrom), charge = 0, multiplicity = 1:

       Center              X                  Y                   Z               Mass
    ------------   -----------------  -----------------  -----------------  -----------------
         O            1.071191903175     0.474994060143     0.012637554125    15.994914619570
         O            2.530677903175    -1.106181939857    -0.713455445875    15.994914619570
         C           -2.369809096825    -0.088689939857     0.297141554125    12.000000000000
         C           -3.598520096825     0.780632060143     0.405534554125    12.000000000000
         C           -1.263088096825     0.393907060143    -0.297676445875    12.000000000000
         C            0.007837903175    -0.331734939857    -0.563572445875    12.000000000000
         C           -2.513663096825    -1.474903939857     0.861845554125    12.000000000000
         C           -4.709529096825     0.355034060143    -0.560731445875    12.000000000000
         C            3.354132903175     0.873882060143     0.436949554125    12.000000000000
         C            2.311587903175    -0.045396939857    -0.149394445875    12.000000000000
         C            4.757607903175     0.303273060143     0.312418554125    12.000000000000
         H           -3.329553096825     1.823620060143     0.203541554125     1.007825032230
         H           -3.979432096825     0.745727060143     1.434894554125     1.007825032230
         H           -1.203192196825     1.484694760143    -0.474833545875     1.007825032230
         H            0.202606903175    -0.435771939857    -1.636916445875     1.007825032230
         H            0.046994903175    -1.331555939857    -0.126521445875     1.007825032230
         H           -2.795598096825    -1.415970939857     1.921524554125     1.007825032230
         H           -3.311123096825    -2.026170939857     0.349565554125     1.007825032230
         H           -1.600913096825    -2.068519939857     0.786155554125     1.007825032230
         H           -5.044093096825    -0.667121939857    -0.361739445875     1.007825032230
         H           -4.354030096825     0.400438060143    -1.593825445875     1.007825032230
         H           -5.578156096825     1.014360060143    -0.468070445875     1.007825032230
         H            3.268079903175     1.840365060143    -0.072466445875     1.007825032230
         H            3.087012903175     1.062413060143     1.481502554125     1.007825032230
         H            4.833507903175    -0.651878939857     0.834725554125     1.007825032230
         H            5.009962903175     0.128940060143    -0.735389445875     1.007825032230
         H            5.490082903175     0.993181060143     0.739342554125     1.007825032230

  Basis Set: AUG-CC-PVTZ
    Blend: AUG-CC-PVTZ
  Basis Set: (AUG-CC-PVTZ AUX)
    Blend: AUG-CC-PVTZ-JKFIT
	 Reference Energy          =    -500.0358277669602103 [Eh]
	 Singles Energy            =      -0.0000000000000000 [Eh]
	 Same-Spin Energy          =      -0.5098921327638271 [Eh]
	 Opposite-Spin Energy      =      -1.7171203209948067 [Eh]
	 Correlation Energy        =      -2.2270124537586335 [Eh]
	 Total Energy              =    -502.2628402207188287 [Eh]

	 ================> DF-SCS-MP2 Energies <==================
	-----------------------------------------------------------
	 SCS Same-Spin Scale       =       0.3333333333333333 [-]
	 SCS Opposite-Spin Scale   =       1.2000000000000000 [-]
	 SCS Same-Spin Energy      =      -0.1699640442546090 [Eh]
	 SCS Opposite-Spin Energy  =      -2.0605443851937681 [Eh]
	 SCS Correlation Energy    =      -2.2305084294483772 [Eh]
	 SCS Total Energy          =    -502.2663361964085880 [Eh]
	-----------------------------------------------------------

  Dipole Moment: [D]
     X:    -1.3747      Y:     1.1920      Z:     0.9370     Total:     2.0467

*** Psi4 exiting successfully. Buy a developer a beer!
