                               Psi4 1.4a2.dev612

  ==> Input File <==

--------------------------------------------------------------------------
#psi4
#
memory 32 gb

molecule  {
0 1
  O        1.0716460     0.4753830     0.0137820
  O        2.5311320    -1.1057930    -0.7123110
  C       -2.3693550    -0.0883010     0.2982860
  C       -3.5980660     0.7810210     0.4066790
  C       -1.2626340     0.3942960    -0.2965320
  C        0.0082920    -0.3313460    -0.5624280
  C       -2.6098230    -1.5747457     0.5972466
  C       -4.7090750     0.3554230    -0.5595870
  C        3.3545870     0.8742710     0.4380940
  C        2.3120420    -0.0450080    -0.1482500
  C        4.7580620     0.3036620     0.3135630
  H       -3.3290990     1.8240090     0.2046860
  H       -3.9789780     0.7461160     1.4360390
  H       -1.2730680     1.4248330    -0.6509560
  H        0.2030610    -0.4353830    -1.6357720
  H        0.0474490    -1.3311670    -0.1253770
  H       -2.7951440    -1.4155820     1.9226690
  H       -3.3106690    -2.0257820     0.3507100
  H       -1.6004590    -2.0681310     0.7873000
  H       -5.0436390    -0.6667330    -0.3605950
  H       -4.3535760     0.4008270    -1.5926810
  H       -5.5777020     1.0147490    -0.4669260
  H        3.2685340     1.8407540    -0.0713220
  H        3.0874670     1.0628020     1.4826470
  H        4.8339620    -0.6514900     0.8358700
  H        5.0104170     0.1293290    -0.7342450
  H        5.4905370     0.9935700     0.7404870
units angstrom
no_reorient  #important for SAPT in psi4, default
symmetry c1  #important for SAPT in psi4, default
}

set PROPERTIES_ORIGIN ["COM"]
properties('MP2/aug-cc-pvtz', properties = ['dipole'])
--------------------------------------------------------------------------

    Molecular point group: c1
  Charge       = 0
  Multiplicity = 1
  Basis Set: AUG-CC-PVTZ
    Blend: AUG-CC-PVTZ
  Basis Set: (AUG-CC-PVTZ AUX)
    Blend: AUG-CC-PVTZ-JKFIT

    Orbital Energies [Eh]
    ---------------------

    Doubly Occupied:

       1A    -20.598422     2A    -20.541479     3A    -11.376288
       4A    -11.287950     5A    -11.252406     6A    -11.242703
       7A    -11.239525     8A    -11.228879     9A    -11.226087
      10A    -11.221004    11A    -11.218249    12A     -1.449083
      13A     -1.348443    14A     -1.113439    15A     -1.064589
      16A     -1.023189    17A     -0.982722    18A     -0.928575
      19A     -0.881085    20A     -0.834562    21A     -0.769222
      22A     -0.735186    23A     -0.691853    24A     -0.680185
      25A     -0.665756    26A     -0.647873    27A     -0.629202
      28A     -0.617208    29A     -0.587736    30A     -0.583233
      31A     -0.550997    32A     -0.547175    33A     -0.533227
      34A     -0.520494    35A     -0.518362    36A     -0.514180
      37A     -0.493051    38A     -0.486779    39A     -0.470126
      40A     -0.460070    41A     -0.455854    42A     -0.444995
      43A     -0.342052

  @DF-RHF Final Energy:  -499.94272198415837

   => Energetics <=

    Nuclear Repulsion Energy =            602.7731215715490407
    One-Electron Energy =               -1875.4247013366186820
    Two-Electron Energy =                 772.7088577809111030
    Total Energy =                       -499.9427219841584247
  Basis Set: (AUG-CC-PVTZ AUX)
    Blend: AUG-CC-PVTZ-RI
    Molecular point group: c1

    Geometry (in Angstrom), charge = 0, multiplicity = 1:

       Center              X                  Y                   Z               Mass
    ------------   -----------------  -----------------  -----------------  -----------------
         O            1.079072299032     0.483087390847     0.034208666301    15.994914619570
         O            2.538558299032    -1.098088609153    -0.691884333699    15.994914619570
         C           -2.361928700968    -0.080596609153     0.318712666301    12.000000000000
         C           -3.590639700968     0.788725390847     0.427105666301    12.000000000000
         C           -1.255207700968     0.402000390847    -0.276105333699    12.000000000000
         C            0.015718299032    -0.323641609153    -0.542001333699    12.000000000000
         C           -2.602396700968    -1.567041309153     0.617673266301    12.000000000000
         C           -4.701648700968     0.363127390847    -0.539160333699    12.000000000000
         C            3.362013299032     0.881975390847     0.458520666301    12.000000000000
         C            2.319468299032    -0.037303609153    -0.127823333699    12.000000000000
         C            4.765488299032     0.311366390847     0.333989666301    12.000000000000
         H           -3.321672700968     1.831713390847     0.225112666301     1.007825032230
         H           -3.971551700968     0.753820390847     1.456465666301     1.007825032230
         H           -1.265641700968     1.432537390847    -0.630529333699     1.007825032230
         H            0.210487299032    -0.427678609153    -1.615345333699     1.007825032230
         H            0.054875299032    -1.323462609153    -0.104950333699     1.007825032230
         H           -2.787717700968    -1.407877609153     1.943095666301     1.007825032230
         H           -3.303242700968    -2.018077609153     0.371136666301     1.007825032230
         H           -1.593032700968    -2.060426609153     0.807726666301     1.007825032230
         H           -5.036212700968    -0.659028609153    -0.340168333699     1.007825032230
         H           -4.346149700968     0.408531390847    -1.572254333699     1.007825032230
         H           -5.570275700968     1.022453390847    -0.446499333699     1.007825032230
         H            3.275960299032     1.848458390847    -0.050895333699     1.007825032230
         H            3.094893299032     1.070506390847     1.503073666301     1.007825032230
         H            4.841388299032    -0.643785609153     0.856296666301     1.007825032230
         H            5.017843299032     0.137033390847    -0.713818333699     1.007825032230
         H            5.497963299032     1.001274390847     0.760913666301     1.007825032230

  Basis Set: AUG-CC-PVTZ
    Blend: AUG-CC-PVTZ
  Basis Set: (AUG-CC-PVTZ AUX)
    Blend: AUG-CC-PVTZ-JKFIT
	 Reference Energy          =    -499.9427219841583678 [Eh]
	 Singles Energy            =      -0.0000000000000000 [Eh]
	 Same-Spin Energy          =      -0.5109484213359756 [Eh]
	 Opposite-Spin Energy      =      -1.7212104050538652 [Eh]
	 Correlation Energy        =      -2.2321588263898411 [Eh]
	 Total Energy              =    -502.1748808105481885 [Eh]

	 ================> DF-SCS-MP2 Energies <==================
	-----------------------------------------------------------
	 SCS Same-Spin Scale       =       0.3333333333333333 [-]
	 SCS Opposite-Spin Scale   =       1.2000000000000000 [-]
	 SCS Same-Spin Energy      =      -0.1703161404453252 [Eh]
	 SCS Opposite-Spin Energy  =      -2.0654524860646384 [Eh]
	 SCS Correlation Energy    =      -2.2357686265099637 [Eh]
	 SCS Total Energy          =    -502.1784906106683479 [Eh]
	-----------------------------------------------------------

  Dipole Moment: [D]
     X:    -1.3969      Y:     1.2464      Z:     0.6195     Total:     1.9720

*** Psi4 exiting successfully. Buy a developer a beer!
