                               Psi4 1.4a2.dev612

  ==> Input File <==

--------------------------------------------------------------------------
#psi4
#
memory 32 gb

molecule  {
0 1
  O        1.0716460     0.4753830     0.0137820
  O        2.5311320    -1.1057930    -0.7123110
  C       -2.3693550    -0.0883010     0.2982860
  C       -3.5980660     0.7810210     0.4066790
  C       -1.2626340     0.3942960    -0.2965320
  C        0.0082920    -0.3313460    -0.5624280
  C       -2.5132090    -1.4745150     0.8629900
  C       -4.7090750     0.3554230    -0.5595870
  C        3.3346687     0.7553247     0.6570804
  C        2.3120420    -0.0450080    -0.1482500
  C        4.7580620     0.3036620     0.3135630
  H       -3.3290990     1.8240090     0.2046860
  H       -3.9789780     0.7461160     1.4360390
  H       -1.2730680     1.4248330    -0.6509560
  H        0.2030610    -0.4353830    -1.6357720
  H        0.0474490    -1.3311670    -0.1253770
  H       -2.7951440    -1.4155820     1.9226690
  H       -3.3106690    -2.0257820     0.3507100
  H       -1.6004590    -2.0681310     0.7873000
  H       -5.0436390    -0.6667330    -0.3605950
  H       -4.3535760     0.4008270    -1.5926810
  H       -5.5777020     1.0147490    -0.4669260
  H        3.2685340     1.8407540    -0.0713220
  H        3.0874670     1.0628020     1.4826470
  H        4.8339620    -0.6514900     0.8358700
  H        5.0104170     0.1293290    -0.7342450
  H        5.4905370     0.9935700     0.7404870
units angstrom
no_reorient  #important for SAPT in psi4, default
symmetry c1  #important for SAPT in psi4, default
}

set PROPERTIES_ORIGIN ["COM"]
properties('MP2/aug-cc-pvtz', properties = ['dipole'])
--------------------------------------------------------------------------

    Molecular point group: c1
  Charge       = 0
  Multiplicity = 1
  Basis Set: AUG-CC-PVTZ
    Blend: AUG-CC-PVTZ
  Basis Set: (AUG-CC-PVTZ AUX)
    Blend: AUG-CC-PVTZ-JKFIT

    Orbital Energies [Eh]
    ---------------------

    Doubly Occupied:

       1A    -20.597126     2A    -20.541504     3A    -11.380380
       4A    -11.286516     5A    -11.250661     6A    -11.244213
       7A    -11.228375     8A    -11.226493     9A    -11.223261
      10A    -11.222941    11A    -11.219156    12A     -1.448252
      13A     -1.348223    14A     -1.112469    15A     -1.065086
      16A     -1.022122    17A     -0.978012    18A     -0.919801
      19A     -0.883161    20A     -0.835944    21A     -0.774865
      22A     -0.731380    23A     -0.696911    24A     -0.677449
      25A     -0.664916    26A     -0.633544    27A     -0.622017
      28A     -0.597774    29A     -0.589530    30A     -0.575842
      31A     -0.556654    32A     -0.552519    33A     -0.544221
      34A     -0.533562    35A     -0.516111    36A     -0.513264
      37A     -0.510922    38A     -0.484091    39A     -0.465752
      40A     -0.459156    41A     -0.456210    42A     -0.431412
      43A     -0.345905

  @DF-RHF Final Energy:  -499.97358485912997

   => Energetics <=

    Nuclear Repulsion Energy =            602.8392875193848113
    One-Electron Energy =               -1875.6903414563009846
    Two-Electron Energy =                 772.8774690777862588
    Total Energy =                       -499.9735848591300282
  Basis Set: (AUG-CC-PVTZ AUX)
    Blend: AUG-CC-PVTZ-RI
    Molecular point group: c1

    Geometry (in Angstrom), charge = 0, multiplicity = 1:

       Center              X                  Y                   Z               Mass
    ------------   -----------------  -----------------  -----------------  -----------------
         O            1.073176976837     0.484525991604    -0.003050767395    15.994914619570
         O            2.532662976837    -1.096650008396    -0.729143767395    15.994914619570
         C           -2.367824023163    -0.079158008396     0.281453232605    12.000000000000
         C           -3.596535023163     0.790163991604     0.389846232605    12.000000000000
         C           -1.261103023163     0.403438991604    -0.313364767395    12.000000000000
         C            0.009822976837    -0.322203008396    -0.579260767395    12.000000000000
         C           -2.511678023163    -1.465372008396     0.846157232605    12.000000000000
         C           -4.707544023163     0.364565991604    -0.576419767395    12.000000000000
         C            3.336199676837     0.764467691604     0.640247632605    12.000000000000
         C            2.313572976837    -0.035865008396    -0.165082767395    12.000000000000
         C            4.759592976837     0.312804991604     0.296730232605    12.000000000000
         H           -3.327568023163     1.833151991604     0.187853232605     1.007825032230
         H           -3.977447023163     0.755258991604     1.419206232605     1.007825032230
         H           -1.271537023163     1.433975991604    -0.667788767395     1.007825032230
         H            0.204591976837    -0.426240008396    -1.652604767395     1.007825032230
         H            0.048979976837    -1.322024008396    -0.142209767395     1.007825032230
         H           -2.793613023163    -1.406439008396     1.905836232605     1.007825032230
         H           -3.309138023163    -2.016639008396     0.333877232605     1.007825032230
         H           -1.598928023163    -2.058988008396     0.770467232605     1.007825032230
         H           -5.042108023163    -0.657590008396    -0.377427767395     1.007825032230
         H           -4.352045023163     0.409969991604    -1.609513767395     1.007825032230
         H           -5.576171023163     1.023891991604    -0.483758767395     1.007825032230
         H            3.270064976837     1.849896991604    -0.088154767395     1.007825032230
         H            3.088997976837     1.071944991604     1.465814232605     1.007825032230
         H            4.835492976837    -0.642347008396     0.819037232605     1.007825032230
         H            5.011947976837     0.138471991604    -0.751077767395     1.007825032230
         H            5.492067976837     1.002712991604     0.723654232605     1.007825032230

  Basis Set: AUG-CC-PVTZ
    Blend: AUG-CC-PVTZ
  Basis Set: (AUG-CC-PVTZ AUX)
    Blend: AUG-CC-PVTZ-JKFIT
	 Reference Energy          =    -499.9735848591299714 [Eh]
	 Singles Energy            =      -0.0000000000000000 [Eh]
	 Same-Spin Energy          =      -0.5106373274282036 [Eh]
	 Opposite-Spin Energy      =      -1.7199465343432050 [Eh]
	 Correlation Energy        =      -2.2305838617714087 [Eh]
	 Total Energy              =    -502.2041687209014071 [Eh]

	 ================> DF-SCS-MP2 Energies <==================
	-----------------------------------------------------------
	 SCS Same-Spin Scale       =       0.3333333333333333 [-]
	 SCS Opposite-Spin Scale   =       1.2000000000000000 [-]
	 SCS Same-Spin Energy      =      -0.1702124424760678 [Eh]
	 SCS Opposite-Spin Energy  =      -2.0639358412118458 [Eh]
	 SCS Correlation Energy    =      -2.2341482836879138 [Eh]
	 SCS Total Energy          =    -502.2077331428178582 [Eh]
	-----------------------------------------------------------

  Dipole Moment: [D]
     X:    -1.3998      Y:     1.0735      Z:     0.9058     Total:     1.9830

*** Psi4 exiting successfully. Buy a developer a beer!
