                               Psi4 1.4a2.dev612

  ==> Input File <==

--------------------------------------------------------------------------
#psi4
#
memory 32 gb

molecule  {
0 1
  O        1.0716460     0.4753830     0.0137820
  O        2.5311320    -1.1057930    -0.7123110
  C       -2.3693550    -0.0883010     0.2982860
  C       -3.5980660     0.7810210     0.4066790
  C       -1.2626340     0.3942960    -0.2965320
  C        0.0082920    -0.3313460    -0.5624280
  C       -2.5937207    -1.5580406     0.6415372
  C       -4.7090750     0.3554230    -0.5595870
  C        3.3545870     0.8742710     0.4380940
  C        2.3120420    -0.0450080    -0.1482500
  C        4.7580620     0.3036620     0.3135630
  H       -3.3290990     1.8240090     0.2046860
  H       -3.9789780     0.7461160     1.4360390
  H       -1.2730680     1.4248330    -0.6509560
  H        0.2030610    -0.4353830    -1.6357720
  H        0.0474490    -1.3311670    -0.1253770
  H       -2.7951440    -1.4155820     1.9226690
  H       -3.3106690    -2.0257820     0.3507100
  H       -1.6004590    -2.0681310     0.7873000
  H       -5.0436390    -0.6667330    -0.3605950
  H       -4.3535760     0.4008270    -1.5926810
  H       -5.5777020     1.0147490    -0.4669260
  H        3.2685340     1.8407540    -0.0713220
  H        3.0874670     1.0628020     1.4826470
  H        4.8339620    -0.6514900     0.8358700
  H        5.0104170     0.1293290    -0.7342450
  H        5.4905370     0.9935700     0.7404870
units angstrom
no_reorient  #important for SAPT in psi4, default
symmetry c1  #important for SAPT in psi4, default
}

set PROPERTIES_ORIGIN ["COM"]
properties('MP2/aug-cc-pvtz', properties = ['dipole'])
--------------------------------------------------------------------------

    Molecular point group: c1
  Charge       = 0
  Multiplicity = 1
  Basis Set: AUG-CC-PVTZ
    Blend: AUG-CC-PVTZ
  Basis Set: (AUG-CC-PVTZ AUX)
    Blend: AUG-CC-PVTZ-JKFIT

    Orbital Energies [Eh]
    ---------------------

    Doubly Occupied:

       1A    -20.598116     2A    -20.541272     3A    -11.376072
       4A    -11.287531     5A    -11.250017     6A    -11.242553
       7A    -11.235571     8A    -11.228683     9A    -11.225360
      10A    -11.220690    11A    -11.218136    12A     -1.448813
      13A     -1.348205    14A     -1.113208    15A     -1.064396
      16A     -1.022833    17A     -0.980860    18A     -0.926029
      19A     -0.880625    20A     -0.834242    21A     -0.768623
      22A     -0.731063    23A     -0.690682    24A     -0.680216
      25A     -0.663850    26A     -0.646471    27A     -0.628232
      28A     -0.616243    29A     -0.586147    30A     -0.583031
      31A     -0.552193    32A     -0.547253    33A     -0.533601
      34A     -0.520390    35A     -0.518055    36A     -0.513876
      37A     -0.492895    38A     -0.486462    39A     -0.475021
      40A     -0.463384    41A     -0.457269    42A     -0.444897
      43A     -0.343574

  @DF-RHF Final Energy:  -499.97275882028566

   => Energetics <=

    Nuclear Repulsion Energy =            602.8700548439984459
    One-Electron Energy =               -1875.7123466316299982
    Two-Electron Energy =                 772.8695329673457763
    Total Energy =                       -499.9727588202856623
  Basis Set: (AUG-CC-PVTZ AUX)
    Blend: AUG-CC-PVTZ-RI
    Molecular point group: c1

    Geometry (in Angstrom), charge = 0, multiplicity = 1:

       Center              X                  Y                   Z               Mass
    ------------   -----------------  -----------------  -----------------  -----------------
         O            1.077834573233     0.481803329983     0.030804207417    15.994914619570
         O            2.537320573233    -1.099372670017    -0.695288792583    15.994914619570
         C           -2.363166426767    -0.081880670017     0.315308207417    12.000000000000
         C           -3.591877426767     0.787441329983     0.423701207417    12.000000000000
         C           -1.256445426767     0.400716329983    -0.279509792583    12.000000000000
         C            0.014480573233    -0.324925670017    -0.545405792583    12.000000000000
         C           -2.587532126767    -1.551620270017     0.658559407417    12.000000000000
         C           -4.702886426767     0.361843329983    -0.542564792583    12.000000000000
         C            3.360775573233     0.880691329983     0.455116207417    12.000000000000
         C            2.318230573233    -0.038587670017    -0.131227792583    12.000000000000
         C            4.764250573233     0.310082329983     0.330585207417    12.000000000000
         H           -3.322910426767     1.830429329983     0.221708207417     1.007825032230
         H           -3.972789426767     0.752536329983     1.453061207417     1.007825032230
         H           -1.266879426767     1.431253329983    -0.633933792583     1.007825032230
         H            0.209249573233    -0.428962670017    -1.618749792583     1.007825032230
         H            0.053637573233    -1.324746670017    -0.108354792583     1.007825032230
         H           -2.788955426767    -1.409161670017     1.939691207417     1.007825032230
         H           -3.304480426767    -2.019361670017     0.367732207417     1.007825032230
         H           -1.594270426767    -2.061710670017     0.804322207417     1.007825032230
         H           -5.037450426767    -0.660312670017    -0.343572792583     1.007825032230
         H           -4.347387426767     0.407247329983    -1.575658792583     1.007825032230
         H           -5.571513426767     1.021169329983    -0.449903792583     1.007825032230
         H            3.274722573233     1.847174329983    -0.054299792583     1.007825032230
         H            3.093655573233     1.069222329983     1.499669207417     1.007825032230
         H            4.840150573233    -0.645069670017     0.852892207417     1.007825032230
         H            5.016605573233     0.135749329983    -0.717222792583     1.007825032230
         H            5.496725573233     0.999990329983     0.757509207417     1.007825032230

  Basis Set: AUG-CC-PVTZ
    Blend: AUG-CC-PVTZ
  Basis Set: (AUG-CC-PVTZ AUX)
    Blend: AUG-CC-PVTZ-JKFIT
	 Reference Energy          =    -499.9727588202856623 [Eh]
	 Singles Energy            =      -0.0000000000000000 [Eh]
	 Same-Spin Energy          =      -0.5105749804997113 [Eh]
	 Opposite-Spin Energy      =      -1.7198297746515743 [Eh]
	 Correlation Energy        =      -2.2304047551512856 [Eh]
	 Total Energy              =    -502.2031635754369745 [Eh]

	 ================> DF-SCS-MP2 Energies <==================
	-----------------------------------------------------------
	 SCS Same-Spin Scale       =       0.3333333333333333 [-]
	 SCS Opposite-Spin Scale   =       1.2000000000000000 [-]
	 SCS Same-Spin Energy      =      -0.1701916601665704 [Eh]
	 SCS Opposite-Spin Energy  =      -2.0637957295818889 [Eh]
	 SCS Correlation Energy    =      -2.2339873897484592 [Eh]
	 SCS Total Energy          =    -502.2067462100341118 [Eh]
	-----------------------------------------------------------

  Dipole Moment: [D]
     X:    -1.4148      Y:     1.2212      Z:     0.6537     Total:     1.9800

*** Psi4 exiting successfully. Buy a developer a beer!
