                               Psi4 1.4a2.dev612

  ==> Input File <==

--------------------------------------------------------------------------
#psi4
#
memory 32 gb

molecule  {
0 1
  O        1.0716460     0.4753830     0.0137820
  O        2.5311320    -1.1057930    -0.7123110
  C       -2.3693550    -0.0883010     0.2982860
  C       -3.5980660     0.7810210     0.4066790
  C       -1.2626340     0.3942960    -0.2965320
  C        0.0082920    -0.3313460    -0.5624280
  C       -2.5132090    -1.4745150     0.8629900
  C       -4.7090750     0.3554230    -0.5595870
  C        3.3306850     0.7315355     0.7008777
  C        2.3120420    -0.0450080    -0.1482500
  C        4.7580620     0.3036620     0.3135630
  H       -3.3290990     1.8240090     0.2046860
  H       -3.9789780     0.7461160     1.4360390
  H       -1.2730680     1.4248330    -0.6509560
  H        0.2030610    -0.4353830    -1.6357720
  H        0.0474490    -1.3311670    -0.1253770
  H       -2.7951440    -1.4155820     1.9226690
  H       -3.3106690    -2.0257820     0.3507100
  H       -1.6004590    -2.0681310     0.7873000
  H       -5.0436390    -0.6667330    -0.3605950
  H       -4.3535760     0.4008270    -1.5926810
  H       -5.5777020     1.0147490    -0.4669260
  H        3.2685340     1.8407540    -0.0713220
  H        3.0874670     1.0628020     1.4826470
  H        4.8339620    -0.6514900     0.8358700
  H        5.0104170     0.1293290    -0.7342450
  H        5.4905370     0.9935700     0.7404870
units angstrom
no_reorient  #important for SAPT in psi4, default
symmetry c1  #important for SAPT in psi4, default
}

set PROPERTIES_ORIGIN ["COM"]
properties('MP2/aug-cc-pvtz', properties = ['dipole'])
--------------------------------------------------------------------------

    Molecular point group: c1
  Charge       = 0
  Multiplicity = 1
  Basis Set: AUG-CC-PVTZ
    Blend: AUG-CC-PVTZ
  Basis Set: (AUG-CC-PVTZ AUX)
    Blend: AUG-CC-PVTZ-JKFIT

    Orbital Energies [Eh]
    ---------------------

    Doubly Occupied:

       1A    -20.597054     2A    -20.541883     3A    -11.382399
       4A    -11.286518     5A    -11.254125     6A    -11.244192
       7A    -11.228351     8A    -11.226503     9A    -11.225095
      10A    -11.223243    11A    -11.219134    12A     -1.448314
      13A     -1.348501    14A     -1.112443    15A     -1.065382
      16A     -1.022202    17A     -0.977990    18A     -0.919855
      19A     -0.885327    20A     -0.837065    21A     -0.778107
      22A     -0.733677    23A     -0.698804    24A     -0.677163
      25A     -0.665204    26A     -0.632551    27A     -0.622265
      28A     -0.595104    29A     -0.590054    30A     -0.576771
      31A     -0.561337    32A     -0.552545    33A     -0.544962
      34A     -0.534209    35A     -0.516212    36A     -0.512923
      37A     -0.509138    38A     -0.484066    39A     -0.465693
      40A     -0.458382    41A     -0.453815    42A     -0.422832
      43A     -0.345850

  @DF-RHF Final Energy:  -499.94529711036625

   => Energetics <=

    Nuclear Repulsion Energy =            602.7007489069237636
    One-Electron Energy =               -1875.3376132324528953
    Two-Electron Energy =                 772.6915672151628769
    Total Energy =                       -499.9452971103662549
  Basis Set: (AUG-CC-PVTZ AUX)
    Blend: AUG-CC-PVTZ-RI
    Molecular point group: c1

    Geometry (in Angstrom), charge = 0, multiplicity = 1:

       Center              X                  Y                   Z               Mass
    ------------   -----------------  -----------------  -----------------  -----------------
         O            1.073483189506     0.486354581718    -0.006417308085    15.994914619570
         O            2.532969189506    -1.094821418282    -0.732510308085    15.994914619570
         C           -2.367517810494    -0.077329418282     0.278086691915    12.000000000000
         C           -3.596228810494     0.791992581718     0.386479691915    12.000000000000
         C           -1.260796810494     0.405267581718    -0.316731308085    12.000000000000
         C            0.010129189506    -0.320374418282    -0.582627308085    12.000000000000
         C           -2.511371810494    -1.463543418282     0.842790691915    12.000000000000
         C           -4.707237810494     0.366394581718    -0.579786308085    12.000000000000
         C            3.332522189506     0.742507081718     0.680678391915    12.000000000000
         C            2.313879189506    -0.034036418282    -0.168449308085    12.000000000000
         C            4.759899189506     0.314633581718     0.293363691915    12.000000000000
         H           -3.327261810494     1.834980581718     0.184486691915     1.007825032230
         H           -3.977140810494     0.757087581718     1.415839691915     1.007825032230
         H           -1.271230810494     1.435804581718    -0.671155308085     1.007825032230
         H            0.204898189506    -0.424411418282    -1.655971308085     1.007825032230
         H            0.049286189506    -1.320195418282    -0.145576308085     1.007825032230
         H           -2.793306810494    -1.404610418282     1.902469691915     1.007825032230
         H           -3.308831810494    -2.014810418282     0.330510691915     1.007825032230
         H           -1.598621810494    -2.057159418282     0.767100691915     1.007825032230
         H           -5.041801810494    -0.655761418282    -0.380794308085     1.007825032230
         H           -4.351738810494     0.411798581718    -1.612880308085     1.007825032230
         H           -5.575864810494     1.025720581718    -0.487125308085     1.007825032230
         H            3.270371189506     1.851725581718    -0.091521308085     1.007825032230
         H            3.089304189506     1.073773581718     1.462447691915     1.007825032230
         H            4.835799189506    -0.640518418282     0.815670691915     1.007825032230
         H            5.012254189506     0.140300581718    -0.754444308085     1.007825032230
         H            5.492374189506     1.004541581718     0.720287691915     1.007825032230

  Basis Set: AUG-CC-PVTZ
    Blend: AUG-CC-PVTZ
  Basis Set: (AUG-CC-PVTZ AUX)
    Blend: AUG-CC-PVTZ-JKFIT
	 Reference Energy          =    -499.9452971103662549 [Eh]
	 Singles Energy            =      -0.0000000000000000 [Eh]
	 Same-Spin Energy          =      -0.5110264069867776 [Eh]
	 Opposite-Spin Energy      =      -1.7213714376771259 [Eh]
	 Correlation Energy        =      -2.2323978446639035 [Eh]
	 Total Energy              =    -502.1776949550301765 [Eh]

	 ================> DF-SCS-MP2 Energies <==================
	-----------------------------------------------------------
	 SCS Same-Spin Scale       =       0.3333333333333333 [-]
	 SCS Opposite-Spin Scale   =       1.2000000000000000 [-]
	 SCS Same-Spin Energy      =      -0.1703421356622592 [Eh]
	 SCS Opposite-Spin Energy  =      -2.0656457252125509 [Eh]
	 SCS Correlation Energy    =      -2.2359878608748103 [Eh]
	 SCS Total Energy          =    -502.1812849712410411 [Eh]
	-----------------------------------------------------------

  Dipole Moment: [D]
     X:    -1.3824      Y:     1.0431      Z:     0.9114     Total:     1.9570

*** Psi4 exiting successfully. Buy a developer a beer!
