                               Psi4 1.4a2.dev612

  ==> Input File <==

--------------------------------------------------------------------------
#psi4
#
memory 32 gb

molecule  {
0 1
  O        1.0716460     0.4753830     0.0137820
  O        2.5311320    -1.1057930    -0.7123110
  C       -2.3693550    -0.0883010     0.2982860
  C       -3.5980660     0.7810210     0.4066790
  C       -1.2626340     0.3942960    -0.2965320
  C        0.0082920    -0.3313460    -0.5624280
  C       -2.5132090    -1.4745150     0.8629900
  C       -4.7090750     0.3554230    -0.5595870
  C        3.3545870     0.8742710     0.4380940
  C        2.3120420    -0.0450080    -0.1482500
  C        4.7580620     0.3036620     0.3135630
  H       -3.3290990     1.8240090     0.2046860
  H       -3.9789780     0.7461160     1.4360390
  H       -1.2554855     1.4398957    -0.6066393
  H        0.2030610    -0.4353830    -1.6357720
  H        0.0474490    -1.3311670    -0.1253770
  H       -2.7951440    -1.4155820     1.9226690
  H       -3.3106690    -2.0257820     0.3507100
  H       -1.6004590    -2.0681310     0.7873000
  H       -5.0436390    -0.6667330    -0.3605950
  H       -4.3535760     0.4008270    -1.5926810
  H       -5.5777020     1.0147490    -0.4669260
  H        3.2685340     1.8407540    -0.0713220
  H        3.0874670     1.0628020     1.4826470
  H        4.8339620    -0.6514900     0.8358700
  H        5.0104170     0.1293290    -0.7342450
  H        5.4905370     0.9935700     0.7404870
units angstrom
no_reorient  #important for SAPT in psi4, default
symmetry c1  #important for SAPT in psi4, default
}

set PROPERTIES_ORIGIN ["COM"]
properties('MP2/aug-cc-pvtz', properties = ['dipole'])
--------------------------------------------------------------------------

    Molecular point group: c1
  Charge       = 0
  Multiplicity = 1
  Basis Set: AUG-CC-PVTZ
    Blend: AUG-CC-PVTZ
  Basis Set: (AUG-CC-PVTZ AUX)
    Blend: AUG-CC-PVTZ-JKFIT

    Orbital Energies [Eh]
    ---------------------

    Doubly Occupied:

       1A    -20.597490     2A    -20.540856     3A    -11.375643
       4A    -11.286560     5A    -11.244146     6A    -11.242296
       7A    -11.228374     8A    -11.226375     9A    -11.223380
      10A    -11.219154    11A    -11.217939    12A     -1.448262
      13A     -1.347721    14A     -1.112445    15A     -1.063995
      16A     -1.021784    17A     -0.977936    18A     -0.919628
      19A     -0.879160    20A     -0.833481    21A     -0.767748
      22A     -0.722591    23A     -0.687630    24A     -0.680056
      25A     -0.660360    26A     -0.638407    27A     -0.623659
      28A     -0.605216    29A     -0.588319    30A     -0.574374
      31A     -0.552833    32A     -0.544611    33A     -0.533504
      34A     -0.522471    35A     -0.517701    36A     -0.514594
      37A     -0.511886    38A     -0.492406    39A     -0.483839
      40A     -0.465598    41A     -0.457618    42A     -0.444465
      43A     -0.345781

  @DF-RHF Final Energy:  -500.03820136739660

   => Energetics <=

    Nuclear Repulsion Energy =            603.0920880693331583
    One-Electron Energy =               -1876.3760030553935394
    Two-Electron Energy =                 773.2457136186637854
    Total Energy =                       -500.0382013673965957
  Basis Set: (AUG-CC-PVTZ AUX)
    Blend: AUG-CC-PVTZ-RI
    Molecular point group: c1

    Geometry (in Angstrom), charge = 0, multiplicity = 1:

       Center              X                  Y                   Z               Mass
    ------------   -----------------  -----------------  -----------------  -----------------
         O            1.071532422280     0.475285778356     0.013495834969    15.994914619570
         O            2.531018422280    -1.105890221644    -0.712597165031    15.994914619570
         C           -2.369468577720    -0.088398221644     0.297999834969    12.000000000000
         C           -3.598179577720     0.780923778356     0.406392834969    12.000000000000
         C           -1.262747577720     0.394198778356    -0.296818165031    12.000000000000
         C            0.008178422280    -0.331443221644    -0.562714165031    12.000000000000
         C           -2.513322577720    -1.474612221644     0.862703834969    12.000000000000
         C           -4.709188577720     0.355325778356    -0.559873165031    12.000000000000
         C            3.354473422280     0.874173778356     0.437807834969    12.000000000000
         C            2.311928422280    -0.045105221644    -0.148536165031    12.000000000000
         C            4.757948422280     0.303564778356     0.313276834969    12.000000000000
         H           -3.329212577720     1.823911778356     0.204399834969     1.007825032230
         H           -3.979091577720     0.746018778356     1.435752834969     1.007825032230
         H           -1.255599077720     1.439798478356    -0.606925465031     1.007825032230
         H            0.202947422280    -0.435480221644    -1.636058165031     1.007825032230
         H            0.047335422280    -1.331264221644    -0.125663165031     1.007825032230
         H           -2.795257577720    -1.415679221644     1.922382834969     1.007825032230
         H           -3.310782577720    -2.025879221644     0.350423834969     1.007825032230
         H           -1.600572577720    -2.068228221644     0.787013834969     1.007825032230
         H           -5.043752577720    -0.666830221644    -0.360881165031     1.007825032230
         H           -4.353689577720     0.400729778356    -1.592967165031     1.007825032230
         H           -5.577815577720     1.014651778356    -0.467212165031     1.007825032230
         H            3.268420422280     1.840656778356    -0.071608165031     1.007825032230
         H            3.087353422280     1.062704778356     1.482360834969     1.007825032230
         H            4.833848422280    -0.651587221644     0.835583834969     1.007825032230
         H            5.010303422280     0.129231778356    -0.734531165031     1.007825032230
         H            5.490423422280     0.993472778356     0.740200834969     1.007825032230

  Basis Set: AUG-CC-PVTZ
    Blend: AUG-CC-PVTZ
  Basis Set: (AUG-CC-PVTZ AUX)
    Blend: AUG-CC-PVTZ-JKFIT
	 Reference Energy          =    -500.0382013673965957 [Eh]
	 Singles Energy            =      -0.0000000000000000 [Eh]
	 Same-Spin Energy          =      -0.5097643169749747 [Eh]
	 Opposite-Spin Energy      =      -1.7168315283220594 [Eh]
	 Correlation Energy        =      -2.2265958452970342 [Eh]
	 Total Energy              =    -502.2647972126936224 [Eh]

	 ================> DF-SCS-MP2 Energies <==================
	-----------------------------------------------------------
	 SCS Same-Spin Scale       =       0.3333333333333333 [-]
	 SCS Opposite-Spin Scale   =       1.2000000000000000 [-]
	 SCS Same-Spin Energy      =      -0.1699214389916582 [Eh]
	 SCS Opposite-Spin Energy  =      -2.0601978339864710 [Eh]
	 SCS Correlation Energy    =      -2.2301192729781292 [Eh]
	 SCS Total Energy          =    -502.2683206403747249 [Eh]
	-----------------------------------------------------------

  Dipole Moment: [D]
     X:    -1.4266      Y:     1.1887      Z:     0.8562     Total:     2.0448

*** Psi4 exiting successfully. Buy a developer a beer!
