                               Psi4 1.4a2.dev612

  ==> Input File <==

--------------------------------------------------------------------------
#psi4
#
memory 32 gb

molecule  {
0 1
  O        1.0716460     0.4753830     0.0137820
  O        2.5311320    -1.1057930    -0.7123110
  C       -2.3693550    -0.0883010     0.2982860
  C       -3.5980660     0.7810210     0.4066790
  C       -1.2626340     0.3942960    -0.2965320
  C        0.0082920    -0.3313460    -0.5624280
  C       -2.5132090    -1.4745150     0.8629900
  C       -4.7090750     0.3554230    -0.5595870
  C        3.3545870     0.8742710     0.4380940
  C        2.3120420    -0.0450080    -0.1482500
  C        4.7580620     0.3036620     0.3135630
  H       -3.3290990     1.8240090     0.2046860
  H       -3.9789780     0.7461160     1.4360390
  H       -1.1851556     1.5001464    -0.4293724
  H        0.2030610    -0.4353830    -1.6357720
  H        0.0474490    -1.3311670    -0.1253770
  H       -2.7951440    -1.4155820     1.9226690
  H       -3.3106690    -2.0257820     0.3507100
  H       -1.6004590    -2.0681310     0.7873000
  H       -5.0436390    -0.6667330    -0.3605950
  H       -4.3535760     0.4008270    -1.5926810
  H       -5.5777020     1.0147490    -0.4669260
  H        3.2685340     1.8407540    -0.0713220
  H        3.0874670     1.0628020     1.4826470
  H        4.8339620    -0.6514900     0.8358700
  H        5.0104170     0.1293290    -0.7342450
  H        5.4905370     0.9935700     0.7404870
units angstrom
no_reorient  #important for SAPT in psi4, default
symmetry c1  #important for SAPT in psi4, default
}

set PROPERTIES_ORIGIN ["COM"]
properties('MP2/aug-cc-pvtz', properties = ['dipole'])
--------------------------------------------------------------------------

    Molecular point group: c1
  Charge       = 0
  Multiplicity = 1
  Basis Set: AUG-CC-PVTZ
    Blend: AUG-CC-PVTZ
  Basis Set: (AUG-CC-PVTZ AUX)
    Blend: AUG-CC-PVTZ-JKFIT

    Orbital Energies [Eh]
    ---------------------

    Doubly Occupied:

       1A    -20.598102     2A    -20.541144     3A    -11.376045
       4A    -11.286752     5A    -11.244551     6A    -11.242626
       7A    -11.228344     8A    -11.226709     9A    -11.225812
      10A    -11.219147    11A    -11.218169    12A     -1.448725
      13A     -1.348106    14A     -1.112276    15A     -1.064286
      16A     -1.021613    17A     -0.977972    18A     -0.919224
      19A     -0.879330    20A     -0.833136    21A     -0.768740
      22A     -0.720633    23A     -0.686340    24A     -0.680012
      25A     -0.660561    26A     -0.636915    27A     -0.623451
      28A     -0.604738    29A     -0.589061    30A     -0.574411
      31A     -0.553002    32A     -0.544831    33A     -0.532828
      34A     -0.523067    35A     -0.517873    36A     -0.514983
      37A     -0.510268    38A     -0.492845    39A     -0.483650
      40A     -0.465215    41A     -0.458471    42A     -0.444368
      43A     -0.343974

  @DF-RHF Final Energy:  -500.03431419281878

   => Energetics <=

    Nuclear Repulsion Energy =            603.0535270676613209
    One-Electron Energy =               -1876.2910673053534083
    Two-Electron Energy =                 773.2032260448731904
    Total Energy =                       -500.0343141928187833
  Basis Set: (AUG-CC-PVTZ AUX)
    Blend: AUG-CC-PVTZ-RI
    Molecular point group: c1

    Geometry (in Angstrom), charge = 0, multiplicity = 1:

       Center              X                  Y                   Z               Mass
    ------------   -----------------  -----------------  -----------------  -----------------
         O            1.071078396592     0.474896820523     0.012351460725    15.994914619570
         O            2.530564396592    -1.106279179477    -0.713741539275    15.994914619570
         C           -2.369922603408    -0.088787179477     0.296855460725    12.000000000000
         C           -3.598633603408     0.780534820523     0.405248460725    12.000000000000
         C           -1.263201603408     0.393809820523    -0.297962539275    12.000000000000
         C            0.007724396592    -0.331832179477    -0.563858539275    12.000000000000
         C           -2.513776603408    -1.475001179477     0.861559460725    12.000000000000
         C           -4.709642603408     0.354936820523    -0.561017539275    12.000000000000
         C            3.354019396592     0.873784820523     0.436663460725    12.000000000000
         C            2.311474396592    -0.045494179477    -0.149680539275    12.000000000000
         C            4.757494396592     0.303175820523     0.312132460725    12.000000000000
         H           -3.329666603408     1.823522820523     0.203255460725     1.007825032230
         H           -3.979545603408     0.745629820523     1.434608460725     1.007825032230
         H           -1.185723203408     1.499660220523    -0.430802939275     1.007825032230
         H            0.202493396592    -0.435869179477    -1.637202539275     1.007825032230
         H            0.046881396592    -1.331653179477    -0.126807539275     1.007825032230
         H           -2.795711603408    -1.416068179477     1.921238460725     1.007825032230
         H           -3.311236603408    -2.026268179477     0.349279460725     1.007825032230
         H           -1.601026603408    -2.068617179477     0.785869460725     1.007825032230
         H           -5.044206603408    -0.667219179477    -0.362025539275     1.007825032230
         H           -4.354143603408     0.400340820523    -1.594111539275     1.007825032230
         H           -5.578269603408     1.014262820523    -0.468356539275     1.007825032230
         H            3.267966396592     1.840267820523    -0.072752539275     1.007825032230
         H            3.086899396592     1.062315820523     1.481216460725     1.007825032230
         H            4.833394396592    -0.651976179477     0.834439460725     1.007825032230
         H            5.009849396592     0.128842820523    -0.735675539275     1.007825032230
         H            5.489969396592     0.993083820523     0.739056460725     1.007825032230

  Basis Set: AUG-CC-PVTZ
    Blend: AUG-CC-PVTZ
  Basis Set: (AUG-CC-PVTZ AUX)
    Blend: AUG-CC-PVTZ-JKFIT
	 Reference Energy          =    -500.0343141928187833 [Eh]
	 Singles Energy            =      -0.0000000000000000 [Eh]
	 Same-Spin Energy          =      -0.5099690228568948 [Eh]
	 Opposite-Spin Energy      =      -1.7173094120365873 [Eh]
	 Correlation Energy        =      -2.2272784348934822 [Eh]
	 Total Energy              =    -502.2615926277122753 [Eh]

	 ================> DF-SCS-MP2 Energies <==================
	-----------------------------------------------------------
	 SCS Same-Spin Scale       =       0.3333333333333333 [-]
	 SCS Opposite-Spin Scale   =       1.2000000000000000 [-]
	 SCS Same-Spin Energy      =      -0.1699896742856316 [Eh]
	 SCS Opposite-Spin Energy  =      -2.0607712944439047 [Eh]
	 SCS Correlation Energy    =      -2.2307609687295362 [Eh]
	 SCS Total Energy          =    -502.2650751615483387 [Eh]
	-----------------------------------------------------------

  Dipole Moment: [D]
     X:    -1.3609      Y:     1.1875      Z:     0.9661     Total:     2.0483

*** Psi4 exiting successfully. Buy a developer a beer!
