                               Psi4 1.4a2.dev612

  ==> Input File <==

--------------------------------------------------------------------------
#psi4
#
memory 32 gb

molecule  {
0 1
  O        1.0716460     0.4753830     0.0137820
  O        2.5311320    -1.1057930    -0.7123110
  C       -2.3693550    -0.0883010     0.2982860
  C       -3.5980660     0.7810210     0.4066790
  C       -1.2626340     0.3942960    -0.2965320
  C        0.0082920    -0.3313460    -0.5624280
  C       -2.5454137    -1.5079252     0.7744089
  C       -4.7090750     0.3554230    -0.5595870
  C        3.3545870     0.8742710     0.4380940
  C        2.3120420    -0.0450080    -0.1482500
  C        4.7580620     0.3036620     0.3135630
  H       -3.3290990     1.8240090     0.2046860
  H       -3.9789780     0.7461160     1.4360390
  H       -1.2730680     1.4248330    -0.6509560
  H        0.2030610    -0.4353830    -1.6357720
  H        0.0474490    -1.3311670    -0.1253770
  H       -2.7951440    -1.4155820     1.9226690
  H       -3.3106690    -2.0257820     0.3507100
  H       -1.6004590    -2.0681310     0.7873000
  H       -5.0436390    -0.6667330    -0.3605950
  H       -4.3535760     0.4008270    -1.5926810
  H       -5.5777020     1.0147490    -0.4669260
  H        3.2685340     1.8407540    -0.0713220
  H        3.0874670     1.0628020     1.4826470
  H        4.8339620    -0.6514900     0.8358700
  H        5.0104170     0.1293290    -0.7342450
  H        5.4905370     0.9935700     0.7404870
units angstrom
no_reorient  #important for SAPT in psi4, default
symmetry c1  #important for SAPT in psi4, default
}

set PROPERTIES_ORIGIN ["COM"]
properties('MP2/aug-cc-pvtz', properties = ['dipole'])
--------------------------------------------------------------------------

    Molecular point group: c1
  Charge       = 0
  Multiplicity = 1
  Basis Set: AUG-CC-PVTZ
    Blend: AUG-CC-PVTZ
  Basis Set: (AUG-CC-PVTZ AUX)
    Blend: AUG-CC-PVTZ-JKFIT

    Orbital Energies [Eh]
    ---------------------

    Doubly Occupied:

       1A    -20.597468     2A    -20.540847     3A    -11.375619
       4A    -11.286682     5A    -11.245250     6A    -11.242249
       7A    -11.228393     8A    -11.227895     9A    -11.223772
      10A    -11.219781    11A    -11.217907    12A     -1.448249
      13A     -1.347709    14A     -1.112686    15A     -1.063999
      16A     -1.022056    17A     -0.978145    18A     -0.920878
      19A     -0.879521    20A     -0.833633    21A     -0.767598
      22A     -0.723757    23A     -0.688279    24A     -0.680195
      25A     -0.660526    26A     -0.640462    27A     -0.624905
      28A     -0.609654    29A     -0.585207    30A     -0.576046
      31A     -0.554963    32A     -0.547345    33A     -0.534782
      34A     -0.520531    35A     -0.517270    36A     -0.512930
      37A     -0.502288    38A     -0.492281    39A     -0.484977
      40A     -0.465703    41A     -0.457382    42A     -0.444541
      43A     -0.346069

  @DF-RHF Final Energy:  -500.02818891609684

   => Energetics <=

    Nuclear Repulsion Energy =            603.0525268667344108
    One-Electron Energy =               -1876.2605738035363174
    Two-Electron Energy =                 773.1798580207051828
    Total Energy =                       -500.0281889160968376
  Basis Set: (AUG-CC-PVTZ AUX)
    Blend: AUG-CC-PVTZ-RI
    Molecular point group: c1

    Geometry (in Angstrom), charge = 0, multiplicity = 1:

       Center              X                  Y                   Z               Mass
    ------------   -----------------  -----------------  -----------------  -----------------
         O            1.074121388148     0.477951139704     0.020590838451    15.994914619570
         O            2.533607388148    -1.103224860296    -0.705502161549    15.994914619570
         C           -2.366879611852    -0.085732860296     0.305094838451    12.000000000000
         C           -3.595590611852     0.783589139704     0.413487838451    12.000000000000
         C           -1.260158611852     0.396864139704    -0.289723161549    12.000000000000
         C            0.010767388148    -0.328777860296    -0.555619161549    12.000000000000
         C           -2.542938311852    -1.505357060296     0.781217738451    12.000000000000
         C           -4.706599611852     0.357991139704    -0.552778161549    12.000000000000
         C            3.357062388148     0.876839139704     0.444902838451    12.000000000000
         C            2.314517388148    -0.042439860296    -0.141441161549    12.000000000000
         C            4.760537388148     0.306230139704     0.320371838451    12.000000000000
         H           -3.326623611852     1.826577139704     0.211494838451     1.007825032230
         H           -3.976502611852     0.748684139704     1.442847838451     1.007825032230
         H           -1.270592611852     1.427401139704    -0.644147161549     1.007825032230
         H            0.205536388148    -0.432814860296    -1.628963161549     1.007825032230
         H            0.049924388148    -1.328598860296    -0.118568161549     1.007825032230
         H           -2.792668611852    -1.413013860296     1.929477838451     1.007825032230
         H           -3.308193611852    -2.023213860296     0.357518838451     1.007825032230
         H           -1.597983611852    -2.065562860296     0.794108838451     1.007825032230
         H           -5.041163611852    -0.664164860296    -0.353786161549     1.007825032230
         H           -4.351100611852     0.403395139704    -1.585872161549     1.007825032230
         H           -5.575226611852     1.017317139704    -0.460117161549     1.007825032230
         H            3.271009388148     1.843322139704    -0.064513161549     1.007825032230
         H            3.089942388148     1.065370139704     1.489455838451     1.007825032230
         H            4.836437388148    -0.648921860296     0.842678838451     1.007825032230
         H            5.012892388148     0.131897139704    -0.727436161549     1.007825032230
         H            5.493012388148     0.996138139704     0.747295838451     1.007825032230

  Basis Set: AUG-CC-PVTZ
    Blend: AUG-CC-PVTZ
  Basis Set: (AUG-CC-PVTZ AUX)
    Blend: AUG-CC-PVTZ-JKFIT
	 Reference Energy          =    -500.0281889160968376 [Eh]
	 Singles Energy            =      -0.0000000000000000 [Eh]
	 Same-Spin Energy          =      -0.5098838223683014 [Eh]
	 Opposite-Spin Energy      =      -1.7172875758763180 [Eh]
	 Correlation Energy        =      -2.2271713982446193 [Eh]
	 Total Energy              =    -502.2553603143414307 [Eh]

	 ================> DF-SCS-MP2 Energies <==================
	-----------------------------------------------------------
	 SCS Same-Spin Scale       =       0.3333333333333333 [-]
	 SCS Opposite-Spin Scale   =       1.2000000000000000 [-]
	 SCS Same-Spin Energy      =      -0.1699612741227671 [Eh]
	 SCS Opposite-Spin Energy  =      -2.0607450910515817 [Eh]
	 SCS Correlation Energy    =      -2.2307063651743486 [Eh]
	 SCS Total Energy          =    -502.2588952812711796 [Eh]
	-----------------------------------------------------------

  Dipole Moment: [D]
     X:    -1.4490      Y:     1.1800      Z:     0.7649     Total:     2.0192

*** Psi4 exiting successfully. Buy a developer a beer!
