                               Psi4 1.4a2.dev612

  ==> Input File <==

--------------------------------------------------------------------------
#psi4
#
memory 32 gb

molecule  {
0 1
  O        1.0716460     0.4753830     0.0137820
  O        2.5311320    -1.1057930    -0.7123110
  C       -2.3693550    -0.0883010     0.2982860
  C       -3.5980660     0.7810210     0.4066790
  C       -1.2626340     0.3942960    -0.2965320
  C        0.0082920    -0.3313460    -0.5624280
  C       -2.5132090    -1.4745150     0.8629900
  C       -4.7090750     0.3554230    -0.5595870
  C        3.3506033     0.8504817     0.4818913
  C        2.3120420    -0.0450080    -0.1482500
  C        4.7580620     0.3036620     0.3135630
  H       -3.3290990     1.8240090     0.2046860
  H       -3.9789780     0.7461160     1.4360390
  H       -1.2730680     1.4248330    -0.6509560
  H        0.2030610    -0.4353830    -1.6357720
  H        0.0474490    -1.3311670    -0.1253770
  H       -2.7951440    -1.4155820     1.9226690
  H       -3.3106690    -2.0257820     0.3507100
  H       -1.6004590    -2.0681310     0.7873000
  H       -5.0436390    -0.6667330    -0.3605950
  H       -4.3535760     0.4008270    -1.5926810
  H       -5.5777020     1.0147490    -0.4669260
  H        3.2685340     1.8407540    -0.0713220
  H        3.0874670     1.0628020     1.4826470
  H        4.8339620    -0.6514900     0.8358700
  H        5.0104170     0.1293290    -0.7342450
  H        5.4905370     0.9935700     0.7404870
units angstrom
no_reorient  #important for SAPT in psi4, default
symmetry c1  #important for SAPT in psi4, default
}

set PROPERTIES_ORIGIN ["COM"]
properties('MP2/aug-cc-pvtz', properties = ['dipole'])
--------------------------------------------------------------------------

    Molecular point group: c1
  Charge       = 0
  Multiplicity = 1
  Basis Set: AUG-CC-PVTZ
    Blend: AUG-CC-PVTZ
  Basis Set: (AUG-CC-PVTZ AUX)
    Blend: AUG-CC-PVTZ-JKFIT

    Orbital Energies [Eh]
    ---------------------

    Doubly Occupied:

       1A    -20.597293     2A    -20.540732     3A    -11.375721
       4A    -11.286505     5A    -11.244262     6A    -11.242666
       7A    -11.228423     8A    -11.226428     9A    -11.223293
      10A    -11.219209    11A    -11.218047    12A     -1.448111
      13A     -1.347601    14A     -1.112512    15A     -1.064127
      16A     -1.021850    17A     -0.977994    18A     -0.919704
      19A     -0.879261    20A     -0.833590    21A     -0.767628
      22A     -0.723294    23A     -0.688078    24A     -0.679731
      25A     -0.661156    26A     -0.638254    27A     -0.622961
      28A     -0.605118    29A     -0.588245    30A     -0.574476
      31A     -0.552728    32A     -0.544971    33A     -0.533406
      34A     -0.524703    35A     -0.518487    36A     -0.514879
      37A     -0.512014    38A     -0.488175    39A     -0.483738
      40A     -0.465677    41A     -0.457242    42A     -0.444392
      43A     -0.346070

  @DF-RHF Final Energy:  -500.03577988538871

   => Energetics <=

    Nuclear Repulsion Energy =            603.0913720054516034
    One-Electron Energy =               -1876.3688005372478074
    Two-Electron Energy =                 773.2416486464074978
    Total Energy =                       -500.0357798853887061
  Basis Set: (AUG-CC-PVTZ AUX)
    Blend: AUG-CC-PVTZ-RI
    Molecular point group: c1

    Geometry (in Angstrom), charge = 0, multiplicity = 1:

       Center              X                  Y                   Z               Mass
    ------------   -----------------  -----------------  -----------------  -----------------
         O            1.071952141532     0.477211615776     0.010415387679    15.994914619570
         O            2.531438141532    -1.103964384224    -0.715677612321    15.994914619570
         C           -2.369048858468    -0.086472384224     0.294919387679    12.000000000000
         C           -3.597759858468     0.782849615776     0.403312387679    12.000000000000
         C           -1.262327858468     0.396124615776    -0.299898612321    12.000000000000
         C            0.008598141532    -0.329517384224    -0.565794612321    12.000000000000
         C           -2.512902858468    -1.472686384224     0.859623387679    12.000000000000
         C           -4.708768858468     0.357251615776    -0.562953612321    12.000000000000
         C            3.350909441532     0.852310315776     0.478524687679    12.000000000000
         C            2.312348141532    -0.043179384224    -0.151616612321    12.000000000000
         C            4.758368141532     0.305490615776     0.310196387679    12.000000000000
         H           -3.328792858468     1.825837615776     0.201319387679     1.007825032230
         H           -3.978671858468     0.747944615776     1.432672387679     1.007825032230
         H           -1.272761858468     1.426661615776    -0.654322612321     1.007825032230
         H            0.203367141532    -0.433554384224    -1.639138612321     1.007825032230
         H            0.047755141532    -1.329338384224    -0.128743612321     1.007825032230
         H           -2.794837858468    -1.413753384224     1.919302387679     1.007825032230
         H           -3.310362858468    -2.023953384224     0.347343387679     1.007825032230
         H           -1.600152858468    -2.066302384224     0.783933387679     1.007825032230
         H           -5.043332858468    -0.664904384224    -0.363961612321     1.007825032230
         H           -4.353269858468     0.402655615776    -1.596047612321     1.007825032230
         H           -5.577395858468     1.016577615776    -0.470292612321     1.007825032230
         H            3.268840141532     1.842582615776    -0.074688612321     1.007825032230
         H            3.087773141532     1.064630615776     1.479280387679     1.007825032230
         H            4.834268141532    -0.649661384224     0.832503387679     1.007825032230
         H            5.010723141532     0.131157615776    -0.737611612321     1.007825032230
         H            5.490843141532     0.995398615776     0.737120387679     1.007825032230

  Basis Set: AUG-CC-PVTZ
    Blend: AUG-CC-PVTZ
  Basis Set: (AUG-CC-PVTZ AUX)
    Blend: AUG-CC-PVTZ-JKFIT
	 Reference Energy          =    -500.0357798853887061 [Eh]
	 Singles Energy            =      -0.0000000000000000 [Eh]
	 Same-Spin Energy          =      -0.5097970909666804 [Eh]
	 Opposite-Spin Energy      =      -1.7169343121448750 [Eh]
	 Correlation Energy        =      -2.2267314031115553 [Eh]
	 Total Energy              =    -502.2625112885002636 [Eh]

	 ================> DF-SCS-MP2 Energies <==================
	-----------------------------------------------------------
	 SCS Same-Spin Scale       =       0.3333333333333333 [-]
	 SCS Opposite-Spin Scale   =       1.2000000000000000 [-]
	 SCS Same-Spin Energy      =      -0.1699323636555601 [Eh]
	 SCS Opposite-Spin Energy  =      -2.0603211745738501 [Eh]
	 SCS Correlation Energy    =      -2.2302535382294102 [Eh]
	 SCS Total Energy          =    -502.2660334236181257 [Eh]
	-----------------------------------------------------------

  Dipole Moment: [D]
     X:    -1.4440      Y:     1.1703      Z:     0.8521     Total:     2.0447

*** Psi4 exiting successfully. Buy a developer a beer!
