                               Psi4 1.4a2.dev612

  ==> Input File <==

--------------------------------------------------------------------------
#psi4
#
memory 32 gb

molecule  {
0 1
  O        1.0716460     0.4753830     0.0137820
  O        2.5311320    -1.1057930    -0.7123110
  C       -2.3693550    -0.0883010     0.2982860
  C       -3.5980660     0.7810210     0.4066790
  C       -1.2626340     0.3942960    -0.2965320
  C        0.0082920    -0.3313460    -0.5624280
  C       -2.5776183    -1.5413355     0.6858277
  C       -4.7090750     0.3554230    -0.5595870
  C        3.3545870     0.8742710     0.4380940
  C        2.3120420    -0.0450080    -0.1482500
  C        4.7580620     0.3036620     0.3135630
  H       -3.3290990     1.8240090     0.2046860
  H       -3.9789780     0.7461160     1.4360390
  H       -1.2730680     1.4248330    -0.6509560
  H        0.2030610    -0.4353830    -1.6357720
  H        0.0474490    -1.3311670    -0.1253770
  H       -2.7951440    -1.4155820     1.9226690
  H       -3.3106690    -2.0257820     0.3507100
  H       -1.6004590    -2.0681310     0.7873000
  H       -5.0436390    -0.6667330    -0.3605950
  H       -4.3535760     0.4008270    -1.5926810
  H       -5.5777020     1.0147490    -0.4669260
  H        3.2685340     1.8407540    -0.0713220
  H        3.0874670     1.0628020     1.4826470
  H        4.8339620    -0.6514900     0.8358700
  H        5.0104170     0.1293290    -0.7342450
  H        5.4905370     0.9935700     0.7404870
units angstrom
no_reorient  #important for SAPT in psi4, default
symmetry c1  #important for SAPT in psi4, default
}

set PROPERTIES_ORIGIN ["COM"]
properties('MP2/aug-cc-pvtz', properties = ['dipole'])
--------------------------------------------------------------------------

    Molecular point group: c1
  Charge       = 0
  Multiplicity = 1
  Basis Set: AUG-CC-PVTZ
    Blend: AUG-CC-PVTZ
  Basis Set: (AUG-CC-PVTZ AUX)
    Blend: AUG-CC-PVTZ-JKFIT

    Orbital Energies [Eh]
    ---------------------

    Doubly Occupied:

       1A    -20.597851     2A    -20.541095     3A    -11.375885
       4A    -11.287175     5A    -11.248010     6A    -11.242425
       7A    -11.232301     8A    -11.228538     9A    -11.224725
      10A    -11.220381    11A    -11.218039    12A     -1.448581
      13A     -1.348000    14A     -1.113003    15A     -1.064232
      16A     -1.022524    17A     -0.979544    18A     -0.923869
      19A     -0.880201    20A     -0.833978    21A     -0.768165
      22A     -0.727744    23A     -0.689644    24A     -0.680241
      25A     -0.662251    26A     -0.644429    27A     -0.627080
      28A     -0.614684    29A     -0.585007    30A     -0.581873
      31A     -0.553404    32A     -0.547327    33A     -0.533993
      34A     -0.520344    35A     -0.517760    36A     -0.513568
      37A     -0.492818    38A     -0.486440    39A     -0.482901
      40A     -0.464936    41A     -0.457432    42A     -0.444763
      43A     -0.344745

  @DF-RHF Final Energy:  -499.99687472892703

   => Energetics <=

    Nuclear Repulsion Energy =            602.9492459490392093
    One-Electron Energy =               -1875.9484268155613336
    Two-Electron Energy =                 773.0023061375951556
    Total Energy =                       -499.9968747289270823
  Basis Set: (AUG-CC-PVTZ AUX)
    Blend: AUG-CC-PVTZ-RI
    Molecular point group: c1

    Geometry (in Angstrom), charge = 0, multiplicity = 1:

       Center              X                  Y                   Z               Mass
    ------------   -----------------  -----------------  -----------------  -----------------
         O            1.076596839747     0.480519269119     0.027399756219    15.994914619570
         O            2.536082839747    -1.100656730881    -0.698693243781    15.994914619570
         C           -2.364404160253    -0.083164730881     0.311903756219    12.000000000000
         C           -3.593115160253     0.786157269119     0.420296756219    12.000000000000
         C           -1.257683160253     0.399432269119    -0.282914243781    12.000000000000
         C            0.013242839747    -0.326209730881    -0.548810243781    12.000000000000
         C           -2.572667460253    -1.536199230881     0.699445456219    12.000000000000
         C           -4.704124160253     0.360559269119    -0.545969243781    12.000000000000
         C            3.359537839747     0.879407269119     0.451711756219    12.000000000000
         C            2.316992839747    -0.039871730881    -0.134632243781    12.000000000000
         C            4.763012839747     0.308798269119     0.327180756219    12.000000000000
         H           -3.324148160253     1.829145269119     0.218303756219     1.007825032230
         H           -3.974027160253     0.751252269119     1.449656756219     1.007825032230
         H           -1.268117160253     1.429969269119    -0.637338243781     1.007825032230
         H            0.208011839747    -0.430246730881    -1.622154243781     1.007825032230
         H            0.052399839747    -1.326030730881    -0.111759243781     1.007825032230
         H           -2.790193160253    -1.410445730881     1.936286756219     1.007825032230
         H           -3.305718160253    -2.020645730881     0.364327756219     1.007825032230
         H           -1.595508160253    -2.062994730881     0.800917756219     1.007825032230
         H           -5.038688160253    -0.661596730881    -0.346977243781     1.007825032230
         H           -4.348625160253     0.405963269119    -1.579063243781     1.007825032230
         H           -5.572751160253     1.019885269119    -0.453308243781     1.007825032230
         H            3.273484839747     1.845890269119    -0.057704243781     1.007825032230
         H            3.092417839747     1.067938269119     1.496264756219     1.007825032230
         H            4.838912839747    -0.646353730881     0.849487756219     1.007825032230
         H            5.015367839747     0.134465269119    -0.720627243781     1.007825032230
         H            5.495487839747     0.998706269119     0.754104756219     1.007825032230

  Basis Set: AUG-CC-PVTZ
    Blend: AUG-CC-PVTZ
  Basis Set: (AUG-CC-PVTZ AUX)
    Blend: AUG-CC-PVTZ-JKFIT
	 Reference Energy          =    -499.9968747289270254 [Eh]
	 Singles Energy            =      -0.0000000000000000 [Eh]
	 Same-Spin Energy          =      -0.5102749248755476 [Eh]
	 Opposite-Spin Energy      =      -1.7187220588960483 [Eh]
	 Correlation Energy        =      -2.2289969837715962 [Eh]
	 Total Energy              =    -502.2258717126986198 [Eh]

	 ================> DF-SCS-MP2 Energies <==================
	-----------------------------------------------------------
	 SCS Same-Spin Scale       =       0.3333333333333333 [-]
	 SCS Opposite-Spin Scale   =       1.2000000000000000 [-]
	 SCS Same-Spin Energy      =      -0.1700916416251825 [Eh]
	 SCS Opposite-Spin Energy  =      -2.0624664706752580 [Eh]
	 SCS Correlation Energy    =      -2.2325581123004405 [Eh]
	 SCS Total Energy          =    -502.2294328412274922 [Eh]
	-----------------------------------------------------------

  Dipole Moment: [D]
     X:    -1.4302      Y:     1.2017      Z:     0.6905     Total:     1.9916

*** Psi4 exiting successfully. Buy a developer a beer!
