                               Psi4 1.4a2.dev612

  ==> Input File <==

--------------------------------------------------------------------------
#psi4
#
memory 32 gb

molecule  {
0 1
  O        1.0716460     0.4753830     0.0137820
  O        2.5311320    -1.1057930    -0.7123110
  C       -2.3693550    -0.0883010     0.2982860
  C       -3.5980660     0.7810210     0.4066790
  C       -1.2626340     0.3942960    -0.2965320
  C        0.0082920    -0.3313460    -0.5624280
  C       -2.5132090    -1.4745150     0.8629900
  C       -4.7090750     0.3554230    -0.5595870
  C        3.3545870     0.8742710     0.4380940
  C        2.3120420    -0.0450080    -0.1482500
  C        4.7580620     0.3036620     0.3135630
  H       -3.3290990     1.8240090     0.2046860
  H       -3.9789780     0.7461160     1.4360390
  H       -1.2203206     1.4700210    -0.5180058
  H        0.2030610    -0.4353830    -1.6357720
  H        0.0474490    -1.3311670    -0.1253770
  H       -2.7951440    -1.4155820     1.9226690
  H       -3.3106690    -2.0257820     0.3507100
  H       -1.6004590    -2.0681310     0.7873000
  H       -5.0436390    -0.6667330    -0.3605950
  H       -4.3535760     0.4008270    -1.5926810
  H       -5.5777020     1.0147490    -0.4669260
  H        3.2685340     1.8407540    -0.0713220
  H        3.0874670     1.0628020     1.4826470
  H        4.8339620    -0.6514900     0.8358700
  H        5.0104170     0.1293290    -0.7342450
  H        5.4905370     0.9935700     0.7404870
units angstrom
no_reorient  #important for SAPT in psi4, default
symmetry c1  #important for SAPT in psi4, default
}

set PROPERTIES_ORIGIN ["COM"]
properties('MP2/aug-cc-pvtz', properties = ['dipole'])
--------------------------------------------------------------------------

    Molecular point group: c1
  Charge       = 0
  Multiplicity = 1
  Basis Set: AUG-CC-PVTZ
    Blend: AUG-CC-PVTZ
  Basis Set: (AUG-CC-PVTZ AUX)
    Blend: AUG-CC-PVTZ-JKFIT

    Orbital Energies [Eh]
    ---------------------

    Doubly Occupied:

       1A    -20.597823     2A    -20.541020     3A    -11.375867
       4A    -11.286658     5A    -11.244174     6A    -11.242478
       7A    -11.228328     8A    -11.226452     9A    -11.224193
      10A    -11.219106    11A    -11.218067    12A     -1.448518
      13A     -1.347936    14A     -1.112342    15A     -1.064153
      16A     -1.021719    17A     -0.977923    18A     -0.919476
      19A     -0.879236    20A     -0.833329    21A     -0.768311
      22A     -0.721879    23A     -0.687062    24A     -0.680064
      25A     -0.660589    26A     -0.637778    27A     -0.623529
      28A     -0.605098    29A     -0.588770    30A     -0.574337
      31A     -0.552878    32A     -0.544706    33A     -0.533117
      34A     -0.522892    35A     -0.517885    36A     -0.514804
      37A     -0.511255    38A     -0.492651    39A     -0.483714
      40A     -0.465412    41A     -0.458118    42A     -0.444461
      43A     -0.344976

  @DF-RHF Final Energy:  -500.03695581987949

   => Energetics <=

    Nuclear Repulsion Energy =            603.0904454193724860
    One-Electron Energy =               -1876.3686337755491422
    Two-Electron Energy =                 773.2412325362970478
    Total Energy =                       -500.0369558198794948
  Basis Set: (AUG-CC-PVTZ AUX)
    Blend: AUG-CC-PVTZ-RI
    Molecular point group: c1

    Geometry (in Angstrom), charge = 0, multiplicity = 1:

       Center              X                  Y                   Z               Mass
    ------------   -----------------  -----------------  -----------------  -----------------
         O            1.071305409759     0.475091299763     0.012923647524    15.994914619570
         O            2.530791409759    -1.106084700237    -0.713169352476    15.994914619570
         C           -2.369695590241    -0.088592700237     0.297427647524    12.000000000000
         C           -3.598406590241     0.780729299763     0.405820647524    12.000000000000
         C           -1.262974590241     0.394004299763    -0.297390352476    12.000000000000
         C            0.007951409759    -0.331637700237    -0.563286352476    12.000000000000
         C           -2.513549590241    -1.474806700237     0.862131647524    12.000000000000
         C           -4.709415590241     0.355131299763    -0.560445352476    12.000000000000
         C            3.354246409759     0.873979299763     0.437235647524    12.000000000000
         C            2.311701409759    -0.045299700237    -0.149108352476    12.000000000000
         C            4.757721409759     0.303370299763     0.312704647524    12.000000000000
         H           -3.329439590241     1.823717299763     0.203827647524     1.007825032230
         H           -3.979318590241     0.745824299763     1.435180647524     1.007825032230
         H           -1.220661190241     1.469729299763    -0.518864152476     1.007825032230
         H            0.202720409759    -0.435674700237    -1.636630352476     1.007825032230
         H            0.047108409759    -1.331458700237    -0.126235352476     1.007825032230
         H           -2.795484590241    -1.415873700237     1.921810647524     1.007825032230
         H           -3.311009590241    -2.026073700237     0.349851647524     1.007825032230
         H           -1.600799590241    -2.068422700237     0.786441647524     1.007825032230
         H           -5.043979590241    -0.667024700237    -0.361453352476     1.007825032230
         H           -4.353916590241     0.400535299763    -1.593539352476     1.007825032230
         H           -5.578042590241     1.014457299763    -0.467784352476     1.007825032230
         H            3.268193409759     1.840462299763    -0.072180352476     1.007825032230
         H            3.087126409759     1.062510299763     1.481788647524     1.007825032230
         H            4.833621409759    -0.651781700237     0.835011647524     1.007825032230
         H            5.010076409759     0.129037299763    -0.735103352476     1.007825032230
         H            5.490196409759     0.993278299763     0.739628647524     1.007825032230

  Basis Set: AUG-CC-PVTZ
    Blend: AUG-CC-PVTZ
  Basis Set: (AUG-CC-PVTZ AUX)
    Blend: AUG-CC-PVTZ-JKFIT
	 Reference Energy          =    -500.0369558198794948 [Eh]
	 Singles Energy            =      -0.0000000000000000 [Eh]
	 Same-Spin Energy          =      -0.5098322564813516 [Eh]
	 Opposite-Spin Energy      =      -1.7169783724898002 [Eh]
	 Correlation Energy        =      -2.2268106289711520 [Eh]
	 Total Energy              =    -502.2637664488506744 [Eh]

	 ================> DF-SCS-MP2 Energies <==================
	-----------------------------------------------------------
	 SCS Same-Spin Scale       =       0.3333333333333333 [-]
	 SCS Opposite-Spin Scale   =       1.2000000000000000 [-]
	 SCS Same-Spin Energy      =      -0.1699440854937838 [Eh]
	 SCS Opposite-Spin Energy  =      -2.0603740469877603 [Eh]
	 SCS Correlation Energy    =      -2.2303181324815440 [Eh]
	 SCS Total Energy          =    -502.2672739523610517 [Eh]
	-----------------------------------------------------------

  Dipole Moment: [D]
     X:    -1.3903      Y:     1.1938      Z:     0.9089     Total:     2.0455

*** Psi4 exiting successfully. Buy a developer a beer!
