                               Psi4 1.3.2 release

  ==> Input File <==

--------------------------------------------------------------------------
#psi4
#
memory 32 gb

molecule  {
-1 1
  O        1.3719500     1.0365520     0.0001530
  O        1.2974920    -1.2070900     0.0002320
  O       -1.4356099    -1.0997112    -0.0003507
  O       -1.2763200     1.2290260    -0.0002110
  C        0.6716220    -0.1528200    -0.0001790
  C       -0.8948800     0.0328190     0.0003190
  H        2.3009280     0.7259580     0.0001900
units angstrom
no_reorient  #important for SAPT in psi4, default
symmetry c1  #important for SAPT in psi4, default
}

set PROPERTIES_ORIGIN ["COM"]
properties('MP2/aug-cc-pvtz', properties = ['dipole'])
--------------------------------------------------------------------------

    Molecular point group: c1
  Charge       = -1
  Multiplicity = 1
  Basis Set: AUG-CC-PVTZ
    Blend: AUG-CC-PVTZ
  Basis Set: (AUG-CC-PVTZ AUX)
    Blend: AUG-CC-PVTZ-JKFIT

    Orbital Energies [Eh]
    ---------------------

    Doubly Occupied:

       1A    -20.458105     2A    -20.398107     3A    -20.330952
       4A    -20.326715     5A    -11.223329     6A    -11.180018
       7A     -1.298754     8A     -1.196933     9A     -1.189096
      10A     -1.107099    11A     -0.728955    12A     -0.575352
      13A     -0.544529    14A     -0.495382    15A     -0.467581
      16A     -0.440615    17A     -0.425669    18A     -0.377880
      19A     -0.329779    20A     -0.324844    21A     -0.247978
      22A     -0.226312    23A     -0.221803

  @DF-RHF Final Energy:  -375.96620264607213

   => Energetics <=

    Nuclear Repulsion Energy =            218.6585266900156910
    One-Electron Energy =                -961.0178868709926974
    Two-Electron Energy =                 366.3931575349048444
    Total Energy =                       -375.9662026460721336
  Basis Set: (AUG-CC-PVTZ AUX)
    Blend: AUG-CC-PVTZ-RI
    Molecular point group: c1

    Geometry (in Angstrom), charge = -1, multiplicity = 1:

       Center              X                  Y                   Z               Mass
    ------------   -----------------  -----------------  -----------------  -----------------
         O            1.383634266776     1.051921969637     0.000163729764    15.994914619570
         O            1.309176266776    -1.191720030363     0.000242729764    15.994914619570
         O           -1.423925633224    -1.084341230363    -0.000339970236    15.994914619570
         O           -1.264635733224     1.244395969637    -0.000200270236    15.994914619570
         C            0.683306266776    -0.137450030363    -0.000168270236    12.000000000000
         C           -0.883195733224     0.048188969637     0.000329729764    12.000000000000
         H            2.312612266776     0.741327969637     0.000200729764     1.007825032230

  Basis Set: AUG-CC-PVTZ
    Blend: AUG-CC-PVTZ
  Basis Set: (AUG-CC-PVTZ AUX)
    Blend: AUG-CC-PVTZ-JKFIT
	 Reference Energy          =    -375.9662026460721336 [Eh]
	 Singles Energy            =      -0.0000000000000000 [Eh]
	 Same-Spin Energy          =      -0.3590400343889507 [Eh]
	 Opposite-Spin Energy      =      -1.0177416906417198 [Eh]
	 Correlation Energy        =      -1.3767817250306704 [Eh]
	 Total Energy              =    -377.3429843711028298 [Eh]

	 ================> DF-SCS-MP2 Energies <==================
	-----------------------------------------------------------
	 SCS Same-Spin Scale       =       0.3333333333333333 [-]
	 SCS Opposite-Spin Scale   =       1.2000000000000000 [-]
	 SCS Same-Spin Energy      =      -0.1196800114629835 [Eh]
	 SCS Opposite-Spin Energy  =      -1.2212900287700637 [Eh]
	 SCS Correlation Energy    =      -1.3409700402330471 [Eh]
	 SCS Total Energy          =    -377.3071726863051936 [Eh]
	-----------------------------------------------------------

  Dipole Moment: [D]
     X:     4.8102      Y:     0.7946      Z:     0.0007     Total:     4.8754

*** Psi4 exiting successfully. Buy a developer a beer!
