                               Psi4 1.3.2 release

  ==> Input File <==

--------------------------------------------------------------------------
#psi4
#
memory 32 gb

molecule  {
-1 1
  O        1.3719500     1.0365520     0.0001530
  O        1.2974920    -1.2070900     0.0002320
  O       -1.5132940    -1.0592330    -0.0003040
  O       -1.2763200     1.2290260    -0.0002110
  C        0.6716220    -0.1528200    -0.0001790
  C       -0.8948800     0.0328190     0.0003190
  H        2.2060883     0.7576666     0.0001862
units angstrom
no_reorient  #important for SAPT in psi4, default
symmetry c1  #important for SAPT in psi4, default
}

set PROPERTIES_ORIGIN ["COM"]
properties('MP2/aug-cc-pvtz', properties = ['dipole'])
--------------------------------------------------------------------------

    Molecular point group: c1
  Charge       = -1
  Multiplicity = 1
  Basis Set: AUG-CC-PVTZ
    Blend: AUG-CC-PVTZ
  Basis Set: (AUG-CC-PVTZ AUX)
    Blend: AUG-CC-PVTZ-JKFIT

    Orbital Energies [Eh]
    ---------------------

    Doubly Occupied:

       1A    -20.452963     2A    -20.404393     3A    -20.326955
       4A    -20.324568     5A    -11.230908     6A    -11.178214
       7A     -1.320017     8A     -1.208325     9A     -1.192243
      10A     -1.101237    11A     -0.746537    12A     -0.588535
      13A     -0.558072    14A     -0.496342    15A     -0.473651
      16A     -0.448248    17A     -0.422570    18A     -0.377590
      19A     -0.334871    20A     -0.330621    21A     -0.243659
      22A     -0.230611    23A     -0.218011

  @DF-RHF Final Energy:  -375.96418830770790

   => Energetics <=

    Nuclear Repulsion Energy =            218.7929631033030944
    One-Electron Energy =                -961.0960182462702051
    Two-Electron Energy =                 366.3388668352591822
    Total Energy =                       -375.9641883077079001
  Basis Set: (AUG-CC-PVTZ AUX)
    Blend: AUG-CC-PVTZ-RI
    Molecular point group: c1

    Geometry (in Angstrom), charge = -1, multiplicity = 1:

       Center              X                  Y                   Z               Mass
    ------------   -----------------  -----------------  -----------------  -----------------
         O            1.398671576719     1.044287164752     0.000155378783    15.994914619570
         O            1.324213576719    -1.199354835248     0.000234378783    15.994914619570
         O           -1.486572423281    -1.051497835248    -0.000301621217    15.994914619570
         O           -1.249598423281     1.236761164752    -0.000208621217    15.994914619570
         C            0.698343576719    -0.145084835248    -0.000176621217    12.000000000000
         C           -0.868158423281     0.040554164752     0.000321378783    12.000000000000
         H            2.232809876719     0.765401764752     0.000188578783     1.007825032230

  Basis Set: AUG-CC-PVTZ
    Blend: AUG-CC-PVTZ
  Basis Set: (AUG-CC-PVTZ AUX)
    Blend: AUG-CC-PVTZ-JKFIT
	 Reference Energy          =    -375.9641883077079001 [Eh]
	 Singles Energy            =      -0.0000000000000000 [Eh]
	 Same-Spin Energy          =      -0.3574533144483582 [Eh]
	 Opposite-Spin Energy      =      -1.0145232682603993 [Eh]
	 Correlation Energy        =      -1.3719765827087576 [Eh]
	 Total Energy              =    -377.3361648904166827 [Eh]

	 ================> DF-SCS-MP2 Energies <==================
	-----------------------------------------------------------
	 SCS Same-Spin Scale       =       0.3333333333333333 [-]
	 SCS Opposite-Spin Scale   =       1.2000000000000000 [-]
	 SCS Same-Spin Energy      =      -0.1191511048161194 [Eh]
	 SCS Opposite-Spin Energy  =      -1.2174279219124791 [Eh]
	 SCS Correlation Energy    =      -1.3365790267285984 [Eh]
	 SCS Total Energy          =    -377.3007673344365003 [Eh]
	-----------------------------------------------------------

  Dipole Moment: [D]
     X:     4.9748      Y:     0.7611      Z:     0.0006     Total:     5.0327

*** Psi4 exiting successfully. Buy a developer a beer!
