                               Psi4 1.3.2 release

  ==> Input File <==

--------------------------------------------------------------------------
#psi4
#
memory 32 gb

molecule  {
-1 1
  O        1.3719500     1.0365520     0.0001530
  O        1.2974920    -1.2070900     0.0002320
  O       -1.4941409    -1.0698595    -0.0003160
  O       -1.2763200     1.2290260    -0.0002110
  C        0.6716220    -0.1528200    -0.0001790
  C       -0.8948800     0.0328190     0.0003190
  H        2.3009280     0.7259580     0.0001900
units angstrom
no_reorient  #important for SAPT in psi4, default
symmetry c1  #important for SAPT in psi4, default
}

set PROPERTIES_ORIGIN ["COM"]
properties('MP2/aug-cc-pvtz', properties = ['dipole'])
--------------------------------------------------------------------------

    Molecular point group: c1
  Charge       = -1
  Multiplicity = 1
  Basis Set: AUG-CC-PVTZ
    Blend: AUG-CC-PVTZ
  Basis Set: (AUG-CC-PVTZ AUX)
    Blend: AUG-CC-PVTZ-JKFIT

    Orbital Energies [Eh]
    ---------------------

    Doubly Occupied:

       1A    -20.460868     2A    -20.401545     3A    -20.327736
       4A    -20.325021     5A    -11.227904     6A    -11.178642
       7A     -1.301434     8A     -1.197598     9A     -1.190913
      10A     -1.102424    11A     -0.731975    12A     -0.577608
      13A     -0.547192    14A     -0.495135    15A     -0.469848
      16A     -0.442305    17A     -0.423114    18A     -0.376910
      19A     -0.332189    20A     -0.327468    21A     -0.244465
      22A     -0.229147    23A     -0.218813

  @DF-RHF Final Energy:  -375.96810435091191

   => Energetics <=

    Nuclear Repulsion Energy =            218.2677959189921637
    One-Electron Energy =                -960.2112913324613146
    Two-Electron Energy =                 365.9753910625572075
    Total Energy =                       -375.9681043509119149
  Basis Set: (AUG-CC-PVTZ AUX)
    Blend: AUG-CC-PVTZ-RI
    Molecular point group: c1

    Geometry (in Angstrom), charge = -1, multiplicity = 1:

       Center              X                  Y                   Z               Mass
    ------------   -----------------  -----------------  -----------------  -----------------
         O            1.394154828890     1.046556322987     0.000157492667    15.994914619570
         O            1.319696828890    -1.197085677013     0.000236492667    15.994914619570
         O           -1.471936071110    -1.059855177013    -0.000311507333    15.994914619570
         O           -1.254115171110     1.239030322987    -0.000206507333    15.994914619570
         C            0.693826828890    -0.142815677013    -0.000174507333    12.000000000000
         C           -0.872675171110     0.042823322987     0.000323492667    12.000000000000
         H            2.323132828890     0.735962322987     0.000194492667     1.007825032230

  Basis Set: AUG-CC-PVTZ
    Blend: AUG-CC-PVTZ
  Basis Set: (AUG-CC-PVTZ AUX)
    Blend: AUG-CC-PVTZ-JKFIT
	 Reference Energy          =    -375.9681043509119149 [Eh]
	 Singles Energy            =      -0.0000000000000000 [Eh]
	 Same-Spin Energy          =      -0.3588311330746273 [Eh]
	 Opposite-Spin Energy      =      -1.0175287181857273 [Eh]
	 Correlation Energy        =      -1.3763598512603545 [Eh]
	 Total Energy              =    -377.3444642021722757 [Eh]

	 ================> DF-SCS-MP2 Energies <==================
	-----------------------------------------------------------
	 SCS Same-Spin Scale       =       0.3333333333333333 [-]
	 SCS Opposite-Spin Scale   =       1.2000000000000000 [-]
	 SCS Same-Spin Energy      =      -0.1196103776915424 [Eh]
	 SCS Opposite-Spin Energy  =      -1.2210344618228728 [Eh]
	 SCS Correlation Energy    =      -1.3406448395144153 [Eh]
	 SCS Total Energy          =    -377.3087491904263402 [Eh]
	-----------------------------------------------------------

  Dipole Moment: [D]
     X:     4.9800      Y:     0.7635      Z:     0.0007     Total:     5.0382

*** Psi4 exiting successfully. Buy a developer a beer!
