                               Psi4 1.3.2 release

  ==> Input File <==

--------------------------------------------------------------------------
#psi4
#
memory 32 gb

molecule  {
-1 1
  O        1.3510859     1.0485933     0.0001638
  O        1.2974920    -1.2070900     0.0002320
  O       -1.5132940    -1.0592330    -0.0003040
  O       -1.2763200     1.2290260    -0.0002110
  C        0.6716220    -0.1528200    -0.0001790
  C       -0.8948800     0.0328190     0.0003190
  H        2.3009280     0.7259580     0.0001900
units angstrom
no_reorient  #important for SAPT in psi4, default
symmetry c1  #important for SAPT in psi4, default
}

set PROPERTIES_ORIGIN ["COM"]
properties('MP2/aug-cc-pvtz', properties = ['dipole'])
--------------------------------------------------------------------------

    Molecular point group: c1
  Charge       = -1
  Multiplicity = 1
  Basis Set: AUG-CC-PVTZ
    Blend: AUG-CC-PVTZ
  Basis Set: (AUG-CC-PVTZ AUX)
    Blend: AUG-CC-PVTZ-JKFIT

    Orbital Energies [Eh]
    ---------------------

    Doubly Occupied:

       1A    -20.464838     2A    -20.403725     3A    -20.325881
       4A    -20.323666     5A    -11.229487     6A    -11.177029
       7A     -1.299861     8A     -1.196978     9A     -1.191206
      10A     -1.100066    11A     -0.729955    12A     -0.574717
      13A     -0.546547    14A     -0.495254    15A     -0.470596
      16A     -0.441619    17A     -0.421590    18A     -0.375706
      19A     -0.334093    20A     -0.329164    21A     -0.242338
      22A     -0.229030    23A     -0.217145

  @DF-RHF Final Energy:  -375.96589608510374

   => Energetics <=

    Nuclear Repulsion Energy =            218.1603379432251302
    One-Electron Energy =                -960.0114834990386044
    Two-Electron Energy =                 365.8852494707097094
    Total Energy =                       -375.9658960851037364
  Basis Set: (AUG-CC-PVTZ AUX)
    Blend: AUG-CC-PVTZ-RI
    Molecular point group: c1

    Geometry (in Angstrom), charge = -1, multiplicity = 1:

       Center              X                  Y                   Z               Mass
    ------------   -----------------  -----------------  -----------------  -----------------
         O            1.380483557275     1.054523235092     0.000164194517    15.994914619570
         O            1.326889657275    -1.201160064908     0.000232394517    15.994914619570
         O           -1.483896342725    -1.053303064908    -0.000303605483    15.994914619570
         O           -1.246922342725     1.234955935092    -0.000210605483    15.994914619570
         C            0.701019657275    -0.146890064908    -0.000178605483    12.000000000000
         C           -0.865482342725     0.038748935092     0.000319394517    12.000000000000
         H            2.330325657275     0.731887935092     0.000190394517     1.007825032230

  Basis Set: AUG-CC-PVTZ
    Blend: AUG-CC-PVTZ
  Basis Set: (AUG-CC-PVTZ AUX)
    Blend: AUG-CC-PVTZ-JKFIT
	 Reference Energy          =    -375.9658960851037364 [Eh]
	 Singles Energy            =      -0.0000000000000000 [Eh]
	 Same-Spin Energy          =      -0.3592569076569887 [Eh]
	 Opposite-Spin Energy      =      -1.0185065938149591 [Eh]
	 Correlation Energy        =      -1.3777635014719478 [Eh]
	 Total Energy              =    -377.3436595865757113 [Eh]

	 ================> DF-SCS-MP2 Energies <==================
	-----------------------------------------------------------
	 SCS Same-Spin Scale       =       0.3333333333333333 [-]
	 SCS Opposite-Spin Scale   =       1.2000000000000000 [-]
	 SCS Same-Spin Energy      =      -0.1197523025523296 [Eh]
	 SCS Opposite-Spin Energy  =      -1.2222079125779508 [Eh]
	 SCS Correlation Energy    =      -1.3419602151302803 [Eh]
	 SCS Total Energy          =    -377.3078563002339934 [Eh]
	-----------------------------------------------------------

  Dipole Moment: [D]
     X:     5.0592      Y:     0.7607      Z:     0.0006     Total:     5.1161

*** Psi4 exiting successfully. Buy a developer a beer!
