                               Psi4 1.4a3.dev225

  ==> Input File <==

--------------------------------------------------------------------------
#psi4
#
memory 32 gb

molecule  {
-1 1
  O        1.3597160     1.0340070     0.0001290
  O        1.2734010    -1.2190390     0.0000720
  O       -1.5027660    -1.0525350    -0.0000800
  O       -1.2798520     1.2230830    -0.0001310
  C        0.6828900    -0.1460180     0.0000490
  C       -0.8683810     0.0342010    -0.0000690
  H        2.2605722     0.7993810     0.0001983
units angstrom
no_reorient  #important for SAPT in psi4, default
symmetry c1  #important for SAPT in psi4, default
}

set PROPERTIES_ORIGIN ["COM"]
properties('MP2/aug-cc-pvtz', properties = ['dipole'])
--------------------------------------------------------------------------

    Molecular point group: c1
  Charge       = -1
  Multiplicity = 1
  Basis Set: AUG-CC-PVTZ
    Blend: AUG-CC-PVTZ
  Basis Set: (AUG-CC-PVTZ AUX)
    Blend: AUG-CC-PVTZ-JKFIT

    Orbital Energies [Eh]
    ---------------------

    Doubly Occupied:

       1A    -20.463955     2A    -20.402314     3A    -20.321913
       4A    -20.318849     5A    -11.229921     6A    -11.171862
       7A     -1.316828     8A     -1.206954     9A     -1.187141
      10A     -1.092585    11A     -0.749478    12A     -0.592967
      13A     -0.555326    14A     -0.493213    15A     -0.478759
      16A     -0.442489    17A     -0.416606    18A     -0.373139
      19A     -0.333357    20A     -0.329701    21A     -0.236788
      22A     -0.229644    23A     -0.211898

  @DF-RHF Final Energy:  -375.97001124237539

   => Energetics <=

    Nuclear Repulsion Energy =            219.2656042990083733
    One-Electron Energy =                -962.1598571619103950
    Two-Electron Energy =                 366.9242416205266295
    Total Energy =                       -375.9700112423753922
  Basis Set: (AUG-CC-PVTZ AUX)
    Blend: AUG-CC-PVTZ-RI
    Molecular point group: c1

    Geometry (in Angstrom), charge = -1, multiplicity = 1:

       Center              X                  Y                   Z               Mass
    ------------   -----------------  -----------------  -----------------  -----------------
         O            1.385999319720     1.042635608552     0.000131248602    15.994914619570
         O            1.299684319720    -1.210410391448     0.000074248602    15.994914619570
         O           -1.476482680280    -1.043906391448    -0.000077751398    15.994914619570
         O           -1.253568680280     1.231711608552    -0.000128751398    15.994914619570
         C            0.709173319720    -0.137389391448     0.000051248602    12.000000000000
         C           -0.842097680280     0.042829608552    -0.000066751398    12.000000000000
         H            2.286855519720     0.808009608552     0.000200548602     1.007825032230

  Basis Set: AUG-CC-PVTZ
    Blend: AUG-CC-PVTZ
  Basis Set: (AUG-CC-PVTZ AUX)
    Blend: AUG-CC-PVTZ-JKFIT
	 Reference Energy          =    -375.9700112423753922 [Eh]
	 Singles Energy            =      -0.0000000000000000 [Eh]
	 Same-Spin Energy          =      -0.3579657737967721 [Eh]
	 Opposite-Spin Energy      =      -1.0154757880577072 [Eh]
	 Correlation Energy        =      -1.3734415618544793 [Eh]
	 Total Energy              =    -377.3434528042298552 [Eh]

	 ================> DF-SCS-MP2 Energies <==================
	-----------------------------------------------------------
	 SCS Same-Spin Scale       =       0.3333333333333333 [-]
	 SCS Opposite-Spin Scale   =       1.2000000000000000 [-]
	 SCS Same-Spin Energy      =      -0.1193219245989240 [Eh]
	 SCS Opposite-Spin Energy  =      -1.2185709456692486 [Eh]
	 SCS Correlation Energy    =      -1.3378928702681727 [Eh]
	 SCS Total Energy          =    -377.3079041126435413 [Eh]
	-----------------------------------------------------------

  Dipole Moment: [D]
     X:     5.3437      Y:     0.9398      Z:     0.0004     Total:     5.4257

*** Psi4 exiting successfully. Buy a developer a beer!
