                               Psi4 1.4a3.dev225

  ==> Input File <==

--------------------------------------------------------------------------
#psi4
#
memory 32 gb

molecule  {
-1 1
  O        1.3597160     1.0340070     0.0001290
  O        1.2734010    -1.2190390     0.0000720
  O       -1.5027660    -1.0525350    -0.0000800
  O       -1.2798520     1.2230830    -0.0001310
  C        0.6828900    -0.1460180     0.0000490
  C       -0.8784638     0.0169286    -0.0000692
  H        2.3089580     0.7867790     0.0002020
units angstrom
no_reorient  #important for SAPT in psi4, default
symmetry c1  #important for SAPT in psi4, default
}

set PROPERTIES_ORIGIN ["COM"]
properties('MP2/aug-cc-pvtz', properties = ['dipole'])
--------------------------------------------------------------------------

    Molecular point group: c1
  Charge       = -1
  Multiplicity = 1
  Basis Set: AUG-CC-PVTZ
    Blend: AUG-CC-PVTZ
  Basis Set: (AUG-CC-PVTZ AUX)
    Blend: AUG-CC-PVTZ-JKFIT

    Orbital Energies [Eh]
    ---------------------

    Doubly Occupied:

       1A    -20.467211     2A    -20.400418     3A    -20.323358
       4A    -20.317761     5A    -11.227727     6A    -11.171853
       7A     -1.307495     8A     -1.202752     9A     -1.189055
      10A     -1.094150    11A     -0.738481    12A     -0.587264
      13A     -0.549555    14A     -0.492290    15A     -0.476044
      16A     -0.440302    17A     -0.417924    18A     -0.374702
      19A     -0.331631    20A     -0.327951    21A     -0.239286
      22A     -0.226559    23A     -0.213078

  @DF-RHF Final Energy:  -375.96940348096513

   => Energetics <=

    Nuclear Repulsion Energy =            218.9350869415927150
    One-Electron Energy =                -961.5752871221724263
    Two-Electron Energy =                 366.6707966996146411
    Total Energy =                       -375.9694034809651271
  Basis Set: (AUG-CC-PVTZ AUX)
    Blend: AUG-CC-PVTZ-RI
    Molecular point group: c1

    Geometry (in Angstrom), charge = -1, multiplicity = 1:

       Center              X                  Y                   Z               Mass
    ------------   -----------------  -----------------  -----------------  -----------------
         O            1.386810997686     1.045107522606     0.000131233668    15.994914619570
         O            1.300495997686    -1.207938477394     0.000074233668    15.994914619570
         O           -1.475671002314    -1.041434477394    -0.000077766332    15.994914619570
         O           -1.252757002314     1.234183522606    -0.000128766332    15.994914619570
         C            0.709984997686    -0.134917477394     0.000051233668    12.000000000000
         C           -0.851368802314     0.028029122606    -0.000066966332    12.000000000000
         H            2.336052997686     0.797879522606     0.000204233668     1.007825032230

  Basis Set: AUG-CC-PVTZ
    Blend: AUG-CC-PVTZ
  Basis Set: (AUG-CC-PVTZ AUX)
    Blend: AUG-CC-PVTZ-JKFIT
	 Reference Energy          =    -375.9694034809651271 [Eh]
	 Singles Energy            =      -0.0000000000000000 [Eh]
	 Same-Spin Energy          =      -0.3584050669519139 [Eh]
	 Opposite-Spin Energy      =      -1.0164808661472851 [Eh]
	 Correlation Energy        =      -1.3748859330991989 [Eh]
	 Total Energy              =    -377.3442894140643489 [Eh]

	 ================> DF-SCS-MP2 Energies <==================
	-----------------------------------------------------------
	 SCS Same-Spin Scale       =       0.3333333333333333 [-]
	 SCS Opposite-Spin Scale   =       1.2000000000000000 [-]
	 SCS Same-Spin Energy      =      -0.1194683556506380 [Eh]
	 SCS Opposite-Spin Energy  =      -1.2197770393767420 [Eh]
	 SCS Correlation Energy    =      -1.3392453950273799 [Eh]
	 SCS Total Energy          =    -377.3086488759925032 [Eh]
	-----------------------------------------------------------

  Dipole Moment: [D]
     X:     5.2981      Y:     0.7587      Z:     0.0004     Total:     5.3522

*** Psi4 exiting successfully. Buy a developer a beer!
