                               Psi4 1.3.2 release

  ==> Input File <==

--------------------------------------------------------------------------
#psi4
#
memory 32 gb

molecule  {
-1 1
  O        1.3719500     1.0365520     0.0001530
  O        1.3157962    -1.1960065     0.0002179
  O       -1.5132940    -1.0592330    -0.0003040
  O       -1.2763200     1.2290260    -0.0002110
  C        0.6716220    -0.1528200    -0.0001790
  C       -0.8948800     0.0328190     0.0003190
  H        2.3009280     0.7259580     0.0001900
units angstrom
no_reorient  #important for SAPT in psi4, default
symmetry c1  #important for SAPT in psi4, default
}

set PROPERTIES_ORIGIN ["COM"]
properties('MP2/aug-cc-pvtz', properties = ['dipole'])
--------------------------------------------------------------------------

    Molecular point group: c1
  Charge       = -1
  Multiplicity = 1
  Basis Set: AUG-CC-PVTZ
    Blend: AUG-CC-PVTZ
  Basis Set: (AUG-CC-PVTZ AUX)
    Blend: AUG-CC-PVTZ-JKFIT

    Orbital Energies [Eh]
    ---------------------

    Doubly Occupied:

       1A    -20.459989     2A    -20.402389     3A    -20.327480
       4A    -20.325353     5A    -11.229491     6A    -11.179414
       7A     -1.302523     8A     -1.197060     9A     -1.191664
      10A     -1.101662    11A     -0.733244    12A     -0.578158
      13A     -0.547269    14A     -0.495407    15A     -0.470236
      16A     -0.443066    17A     -0.422966    18A     -0.377086
      19A     -0.332686    20A     -0.327758    21A     -0.244063
      22A     -0.230911    23A     -0.218526

  @DF-RHF Final Energy:  -375.96827811037656

   => Energetics <=

    Nuclear Repulsion Energy =            218.1110705807394083
    One-Electron Energy =                -959.8818951853345425
    Two-Electron Energy =                 365.8025464942186318
    Total Energy =                       -375.9682781103765592
  Basis Set: (AUG-CC-PVTZ AUX)
    Blend: AUG-CC-PVTZ-RI
    Molecular point group: c1

    Geometry (in Angstrom), charge = -1, multiplicity = 1:

       Center              X                  Y                   Z               Mass
    ------------   -----------------  -----------------  -----------------  -----------------
         O            1.394307413079     1.042654093340     0.000157870128    15.994914619570
         O            1.338153613079    -1.189904406660     0.000222770128    15.994914619570
         O           -1.490936586921    -1.053130906660    -0.000299129872    15.994914619570
         O           -1.253962586921     1.235128093340    -0.000206129872    15.994914619570
         C            0.693979413079    -0.146717906660    -0.000174129872    12.000000000000
         C           -0.872522586921     0.038921093340     0.000323870128    12.000000000000
         H            2.323285413079     0.732060093340     0.000194870128     1.007825032230

  Basis Set: AUG-CC-PVTZ
    Blend: AUG-CC-PVTZ
  Basis Set: (AUG-CC-PVTZ AUX)
    Blend: AUG-CC-PVTZ-JKFIT
	 Reference Energy          =    -375.9682781103765592 [Eh]
	 Singles Energy            =      -0.0000000000000000 [Eh]
	 Same-Spin Energy          =      -0.3587578901888043 [Eh]
	 Opposite-Spin Energy      =      -1.0174353253792021 [Eh]
	 Correlation Energy        =      -1.3761932155680063 [Eh]
	 Total Energy              =    -377.3444713259445393 [Eh]

	 ================> DF-SCS-MP2 Energies <==================
	-----------------------------------------------------------
	 SCS Same-Spin Scale       =       0.3333333333333333 [-]
	 SCS Opposite-Spin Scale   =       1.2000000000000000 [-]
	 SCS Same-Spin Energy      =      -0.1195859633962681 [Eh]
	 SCS Opposite-Spin Energy  =      -1.2209223904550426 [Eh]
	 SCS Correlation Energy    =      -1.3405083538513107 [Eh]
	 SCS Total Energy          =    -377.3087864642278646 [Eh]
	-----------------------------------------------------------

  Dipole Moment: [D]
     X:     4.9847      Y:     0.7444      Z:     0.0007     Total:     5.0399

*** Psi4 exiting successfully. Buy a developer a beer!
