                               Psi4 1.3.2 release

  ==> Input File <==

--------------------------------------------------------------------------
#psi4
#
memory 32 gb

molecule  {
-1 1
  O        1.3719500     1.0365520     0.0001530
  O        1.1838622    -1.2667358     0.0003136
  O       -1.5132940    -1.0592330    -0.0003040
  O       -1.2763200     1.2290260    -0.0002110
  C        0.6716220    -0.1528200    -0.0001790
  C       -0.8948800     0.0328190     0.0003190
  H        2.3009280     0.7259580     0.0001900
units angstrom
no_reorient  #important for SAPT in psi4, default
symmetry c1  #important for SAPT in psi4, default
}

set PROPERTIES_ORIGIN ["COM"]
properties('MP2/aug-cc-pvtz', properties = ['dipole'])
--------------------------------------------------------------------------

    Molecular point group: c1
  Charge       = -1
  Multiplicity = 1
  Basis Set: AUG-CC-PVTZ
    Blend: AUG-CC-PVTZ
  Basis Set: (AUG-CC-PVTZ AUX)
    Blend: AUG-CC-PVTZ-JKFIT

    Orbital Energies [Eh]
    ---------------------

    Doubly Occupied:

       1A    -20.471722     2A    -20.403749     3A    -20.321466
       4A    -20.318533     5A    -11.228828     6A    -11.170651
       7A     -1.301690     8A     -1.205754     9A     -1.186151
      10A     -1.095451    11A     -0.731278    12A     -0.579465
      13A     -0.552075    14A     -0.492918    15A     -0.472898
      16A     -0.441757    17A     -0.417524    18A     -0.373782
      19A     -0.333075    20A     -0.330524    21A     -0.237640
      22A     -0.224016    23A     -0.213116

  @DF-RHF Final Energy:  -375.96514276282875

   => Energetics <=

    Nuclear Repulsion Energy =            218.4980941359517033
    One-Electron Energy =                -960.7183466061208037
    Two-Electron Energy =                 366.2551097073402957
    Total Energy =                       -375.9651427628287479
  Basis Set: (AUG-CC-PVTZ AUX)
    Blend: AUG-CC-PVTZ-RI
    Molecular point group: c1

    Geometry (in Angstrom), charge = -1, multiplicity = 1:

       Center              X                  Y                   Z               Mass
    ------------   -----------------  -----------------  -----------------  -----------------
         O            1.418021681448     1.055367219613     0.000140668683    15.994914619570
         O            1.229933881448    -1.247920580387     0.000301268683    15.994914619570
         O           -1.467222318552    -1.040417780387    -0.000316331317    15.994914619570
         O           -1.230248318552     1.247841219613    -0.000223331317    15.994914619570
         C            0.717693681448    -0.134004780387    -0.000191331317    12.000000000000
         C           -0.848808318552     0.051634219613     0.000306668683    12.000000000000
         H            2.346999681448     0.744773219613     0.000177668683     1.007825032230

  Basis Set: AUG-CC-PVTZ
    Blend: AUG-CC-PVTZ
  Basis Set: (AUG-CC-PVTZ AUX)
    Blend: AUG-CC-PVTZ-JKFIT
	 Reference Energy          =    -375.9651427628287479 [Eh]
	 Singles Energy            =      -0.0000000000000000 [Eh]
	 Same-Spin Energy          =      -0.3590422089616300 [Eh]
	 Opposite-Spin Energy      =      -1.0180507778425749 [Eh]
	 Correlation Energy        =      -1.3770929868042048 [Eh]
	 Total Energy              =    -377.3422357496329482 [Eh]

	 ================> DF-SCS-MP2 Energies <==================
	-----------------------------------------------------------
	 SCS Same-Spin Scale       =       0.3333333333333333 [-]
	 SCS Opposite-Spin Scale   =       1.2000000000000000 [-]
	 SCS Same-Spin Energy      =      -0.1196807363205433 [Eh]
	 SCS Opposite-Spin Energy  =      -1.2216609334110899 [Eh]
	 SCS Correlation Energy    =      -1.3413416697316332 [Eh]
	 SCS Total Energy          =    -377.3064844325603531 [Eh]
	-----------------------------------------------------------

  Dipole Moment: [D]
     X:     5.3398      Y:     0.7796      Z:     0.0006     Total:     5.3964

*** Psi4 exiting successfully. Buy a developer a beer!
