                               Psi4 1.3.2 release

  ==> Input File <==

--------------------------------------------------------------------------
#psi4
#
memory 32 gb

molecule  {
-1 1
  O        1.3719500     1.0365520     0.0001530
  O        1.2974920    -1.2070900     0.0002320
  O       -1.5132940    -1.0592330    -0.0003040
  O       -1.2763200     1.2290260    -0.0002110
  C        0.6716220    -0.1528200    -0.0001790
  C       -0.8948800     0.0328190     0.0003190
  H        2.1112487     0.7893753     0.0001824
units angstrom
no_reorient  #important for SAPT in psi4, default
symmetry c1  #important for SAPT in psi4, default
}

set PROPERTIES_ORIGIN ["COM"]
properties('MP2/aug-cc-pvtz', properties = ['dipole'])
--------------------------------------------------------------------------

    Molecular point group: c1
  Charge       = -1
  Multiplicity = 1
  Basis Set: AUG-CC-PVTZ
    Blend: AUG-CC-PVTZ
  Basis Set: (AUG-CC-PVTZ AUX)
    Blend: AUG-CC-PVTZ-JKFIT

    Orbital Energies [Eh]
    ---------------------

    Doubly Occupied:

       1A    -20.442119     2A    -20.406375     3A    -20.327406
       4A    -20.324882     5A    -11.232580     6A    -11.178453
       7A     -1.347397     8A     -1.218955     9A     -1.192836
      10A     -1.101807    11A     -0.763645    12A     -0.600993
      13A     -0.564321    14A     -0.497755    15A     -0.477159
      16A     -0.452576    17A     -0.423067    18A     -0.378862
      19A     -0.336770    20A     -0.333180    21A     -0.244225
      22A     -0.231392    23A     -0.218379

  @DF-RHF Final Energy:  -375.92528192616601

   => Energetics <=

    Nuclear Repulsion Energy =            219.5638866789896610
    One-Electron Energy =                -962.3880710703742807
    Two-Electron Energy =                 366.8989024652186117
    Total Energy =                       -375.9252819261660079
  Basis Set: (AUG-CC-PVTZ AUX)
    Blend: AUG-CC-PVTZ-RI
    Molecular point group: c1

    Geometry (in Angstrom), charge = -1, multiplicity = 1:

       Center              X                  Y                   Z               Mass
    ------------   -----------------  -----------------  -----------------  -----------------
         O            1.399745679718     1.043928048837     0.000155421819    15.994914619570
         O            1.325287679718    -1.199713951163     0.000234421819    15.994914619570
         O           -1.485498320282    -1.051856951163    -0.000301578181    15.994914619570
         O           -1.248524320282     1.236402048837    -0.000208578181    15.994914619570
         C            0.699417679718    -0.145443951163    -0.000176578181    12.000000000000
         C           -0.867084320282     0.040195048837     0.000321421819    12.000000000000
         H            2.139044379718     0.796751348837     0.000184821819     1.007825032230

  Basis Set: AUG-CC-PVTZ
    Blend: AUG-CC-PVTZ
  Basis Set: (AUG-CC-PVTZ AUX)
    Blend: AUG-CC-PVTZ-JKFIT
	 Reference Energy          =    -375.9252819261660079 [Eh]
	 Singles Energy            =      -0.0000000000000000 [Eh]
	 Same-Spin Energy          =      -0.3562304763156560 [Eh]
	 Opposite-Spin Energy      =      -1.0120001997704078 [Eh]
	 Correlation Energy        =      -1.3682306760860636 [Eh]
	 Total Energy              =    -377.2935126022520649 [Eh]

	 ================> DF-SCS-MP2 Energies <==================
	-----------------------------------------------------------
	 SCS Same-Spin Scale       =       0.3333333333333333 [-]
	 SCS Opposite-Spin Scale   =       1.2000000000000000 [-]
	 SCS Same-Spin Energy      =      -0.1187434921052186 [Eh]
	 SCS Opposite-Spin Energy  =      -1.2144002397244893 [Eh]
	 SCS Correlation Energy    =      -1.3331437318297079 [Eh]
	 SCS Total Energy          =    -377.2584256579957014 [Eh]
	-----------------------------------------------------------

  Dipole Moment: [D]
     X:     4.8989      Y:     0.7576      Z:     0.0006     Total:     4.9572

*** Psi4 exiting successfully. Buy a developer a beer!
