                               Psi4 1.3.2 release

  ==> Input File <==

--------------------------------------------------------------------------
#psi4
#
memory 32 gb

molecule  {
-1 1
  O        1.4924368     0.9568323     0.0000862
  O        1.2974920    -1.2070900     0.0002320
  O       -1.5132940    -1.0592330    -0.0003040
  O       -1.2763200     1.2290260    -0.0002110
  C        0.6716220    -0.1528200    -0.0001790
  C       -0.8948800     0.0328190     0.0003190
  H        2.3009280     0.7259580     0.0001900
units angstrom
no_reorient  #important for SAPT in psi4, default
symmetry c1  #important for SAPT in psi4, default
}

set PROPERTIES_ORIGIN ["COM"]
properties('MP2/aug-cc-pvtz', properties = ['dipole'])
--------------------------------------------------------------------------

    Molecular point group: c1
  Charge       = -1
  Multiplicity = 1
  Basis Set: AUG-CC-PVTZ
    Blend: AUG-CC-PVTZ
  Basis Set: (AUG-CC-PVTZ AUX)
    Blend: AUG-CC-PVTZ-JKFIT

    Orbital Energies [Eh]
    ---------------------

    Doubly Occupied:

       1A    -20.440167     2A    -20.396378     3A    -20.331371
       4A    -20.329321     5A    -11.230162     6A    -11.185569
       7A     -1.322494     8A     -1.205903     9A     -1.192487
      10A     -1.105554    11A     -0.756448    12A     -0.610174
      13A     -0.546782    14A     -0.495031    15A     -0.471027
      16A     -0.445629    17A     -0.425449    18A     -0.381955
      19A     -0.325605    20A     -0.323278    21A     -0.248497
      22A     -0.235660    23A     -0.221876

  @DF-RHF Final Energy:  -375.95161094495501

   => Energetics <=

    Nuclear Repulsion Energy =            218.3188807023934999
    One-Electron Energy =                -960.0873533651274556
    Two-Electron Energy =                 365.8168617177789770
    Total Energy =                       -375.9516109449550072
  Basis Set: (AUG-CC-PVTZ AUX)
    Blend: AUG-CC-PVTZ-RI
    Molecular point group: c1

    Geometry (in Angstrom), charge = -1, multiplicity = 1:

       Center              X                  Y                   Z               Mass
    ------------   -----------------  -----------------  -----------------  -----------------
         O            1.496427563095     0.979255671051     0.000100542606    15.994914619570
         O            1.301482763095    -1.184666628949     0.000246342606    15.994914619570
         O           -1.509303236905    -1.036809628949    -0.000289657394    15.994914619570
         O           -1.272329236905     1.251449371051    -0.000196657394    15.994914619570
         C            0.675612763095    -0.130396628949    -0.000164657394    12.000000000000
         C           -0.890889236905     0.055242371051     0.000333342606    12.000000000000
         H            2.304918763095     0.748381371051     0.000204342606     1.007825032230

  Basis Set: AUG-CC-PVTZ
    Blend: AUG-CC-PVTZ
  Basis Set: (AUG-CC-PVTZ AUX)
    Blend: AUG-CC-PVTZ-JKFIT
	 Reference Energy          =    -375.9516109449550072 [Eh]
	 Singles Energy            =      -0.0000000000000000 [Eh]
	 Same-Spin Energy          =      -0.3563540750232749 [Eh]
	 Opposite-Spin Energy      =      -1.0125562425479715 [Eh]
	 Correlation Energy        =      -1.3689103175712465 [Eh]
	 Total Energy              =    -377.3205212625262561 [Eh]

	 ================> DF-SCS-MP2 Energies <==================
	-----------------------------------------------------------
	 SCS Same-Spin Scale       =       0.3333333333333333 [-]
	 SCS Opposite-Spin Scale   =       1.2000000000000000 [-]
	 SCS Same-Spin Energy      =      -0.1187846916744250 [Eh]
	 SCS Opposite-Spin Energy  =      -1.2150674910575658 [Eh]
	 SCS Correlation Energy    =      -1.3338521827319909 [Eh]
	 SCS Total Energy          =    -377.2854631276870236 [Eh]
	-----------------------------------------------------------

  Dipole Moment: [D]
     X:     4.8368      Y:     0.6871      Z:     0.0007     Total:     4.8854

*** Psi4 exiting successfully. Buy a developer a beer!
