                               Psi4 1.4a3.dev225

  ==> Input File <==

--------------------------------------------------------------------------
#psi4
#
memory 32 gb

molecule  {
-1 1
  O        1.3597160     1.0340070     0.0001290
  O        1.2734010    -1.2190390     0.0000720
  O       -1.5027660    -1.0525350    -0.0000800
  O       -1.2798520     1.2230830    -0.0001310
  C        0.6828900    -0.1460180     0.0000490
  C       -0.8935881    -0.0089801    -0.0000694
  H        2.3089580     0.7867790     0.0002020
units angstrom
no_reorient  #important for SAPT in psi4, default
symmetry c1  #important for SAPT in psi4, default
}

set PROPERTIES_ORIGIN ["COM"]
properties('MP2/aug-cc-pvtz', properties = ['dipole'])
--------------------------------------------------------------------------

    Molecular point group: c1
  Charge       = -1
  Multiplicity = 1
  Basis Set: AUG-CC-PVTZ
    Blend: AUG-CC-PVTZ
  Basis Set: (AUG-CC-PVTZ AUX)
    Blend: AUG-CC-PVTZ-JKFIT

    Orbital Energies [Eh]
    ---------------------

    Doubly Occupied:

       1A    -20.465830     2A    -20.398828     3A    -20.330304
       4A    -20.311785     5A    -11.225414     6A    -11.171561
       7A     -1.305704     8A     -1.208695     9A     -1.193736
      10A     -1.091072    11A     -0.732982    12A     -0.586308
      13A     -0.547953    14A     -0.493532    15A     -0.474325
      16A     -0.442377    17A     -0.419394    18A     -0.379743
      19A     -0.330572    20A     -0.327035    21A     -0.242154
      22A     -0.221590    23A     -0.213823

  @DF-RHF Final Energy:  -375.96775464705968

   => Energetics <=

    Nuclear Repulsion Energy =            218.9283317965476385
    One-Electron Energy =                -961.5627418290475816
    Two-Electron Energy =                 366.6666553854403219
    Total Energy =                       -375.9677546470596781
  Basis Set: (AUG-CC-PVTZ AUX)
    Blend: AUG-CC-PVTZ-RI
    Molecular point group: c1

    Geometry (in Angstrom), charge = -1, multiplicity = 1:

       Center              X                  Y                   Z               Mass
    ------------   -----------------  -----------------  -----------------  -----------------
         O            1.388850515973     1.048601321820     0.000131260638    15.994914619570
         O            1.302535515973    -1.204444678180     0.000074260638    15.994914619570
         O           -1.473631484027    -1.037940678180    -0.000077739362    15.994914619570
         O           -1.250717484027     1.237677321820    -0.000128739362    15.994914619570
         C            0.712024515973    -0.131423678180     0.000051260638    12.000000000000
         C           -0.864453584027     0.005614221820    -0.000067139362    12.000000000000
         H            2.338092515973     0.801373321820     0.000204260638     1.007825032230

  Basis Set: AUG-CC-PVTZ
    Blend: AUG-CC-PVTZ
  Basis Set: (AUG-CC-PVTZ AUX)
    Blend: AUG-CC-PVTZ-JKFIT
	 Reference Energy          =    -375.9677546470596781 [Eh]
	 Singles Energy            =      -0.0000000000000000 [Eh]
	 Same-Spin Energy          =      -0.3580806198860731 [Eh]
	 Opposite-Spin Energy      =      -1.0157331056265517 [Eh]
	 Correlation Energy        =      -1.3738137255126248 [Eh]
	 Total Energy              =    -377.3415683725722829 [Eh]

	 ================> DF-SCS-MP2 Energies <==================
	-----------------------------------------------------------
	 SCS Same-Spin Scale       =       0.3333333333333333 [-]
	 SCS Opposite-Spin Scale   =       1.2000000000000000 [-]
	 SCS Same-Spin Energy      =      -0.1193602066286910 [Eh]
	 SCS Opposite-Spin Energy  =      -1.2188797267518621 [Eh]
	 SCS Correlation Energy    =      -1.3382399333805530 [Eh]
	 SCS Total Energy          =    -377.3059945804402560 [Eh]
	-----------------------------------------------------------

  Dipole Moment: [D]
     X:     5.1823      Y:     0.4843      Z:     0.0004     Total:     5.2049

*** Psi4 exiting successfully. Buy a developer a beer!
