                               Psi4 1.3.2 release

  ==> Input File <==

--------------------------------------------------------------------------
#psi4
#
memory 32 gb

molecule  {
-1 1
  O        1.3719500     1.0365520     0.0001530
  O        1.2974920    -1.2070900     0.0002320
  O       -1.6240568    -0.9886088    -0.0002283
  O       -1.2763200     1.2290260    -0.0002110
  C        0.6716220    -0.1528200    -0.0001790
  C       -0.8948800     0.0328190     0.0003190
  H        2.3009280     0.7259580     0.0001900
units angstrom
no_reorient  #important for SAPT in psi4, default
symmetry c1  #important for SAPT in psi4, default
}

set PROPERTIES_ORIGIN ["COM"]
properties('MP2/aug-cc-pvtz', properties = ['dipole'])
--------------------------------------------------------------------------

    Molecular point group: c1
  Charge       = -1
  Multiplicity = 1
  Basis Set: AUG-CC-PVTZ
    Blend: AUG-CC-PVTZ
  Basis Set: (AUG-CC-PVTZ AUX)
    Blend: AUG-CC-PVTZ-JKFIT

    Orbital Energies [Eh]
    ---------------------

    Doubly Occupied:

       1A    -20.466762     2A    -20.408861     3A    -20.320425
       4A    -20.319843     5A    -11.238115     6A    -11.175513
       7A     -1.307311     8A     -1.201867     9A     -1.192747
      10A     -1.090465    11A     -0.738520    12A     -0.582621
      13A     -0.552980    14A     -0.494920    15A     -0.474935
      16A     -0.445540    17A     -0.416299    18A     -0.374590
      19A     -0.337806    20A     -0.333092    21A     -0.237275
      22A     -0.231391    23A     -0.211160

  @DF-RHF Final Energy:  -375.96619059167699

   => Energetics <=

    Nuclear Repulsion Energy =            217.5524563667887890
    One-Electron Energy =                -958.7312197257496109
    Two-Electron Energy =                 365.2125727672838593
    Total Energy =                       -375.9661905916769911
  Basis Set: (AUG-CC-PVTZ AUX)
    Blend: AUG-CC-PVTZ-RI
    Molecular point group: c1

    Geometry (in Angstrom), charge = -1, multiplicity = 1:

       Center              X                  Y                   Z               Mass
    ------------   -----------------  -----------------  -----------------  -----------------
         O            1.417506357063     1.031952044295     0.000141729169    15.994914619570
         O            1.343048357063    -1.211689955705     0.000220729169    15.994914619570
         O           -1.578500442937    -0.993208755705    -0.000239570831    15.994914619570
         O           -1.230763642937     1.224426044295    -0.000222270831    15.994914619570
         C            0.717178357063    -0.157419955705    -0.000190270831    12.000000000000
         C           -0.849323642937     0.028219044295     0.000307729169    12.000000000000
         H            2.346484357063     0.721358044295     0.000178729169     1.007825032230

  Basis Set: AUG-CC-PVTZ
    Blend: AUG-CC-PVTZ
  Basis Set: (AUG-CC-PVTZ AUX)
    Blend: AUG-CC-PVTZ-JKFIT
	 Reference Energy          =    -375.9661905916769911 [Eh]
	 Singles Energy            =      -0.0000000000000000 [Eh]
	 Same-Spin Energy          =      -0.3586105016712295 [Eh]
	 Opposite-Spin Energy      =      -1.0174770170515650 [Eh]
	 Correlation Energy        =      -1.3760875187227946 [Eh]
	 Total Energy              =    -377.3422781103997750 [Eh]

	 ================> DF-SCS-MP2 Energies <==================
	-----------------------------------------------------------
	 SCS Same-Spin Scale       =       0.3333333333333333 [-]
	 SCS Opposite-Spin Scale   =       1.2000000000000000 [-]
	 SCS Same-Spin Energy      =      -0.1195368338904098 [Eh]
	 SCS Opposite-Spin Energy  =      -1.2209724204618779 [Eh]
	 SCS Correlation Energy    =      -1.3405092543522878 [Eh]
	 SCS Total Energy          =    -377.3066998460292893 [Eh]
	-----------------------------------------------------------

  Dipole Moment: [D]
     X:     5.3533      Y:     0.6672      Z:     0.0005     Total:     5.3947

*** Psi4 exiting successfully. Buy a developer a beer!
