                               Psi4 1.4a3.dev225

  ==> Input File <==

--------------------------------------------------------------------------
#psi4
#
memory 32 gb

molecule  {
-1 1
  O        1.3597160     1.0340070     0.0001290
  O        1.2734010    -1.2190390     0.0000720
  O       -1.5027660    -1.0525350    -0.0000800
  O       -1.2798520     1.2230830    -0.0001310
  C        0.6828900    -0.1460180     0.0000490
  C       -0.8485146     0.0318930    -0.0000675
  H        2.3089580     0.7867790     0.0002020
units angstrom
no_reorient  #important for SAPT in psi4, default
symmetry c1  #important for SAPT in psi4, default
}

set PROPERTIES_ORIGIN ["COM"]
properties('MP2/aug-cc-pvtz', properties = ['dipole'])
--------------------------------------------------------------------------

    Molecular point group: c1
  Charge       = -1
  Multiplicity = 1
  Basis Set: AUG-CC-PVTZ
    Blend: AUG-CC-PVTZ
  Basis Set: (AUG-CC-PVTZ AUX)
    Blend: AUG-CC-PVTZ-JKFIT

    Orbital Energies [Eh]
    ---------------------

    Doubly Occupied:

       1A    -20.469833     2A    -20.403742     3A    -20.321209
       4A    -20.318359     5A    -11.232190     6A    -11.171843
       7A     -1.310947     8A     -1.204106     9A     -1.182355
      10A     -1.085854    11A     -0.749359    12A     -0.591819
      13A     -0.552593    14A     -0.491952    15A     -0.479530
      16A     -0.440216    17A     -0.412606    18A     -0.369268
      19A     -0.332938    20A     -0.329540    21A     -0.235679
      22A     -0.230798    23A     -0.208751

  @DF-RHF Final Energy:  -375.96636955280923

   => Energetics <=

    Nuclear Repulsion Energy =            218.9970435727069571
    One-Electron Energy =                -961.6758501487911417
    Two-Electron Energy =                 366.7124370232749584
    Total Energy =                       -375.9663695528092262
  Basis Set: (AUG-CC-PVTZ AUX)
    Blend: AUG-CC-PVTZ-RI
    Molecular point group: c1

    Geometry (in Angstrom), charge = -1, multiplicity = 1:

       Center              X                  Y                   Z               Mass
    ------------   -----------------  -----------------  -----------------  -----------------
         O            1.382772335328     1.043089566901     0.000131004422    15.994914619570
         O            1.296457335328    -1.209956433099     0.000074004422    15.994914619570
         O           -1.479709664672    -1.043452433099    -0.000077995578    15.994914619570
         O           -1.256795664672     1.232165566901    -0.000128995578    15.994914619570
         C            0.705946335328    -0.136935433099     0.000051004422    12.000000000000
         C           -0.825458264672     0.040975566901    -0.000065495578    12.000000000000
         H            2.332014335328     0.795861566901     0.000204004422     1.007825032230

  Basis Set: AUG-CC-PVTZ
    Blend: AUG-CC-PVTZ
  Basis Set: (AUG-CC-PVTZ AUX)
    Blend: AUG-CC-PVTZ-JKFIT
	 Reference Energy          =    -375.9663695528092262 [Eh]
	 Singles Energy            =      -0.0000000000000000 [Eh]
	 Same-Spin Energy          =      -0.3590580230482008 [Eh]
	 Opposite-Spin Energy      =      -1.0180880179263367 [Eh]
	 Correlation Energy        =      -1.3771460409745375 [Eh]
	 Total Energy              =    -377.3435155937837635 [Eh]

	 ================> DF-SCS-MP2 Energies <==================
	-----------------------------------------------------------
	 SCS Same-Spin Scale       =       0.3333333333333333 [-]
	 SCS Opposite-Spin Scale   =       1.2000000000000000 [-]
	 SCS Same-Spin Energy      =      -0.1196860076827336 [Eh]
	 SCS Opposite-Spin Energy  =      -1.2217056215116040 [Eh]
	 SCS Correlation Energy    =      -1.3413916291943375 [Eh]
	 SCS Total Energy          =    -377.3077611820035600 [Eh]
	-----------------------------------------------------------

  Dipole Moment: [D]
     X:     5.4926      Y:     0.9237      Z:     0.0004     Total:     5.5698

*** Psi4 exiting successfully. Buy a developer a beer!
