                               Psi4 1.4a3.dev225

  ==> Input File <==

--------------------------------------------------------------------------
#psi4
#
memory 32 gb

molecule  {
-1 1
  O        1.3597160     1.0340070     0.0001290
  O        1.2734010    -1.2190390     0.0000720
  O       -1.5027660    -1.0525350    -0.0000800
  O       -1.2798520     1.2230830    -0.0001310
  C        0.7077669    -0.1026459     0.0000519
  C       -0.8683810     0.0342010    -0.0000690
  H        2.3089580     0.7867790     0.0002020
units angstrom
no_reorient  #important for SAPT in psi4, default
symmetry c1  #important for SAPT in psi4, default
}

set PROPERTIES_ORIGIN ["COM"]
properties('MP2/aug-cc-pvtz', properties = ['dipole'])
--------------------------------------------------------------------------

    Molecular point group: c1
  Charge       = -1
  Multiplicity = 1
  Basis Set: AUG-CC-PVTZ
    Blend: AUG-CC-PVTZ
  Basis Set: (AUG-CC-PVTZ AUX)
    Blend: AUG-CC-PVTZ-JKFIT

    Orbital Energies [Eh]
    ---------------------

    Doubly Occupied:

       1A    -20.481828     2A    -20.392901     3A    -20.320373
       4A    -20.317476     5A    -11.228638     6A    -11.171297
       7A     -1.328931     8A     -1.194690     9A     -1.180641
      10A     -1.090700    11A     -0.747578    12A     -0.596909
      13A     -0.557120    14A     -0.489594    15A     -0.489145
      16A     -0.434270    17A     -0.414947    18A     -0.372791
      19A     -0.326630    20A     -0.319127    21A     -0.234800
      22A     -0.225787    23A     -0.210808

  @DF-RHF Final Energy:  -375.96469059654419

   => Energetics <=

    Nuclear Repulsion Energy =            218.9457667583297393
    One-Electron Energy =                -961.5669479068615146
    Two-Electron Energy =                 366.6564905519876447
    Total Energy =                       -375.9646905965441874
  Basis Set: (AUG-CC-PVTZ AUX)
    Blend: AUG-CC-PVTZ-RI
    Molecular point group: c1

    Geometry (in Angstrom), charge = -1, multiplicity = 1:

       Center              X                  Y                   Z               Mass
    ------------   -----------------  -----------------  -----------------  -----------------
         O            1.382096667271     1.036929585987     0.000130815632    15.994914619570
         O            1.295781667271    -1.216116414013     0.000073815632    15.994914619570
         O           -1.480385332729    -1.049612414013    -0.000078184368    15.994914619570
         O           -1.257471332729     1.226005585987    -0.000129184368    15.994914619570
         C            0.730147567271    -0.099723314013     0.000053715632    12.000000000000
         C           -0.846000332729     0.037123585987    -0.000067184368    12.000000000000
         H            2.331338667271     0.789701585987     0.000203815632     1.007825032230

  Basis Set: AUG-CC-PVTZ
    Blend: AUG-CC-PVTZ
  Basis Set: (AUG-CC-PVTZ AUX)
    Blend: AUG-CC-PVTZ-JKFIT
	 Reference Energy          =    -375.9646905965441874 [Eh]
	 Singles Energy            =      -0.0000000000000000 [Eh]
	 Same-Spin Energy          =      -0.3588475670556145 [Eh]
	 Opposite-Spin Energy      =      -1.0169539420391400 [Eh]
	 Correlation Energy        =      -1.3758015090947544 [Eh]
	 Total Energy              =    -377.3404921056389298 [Eh]

	 ================> DF-SCS-MP2 Energies <==================
	-----------------------------------------------------------
	 SCS Same-Spin Scale       =       0.3333333333333333 [-]
	 SCS Opposite-Spin Scale   =       1.2000000000000000 [-]
	 SCS Same-Spin Energy      =      -0.1196158556852048 [Eh]
	 SCS Opposite-Spin Energy  =      -1.2203447304469679 [Eh]
	 SCS Correlation Energy    =      -1.3399605861321726 [Eh]
	 SCS Total Energy          =    -377.3046511826763663 [Eh]
	-----------------------------------------------------------

  Dipole Moment: [D]
     X:     5.5191      Y:     1.3329      Z:     0.0005     Total:     5.6778

*** Psi4 exiting successfully. Buy a developer a beer!
