                               Psi4 1.3.2 release

  ==> Input File <==

--------------------------------------------------------------------------
#psi4
#
memory 32 gb

molecule  {
-1 1
  O        1.3719500     1.0365520     0.0001530
  O        1.2974920    -1.2070900     0.0002320
  O       -1.5132940    -1.0592330    -0.0003040
  O       -1.2763200     1.2290260    -0.0002110
  C        0.7997817    -0.2195087    -0.0001790
  C       -0.8948800     0.0328190     0.0003190
  H        2.3009280     0.7259580     0.0001900
units angstrom
no_reorient  #important for SAPT in psi4, default
symmetry c1  #important for SAPT in psi4, default
}

set PROPERTIES_ORIGIN ["COM"]
properties('MP2/aug-cc-pvtz', properties = ['dipole'])
--------------------------------------------------------------------------

    Molecular point group: c1
  Charge       = -1
  Multiplicity = 1
  Basis Set: AUG-CC-PVTZ
    Blend: AUG-CC-PVTZ
  Basis Set: (AUG-CC-PVTZ AUX)
    Blend: AUG-CC-PVTZ-JKFIT

    Orbital Energies [Eh]
    ---------------------

    Doubly Occupied:

       1A    -20.456456     2A    -20.414792     3A    -20.318668
       4A    -20.316764     5A    -11.208701     6A    -11.170223
       7A     -1.350704     8A     -1.239619     9A     -1.181708
      10A     -1.091276    11A     -0.691488    12A     -0.579885
      13A     -0.558790    14A     -0.506864    15A     -0.494783
      16A     -0.444484    17A     -0.413080    18A     -0.367350
      19A     -0.360410    20A     -0.356419    21A     -0.234035
      22A     -0.211946    23A     -0.195865

  @DF-RHF Final Energy:  -375.94557732517893

   => Energetics <=

    Nuclear Repulsion Energy =            218.4989206286477383
    One-Electron Energy =                -960.5603733766487267
    Two-Electron Energy =                 366.1158754228220573
    Total Energy =                       -375.9455773251789310
  Basis Set: (AUG-CC-PVTZ AUX)
    Blend: AUG-CC-PVTZ-RI
    Molecular point group: c1

    Geometry (in Angstrom), charge = -1, multiplicity = 1:

       Center              X                  Y                   Z               Mass
    ------------   -----------------  -----------------  -----------------  -----------------
         O            1.380315082532     1.053639279094     0.000155335746    15.994914619570
         O            1.305857082532    -1.190002720906     0.000234335746    15.994914619570
         O           -1.504928917468    -1.042145720906    -0.000301664254    15.994914619570
         O           -1.267954917468     1.246113279094    -0.000208664254    15.994914619570
         C            0.808146782532    -0.202421420906    -0.000176664254    12.000000000000
         C           -0.886514917468     0.049906279094     0.000321335746    12.000000000000
         H            2.309293082532     0.743045279094     0.000192335746     1.007825032230

  Basis Set: AUG-CC-PVTZ
    Blend: AUG-CC-PVTZ
  Basis Set: (AUG-CC-PVTZ AUX)
    Blend: AUG-CC-PVTZ-JKFIT
	 Reference Energy          =    -375.9455773251789310 [Eh]
	 Singles Energy            =      -0.0000000000000000 [Eh]
	 Same-Spin Energy          =      -0.3572356999167517 [Eh]
	 Opposite-Spin Energy      =      -1.0132352650471079 [Eh]
	 Correlation Energy        =      -1.3704709649638596 [Eh]
	 Total Energy              =    -377.3160482901428168 [Eh]

	 ================> DF-SCS-MP2 Energies <==================
	-----------------------------------------------------------
	 SCS Same-Spin Scale       =       0.3333333333333333 [-]
	 SCS Opposite-Spin Scale   =       1.2000000000000000 [-]
	 SCS Same-Spin Energy      =      -0.1190785666389172 [Eh]
	 SCS Opposite-Spin Energy  =      -1.2158823180565295 [Eh]
	 SCS Correlation Energy    =      -1.3349608846954468 [Eh]
	 SCS Total Energy          =    -377.2805382098743507 [Eh]
	-----------------------------------------------------------

  Dipole Moment: [D]
     X:     5.5238      Y:     0.2079      Z:     0.0006     Total:     5.5278

*** Psi4 exiting successfully. Buy a developer a beer!
