                               Psi4 1.4a3.dev225

  ==> Input File <==

--------------------------------------------------------------------------
#psi4
#
memory 32 gb

molecule  {
-1 1
  O        1.3597160     1.0340070     0.0001290
  O        1.2734010    -1.2190390     0.0000720
  O       -1.5027660    -1.0525350    -0.0000800
  O       -1.2798520     1.2230830    -0.0001310
  C        0.6828900    -0.1460180     0.0000490
  C       -0.8683810     0.0342010    -0.0000690
  H        2.3573438     0.7741770     0.0002057
units angstrom
no_reorient  #important for SAPT in psi4, default
symmetry c1  #important for SAPT in psi4, default
}

set PROPERTIES_ORIGIN ["COM"]
properties('MP2/aug-cc-pvtz', properties = ['dipole'])
--------------------------------------------------------------------------

    Molecular point group: c1
  Charge       = -1
  Multiplicity = 1
  Basis Set: AUG-CC-PVTZ
    Blend: AUG-CC-PVTZ
  Basis Set: (AUG-CC-PVTZ AUX)
    Blend: AUG-CC-PVTZ-JKFIT

    Orbital Energies [Eh]
    ---------------------

    Doubly Occupied:

       1A    -20.471683     2A    -20.400635     3A    -20.321681
       4A    -20.318815     5A    -11.228466     6A    -11.171992
       7A     -1.302105     8A     -1.197805     9A     -1.186849
      10A     -1.092271    11A     -0.735839    12A     -0.583571
      13A     -0.545117    14A     -0.491759    15A     -0.475802
      16A     -0.436557    17A     -0.416350    18A     -0.372214
      19A     -0.331661    20A     -0.327645    21A     -0.236402
      22A     -0.229098    23A     -0.211751

  @DF-RHF Final Energy:  -375.96351259053796

   => Energetics <=

    Nuclear Repulsion Energy =            218.6652839788802680
    One-Electron Energy =                -961.0854582318985422
    Two-Electron Energy =                 366.4566616624803714
    Total Energy =                       -375.9635125905379596
  Basis Set: (AUG-CC-PVTZ AUX)
    Blend: AUG-CC-PVTZ-RI
    Molecular point group: c1

    Geometry (in Angstrom), charge = -1, multiplicity = 1:

       Center              X                  Y                   Z               Mass
    ------------   -----------------  -----------------  -----------------  -----------------
         O            1.384903335914     1.042921055686     0.000131164794    15.994914619570
         O            1.298588335914    -1.210124944314     0.000074164794    15.994914619570
         O           -1.477578664086    -1.043620944314    -0.000077835206    15.994914619570
         O           -1.254664664086     1.231997055686    -0.000128835206    15.994914619570
         C            0.708077335914    -0.137103944314     0.000051164794    12.000000000000
         C           -0.843193664086     0.043115055686    -0.000066835206    12.000000000000
         H            2.382531135914     0.783091055686     0.000207864794     1.007825032230

  Basis Set: AUG-CC-PVTZ
    Blend: AUG-CC-PVTZ
  Basis Set: (AUG-CC-PVTZ AUX)
    Blend: AUG-CC-PVTZ-JKFIT
	 Reference Energy          =    -375.9635125905379596 [Eh]
	 Singles Energy            =      -0.0000000000000000 [Eh]
	 Same-Spin Energy          =      -0.3592826102203883 [Eh]
	 Opposite-Spin Energy      =      -1.0185944977930448 [Eh]
	 Correlation Energy        =      -1.3778771080134331 [Eh]
	 Total Energy              =    -377.3413896985513816 [Eh]

	 ================> DF-SCS-MP2 Energies <==================
	-----------------------------------------------------------
	 SCS Same-Spin Scale       =       0.3333333333333333 [-]
	 SCS Opposite-Spin Scale   =       1.2000000000000000 [-]
	 SCS Same-Spin Energy      =      -0.1197608700734628 [Eh]
	 SCS Opposite-Spin Energy  =      -1.2223133973516538 [Eh]
	 SCS Correlation Energy    =      -1.3420742674251165 [Eh]
	 SCS Total Energy          =    -377.3055868579630783 [Eh]
	-----------------------------------------------------------

  Dipole Moment: [D]
     X:     5.3939      Y:     0.9300      Z:     0.0004     Total:     5.4735

*** Psi4 exiting successfully. Buy a developer a beer!
