                               Psi4 1.3.2 release

  ==> Input File <==

--------------------------------------------------------------------------
#psi4
#
memory 32 gb

molecule  {
-1 1
  O        1.3719500     1.0365520     0.0001530
  O        1.2974920    -1.2070900     0.0002320
  O       -1.5132940    -1.0592330    -0.0003040
  O       -1.2763200     1.2290260    -0.0002110
  C        0.6716220    -0.1528200    -0.0001790
  C       -0.8456038     0.1198354     0.0003686
  H        2.3009280     0.7259580     0.0001900
units angstrom
no_reorient  #important for SAPT in psi4, default
symmetry c1  #important for SAPT in psi4, default
}

set PROPERTIES_ORIGIN ["COM"]
properties('MP2/aug-cc-pvtz', properties = ['dipole'])
--------------------------------------------------------------------------

    Molecular point group: c1
  Charge       = -1
  Multiplicity = 1
  Basis Set: AUG-CC-PVTZ
    Blend: AUG-CC-PVTZ
  Basis Set: (AUG-CC-PVTZ AUX)
    Blend: AUG-CC-PVTZ-JKFIT

    Orbital Energies [Eh]
    ---------------------

    Doubly Occupied:

       1A    -20.465346     2A    -20.407552     3A    -20.346599
       4A    -20.302073     5A    -11.236088     6A    -11.176328
       7A     -1.308051     8A     -1.219798     9A     -1.199732
      10A     -1.058543    11A     -0.750868    12A     -0.581124
      13A     -0.552463    14A     -0.504069    15A     -0.476616
      16A     -0.450473    17A     -0.413127    18A     -0.380221
      19A     -0.337329    20A     -0.332877    21A     -0.236984
      22A     -0.221918    23A     -0.203698

  @DF-RHF Final Energy:  -375.95058691586007

   => Energetics <=

    Nuclear Repulsion Energy =            218.4051437837824210
    One-Electron Energy =                -960.3877081828276232
    Two-Electron Energy =                 366.0319774831851873
    Total Energy =                       -375.9505869158600717
  Basis Set: (AUG-CC-PVTZ AUX)
    Blend: AUG-CC-PVTZ-RI
    Molecular point group: c1

    Geometry (in Angstrom), charge = -1, multiplicity = 1:

       Center              X                  Y                   Z               Mass
    ------------   -----------------  -----------------  -----------------  -----------------
         O            1.390952556058     1.032912080985     0.000148647165    15.994914619570
         O            1.316494556058    -1.210729919015     0.000227647165    15.994914619570
         O           -1.494291443942    -1.062872919015    -0.000308352835    15.994914619570
         O           -1.257317443942     1.225386080985    -0.000215352835    15.994914619570
         C            0.690624556058    -0.156459919015    -0.000183352835    12.000000000000
         C           -0.826601243942     0.116195480985     0.000364247165    12.000000000000
         H            2.319930556058     0.722318080985     0.000185647165     1.007825032230

  Basis Set: AUG-CC-PVTZ
    Blend: AUG-CC-PVTZ
  Basis Set: (AUG-CC-PVTZ AUX)
    Blend: AUG-CC-PVTZ-JKFIT
	 Reference Energy          =    -375.9505869158600717 [Eh]
	 Singles Energy            =      -0.0000000000000000 [Eh]
	 Same-Spin Energy          =      -0.3597730151723590 [Eh]
	 Opposite-Spin Energy      =      -1.0199060538450668 [Eh]
	 Correlation Energy        =      -1.3796790690174259 [Eh]
	 Total Energy              =    -377.3302659848774852 [Eh]

	 ================> DF-SCS-MP2 Energies <==================
	-----------------------------------------------------------
	 SCS Same-Spin Scale       =       0.3333333333333333 [-]
	 SCS Opposite-Spin Scale   =       1.2000000000000000 [-]
	 SCS Same-Spin Energy      =      -0.1199243383907863 [Eh]
	 SCS Opposite-Spin Energy  =      -1.2238872646140802 [Eh]
	 SCS Correlation Energy    =      -1.3438116030048666 [Eh]
	 SCS Total Energy          =    -377.2943985188649663 [Eh]
	-----------------------------------------------------------

  Dipole Moment: [D]
     X:     5.3828      Y:     1.6155      Z:     0.0007     Total:     5.6200

*** Psi4 exiting successfully. Buy a developer a beer!
