                               Psi4 1.4a3.dev225

  ==> Input File <==

--------------------------------------------------------------------------
#psi4
#
memory 32 gb

molecule  {
-1 1
  O        1.3597160     1.0340070     0.0001290
  O        1.2734010    -1.2190390     0.0000720
  O       -1.5027660    -1.0525350    -0.0000800
  O       -1.2798520     1.2230830    -0.0001310
  C        0.6828900    -0.1460180     0.0000490
  C       -0.8882474     0.0365090    -0.0000705
  H        2.3089580     0.7867790     0.0002020
units angstrom
no_reorient  #important for SAPT in psi4, default
symmetry c1  #important for SAPT in psi4, default
}

set PROPERTIES_ORIGIN ["COM"]
properties('MP2/aug-cc-pvtz', properties = ['dipole'])
--------------------------------------------------------------------------

    Molecular point group: c1
  Charge       = -1
  Multiplicity = 1
  Basis Set: AUG-CC-PVTZ
    Blend: AUG-CC-PVTZ
  Basis Set: (AUG-CC-PVTZ AUX)
    Blend: AUG-CC-PVTZ-JKFIT

    Orbital Energies [Eh]
    ---------------------

    Doubly Occupied:

       1A    -20.466167     2A    -20.399027     3A    -20.322558
       4A    -20.319472     5A    -11.225821     6A    -11.172104
       7A     -1.306319     8A     -1.200843     9A     -1.191071
      10A     -1.099081    11A     -0.735235    12A     -0.583957
      13A     -0.548472    14A     -0.493105    15A     -0.474841
      16A     -0.439141    17A     -0.420317    18A     -0.376283
      19A     -0.332059    20A     -0.327416    21A     -0.239121
      22A     -0.226112    23A     -0.214978

  @DF-RHF Final Energy:  -375.97058055075240

   => Energetics <=

    Nuclear Repulsion Energy =            218.9117199482999183
    One-Electron Energy =                -961.5376027571933264
    Two-Electron Energy =                 366.6553022581409778
    Total Energy =                       -375.9705805507524019
  Basis Set: (AUG-CC-PVTZ AUX)
    Blend: AUG-CC-PVTZ-RI
    Molecular point group: c1

    Geometry (in Angstrom), charge = -1, multiplicity = 1:

       Center              X                  Y                   Z               Mass
    ------------   -----------------  -----------------  -----------------  -----------------
         O            1.388130320307     1.042467097337     0.000131408974    15.994914619570
         O            1.301815320307    -1.210578902663     0.000074408974    15.994914619570
         O           -1.474351679693    -1.044074902663    -0.000077591026    15.994914619570
         O           -1.251437679693     1.231543097337    -0.000128591026    15.994914619570
         C            0.711304320307    -0.137557902663     0.000051408974    12.000000000000
         C           -0.859833079693     0.044969097337    -0.000068091026    12.000000000000
         H            2.337372320307     0.795239097337     0.000204408974     1.007825032230

  Basis Set: AUG-CC-PVTZ
    Blend: AUG-CC-PVTZ
  Basis Set: (AUG-CC-PVTZ AUX)
    Blend: AUG-CC-PVTZ-JKFIT
	 Reference Energy          =    -375.9705805507524019 [Eh]
	 Singles Energy            =      -0.0000000000000000 [Eh]
	 Same-Spin Energy          =      -0.3582452496252078 [Eh]
	 Opposite-Spin Energy      =      -1.0160066501019787 [Eh]
	 Correlation Energy        =      -1.3742518997271864 [Eh]
	 Total Energy              =    -377.3448324504796005 [Eh]

	 ================> DF-SCS-MP2 Energies <==================
	-----------------------------------------------------------
	 SCS Same-Spin Scale       =       0.3333333333333333 [-]
	 SCS Opposite-Spin Scale   =       1.2000000000000000 [-]
	 SCS Same-Spin Energy      =      -0.1194150832084026 [Eh]
	 SCS Opposite-Spin Energy  =      -1.2192079801223743 [Eh]
	 SCS Correlation Energy    =      -1.3386230633307770 [Eh]
	 SCS Total Energy          =    -377.3092036140831738 [Eh]
	-----------------------------------------------------------

  Dipole Moment: [D]
     X:     5.2384      Y:     0.9501      Z:     0.0004     Total:     5.3239

*** Psi4 exiting successfully. Buy a developer a beer!
