                               Psi4 1.4a3.dev225

  ==> Input File <==

--------------------------------------------------------------------------
#psi4
#
memory 32 gb

molecule  {
-1 1
  O        1.3597160     1.0340070     0.0001290
  O        1.2734010    -1.2190390     0.0000720
  O       -1.5027660    -1.0525350    -0.0000800
  O       -1.2798520     1.2230830    -0.0001310
  C        0.6580131    -0.1893901     0.0000461
  C       -0.8683810     0.0342010    -0.0000690
  H        2.3089580     0.7867790     0.0002020
units angstrom
no_reorient  #important for SAPT in psi4, default
symmetry c1  #important for SAPT in psi4, default
}

set PROPERTIES_ORIGIN ["COM"]
properties('MP2/aug-cc-pvtz', properties = ['dipole'])
--------------------------------------------------------------------------

    Molecular point group: c1
  Charge       = -1
  Multiplicity = 1
  Basis Set: AUG-CC-PVTZ
    Blend: AUG-CC-PVTZ
  Basis Set: (AUG-CC-PVTZ AUX)
    Blend: AUG-CC-PVTZ-JKFIT

    Orbital Energies [Eh]
    ---------------------

    Doubly Occupied:

       1A    -20.453809     2A    -20.409728     3A    -20.323443
       4A    -20.320630     5A    -11.229813     6A    -11.173050
       7A     -1.300538     8A     -1.203180     9A     -1.190352
      10A     -1.094458    11A     -0.740318    12A     -0.578871
      13A     -0.547287    14A     -0.494663    15A     -0.469575
      16A     -0.442947    17A     -0.417941    18A     -0.371653
      19A     -0.336078    20A     -0.335770    21A     -0.238558
      22A     -0.232209    23A     -0.213128

  @DF-RHF Final Energy:  -375.96729060371644

   => Energetics <=

    Nuclear Repulsion Energy =            219.0004118023700244
    One-Electron Energy =                -961.6994096840157908
    Two-Electron Energy =                 366.7317072779292744
    Total Energy =                       -375.9672906037164353
  Basis Set: (AUG-CC-PVTZ AUX)
    Blend: AUG-CC-PVTZ-RI
    Molecular point group: c1

    Geometry (in Angstrom), charge = -1, multiplicity = 1:

       Center              X                  Y                   Z               Mass
    ------------   -----------------  -----------------  -----------------  -----------------
         O            1.388805988363     1.048627078251     0.000131597764    15.994914619570
         O            1.302490988363    -1.204418921749     0.000074597764    15.994914619570
         O           -1.473676011637    -1.037914921749    -0.000077402236    15.994914619570
         O           -1.250762011637     1.237703078251    -0.000128402236    15.994914619570
         C            0.687103088363    -0.174770021749     0.000048697764    12.000000000000
         C           -0.839291011637     0.048821078251    -0.000066402236    12.000000000000
         H            2.338047988363     0.801399078251     0.000204597764     1.007825032230

  Basis Set: AUG-CC-PVTZ
    Blend: AUG-CC-PVTZ
  Basis Set: (AUG-CC-PVTZ AUX)
    Blend: AUG-CC-PVTZ-JKFIT
	 Reference Energy          =    -375.9672906037164353 [Eh]
	 Singles Energy            =      -0.0000000000000000 [Eh]
	 Same-Spin Energy          =      -0.3585750557563727 [Eh]
	 Opposite-Spin Energy      =      -1.0173086224476948 [Eh]
	 Correlation Energy        =      -1.3758836782040675 [Eh]
	 Total Energy              =    -377.3431742819204828 [Eh]

	 ================> DF-SCS-MP2 Energies <==================
	-----------------------------------------------------------
	 SCS Same-Spin Scale       =       0.3333333333333333 [-]
	 SCS Opposite-Spin Scale   =       1.2000000000000000 [-]
	 SCS Same-Spin Energy      =      -0.1195250185854576 [Eh]
	 SCS Opposite-Spin Energy  =      -1.2207703469372337 [Eh]
	 SCS Correlation Energy    =      -1.3402953655226912 [Eh]
	 SCS Total Energy          =    -377.3075859692391418 [Eh]
	-----------------------------------------------------------

  Dipole Moment: [D]
     X:     5.1894      Y:     0.5312      Z:     0.0004     Total:     5.2166

*** Psi4 exiting successfully. Buy a developer a beer!
