                               Psi4 1.3.2 release

  ==> Input File <==

--------------------------------------------------------------------------
#psi4
#
memory 32 gb

molecule  {
-1 1
  O        1.3719500     1.0365520     0.0001530
  O        1.2974920    -1.2070900     0.0002320
  O       -1.5132940    -1.0592330    -0.0003040
  O       -1.2763200     1.2290260    -0.0002110
  C        0.6208825    -0.2389913    -0.0002031
  C       -0.8948800     0.0328190     0.0003190
  H        2.3009280     0.7259580     0.0001900
units angstrom
no_reorient  #important for SAPT in psi4, default
symmetry c1  #important for SAPT in psi4, default
}

set PROPERTIES_ORIGIN ["COM"]
properties('MP2/aug-cc-pvtz', properties = ['dipole'])
--------------------------------------------------------------------------

    Molecular point group: c1
  Charge       = -1
  Multiplicity = 1
  Basis Set: AUG-CC-PVTZ
    Blend: AUG-CC-PVTZ
  Basis Set: (AUG-CC-PVTZ AUX)
    Blend: AUG-CC-PVTZ-JKFIT

    Orbital Energies [Eh]
    ---------------------

    Doubly Occupied:

       1A    -20.432847     2A    -20.419104     3A    -20.330416
       4A    -20.328615     5A    -11.232101     6A    -11.181377
       7A     -1.301966     8A     -1.199920     9A     -1.183441
      10A     -1.105289    11A     -0.734772    12A     -0.568431
      13A     -0.536596    14A     -0.498874    15A     -0.462724
      16A     -0.447033    17A     -0.425566    18A     -0.375176
      19A     -0.335131    20A     -0.335116    21A     -0.247487
      22A     -0.234864    23A     -0.220845

  @DF-RHF Final Energy:  -375.95831206129191

   => Energetics <=

    Nuclear Repulsion Energy =            218.2366804595785368
    One-Electron Energy =                -960.1146023041548005
    Two-Electron Energy =                 365.9196097832843293
    Total Energy =                       -375.9583120612919060
  Basis Set: (AUG-CC-PVTZ AUX)
    Blend: AUG-CC-PVTZ-RI
    Molecular point group: c1

    Geometry (in Angstrom), charge = -1, multiplicity = 1:

       Center              X                  Y                   Z               Mass
    ------------   -----------------  -----------------  -----------------  -----------------
         O            1.404439715743     1.056266515991     0.000158585641    15.994914619570
         O            1.329981715743    -1.187375484009     0.000237585641    15.994914619570
         O           -1.480804284257    -1.039518484009    -0.000298414359    15.994914619570
         O           -1.243830284257     1.248740515991    -0.000205414359    15.994914619570
         C            0.653372215743    -0.219276784009    -0.000197514359    12.000000000000
         C           -0.862390284257     0.052533515991     0.000324585641    12.000000000000
         H            2.333417715743     0.745672515991     0.000195585641     1.007825032230

  Basis Set: AUG-CC-PVTZ
    Blend: AUG-CC-PVTZ
  Basis Set: (AUG-CC-PVTZ AUX)
    Blend: AUG-CC-PVTZ-JKFIT
	 Reference Energy          =    -375.9583120612919060 [Eh]
	 Singles Energy            =      -0.0000000000000000 [Eh]
	 Same-Spin Energy          =      -0.3590322806156235 [Eh]
	 Opposite-Spin Energy      =      -1.0187862058788917 [Eh]
	 Correlation Energy        =      -1.3778184864945153 [Eh]
	 Total Energy              =    -377.3361305477864107 [Eh]

	 ================> DF-SCS-MP2 Energies <==================
	-----------------------------------------------------------
	 SCS Same-Spin Scale       =       0.3333333333333333 [-]
	 SCS Opposite-Spin Scale   =       1.2000000000000000 [-]
	 SCS Same-Spin Energy      =      -0.1196774268718745 [Eh]
	 SCS Opposite-Spin Energy  =      -1.2225434470546699 [Eh]
	 SCS Correlation Energy    =      -1.3422208739265444 [Eh]
	 SCS Total Energy          =    -377.3005329352184276 [Eh]
	-----------------------------------------------------------

  Dipole Moment: [D]
     X:     4.6320      Y:    -0.0582      Z:     0.0005     Total:     4.6323

*** Psi4 exiting successfully. Buy a developer a beer!
