                               Psi4 1.4a3.dev225

  ==> Input File <==

--------------------------------------------------------------------------
#psi4
#
memory 32 gb

molecule  {
-1 1
  O        1.3597160     1.0340070     0.0001290
  O        1.2734010    -1.2190390     0.0000720
  O       -1.5027660    -1.0525350    -0.0000800
  O       -1.2798520     1.2230830    -0.0001310
  C        0.6928408    -0.1286692     0.0000502
  C       -0.8683810     0.0342010    -0.0000690
  H        2.3089580     0.7867790     0.0002020
units angstrom
no_reorient  #important for SAPT in psi4, default
symmetry c1  #important for SAPT in psi4, default
}

set PROPERTIES_ORIGIN ["COM"]
properties('MP2/aug-cc-pvtz', properties = ['dipole'])
--------------------------------------------------------------------------

    Molecular point group: c1
  Charge       = -1
  Multiplicity = 1
  Basis Set: AUG-CC-PVTZ
    Blend: AUG-CC-PVTZ
  Basis Set: (AUG-CC-PVTZ AUX)
    Blend: AUG-CC-PVTZ-JKFIT

    Orbital Energies [Eh]
    ---------------------

    Doubly Occupied:

       1A    -20.473616     2A    -20.398063     3A    -20.321184
       4A    -20.318219     5A    -11.228955     6A    -11.171596
       7A     -1.315567     8A     -1.199497     9A     -1.185059
      10A     -1.091683    11A     -0.743864    12A     -0.591616
      13A     -0.552778    14A     -0.491263    15A     -0.481640
      16A     -0.437785    17A     -0.415873    18A     -0.372799
      19A     -0.330394    20A     -0.325054    21A     -0.235847
      22A     -0.228013    23A     -0.211368

  @DF-RHF Final Energy:  -375.96796069425284

   => Energetics <=

    Nuclear Repulsion Energy =            218.9454286312421232
    One-Electron Energy =                -961.5833096922214054
    Two-Electron Energy =                 366.6699203667263873
    Total Energy =                       -375.9679606942528380
  Basis Set: (AUG-CC-PVTZ AUX)
    Blend: AUG-CC-PVTZ-RI
    Molecular point group: c1

    Geometry (in Angstrom), charge = -1, multiplicity = 1:

       Center              X                  Y                   Z               Mass
    ------------   -----------------  -----------------  -----------------  -----------------
         O            1.384109458205     1.040438839060     0.000131044877    15.994914619570
         O            1.297794458205    -1.212607160940     0.000074044877    15.994914619570
         O           -1.478372541795    -1.046103160940    -0.000077955123    15.994914619570
         O           -1.255458541795     1.229514839060    -0.000128955123    15.994914619570
         C            0.717234258205    -0.122237360940     0.000052244877    12.000000000000
         C           -0.843987541795     0.040632839060    -0.000066955123    12.000000000000
         H            2.333351458205     0.793210839060     0.000204044877     1.007825032230

  Basis Set: AUG-CC-PVTZ
    Blend: AUG-CC-PVTZ
  Basis Set: (AUG-CC-PVTZ AUX)
    Blend: AUG-CC-PVTZ-JKFIT
	 Reference Energy          =    -375.9679606942528380 [Eh]
	 Singles Energy            =      -0.0000000000000000 [Eh]
	 Same-Spin Energy          =      -0.3586929334240421 [Eh]
	 Opposite-Spin Energy      =      -1.0169438434479399 [Eh]
	 Correlation Energy        =      -1.3756367768719819 [Eh]
	 Total Energy              =    -377.3435974711248377 [Eh]

	 ================> DF-SCS-MP2 Energies <==================
	-----------------------------------------------------------
	 SCS Same-Spin Scale       =       0.3333333333333333 [-]
	 SCS Opposite-Spin Scale   =       1.2000000000000000 [-]
	 SCS Same-Spin Energy      =      -0.1195643111413474 [Eh]
	 SCS Opposite-Spin Energy  =      -1.2203326121375278 [Eh]
	 SCS Correlation Energy    =      -1.3398969232788751 [Eh]
	 SCS Total Energy          =    -377.3078576175317380 [Eh]
	-----------------------------------------------------------

  Dipole Moment: [D]
     X:     5.4350      Y:     1.0959      Z:     0.0004     Total:     5.5443

*** Psi4 exiting successfully. Buy a developer a beer!
