                               Psi4 1.3.2 release

  ==> Input File <==

--------------------------------------------------------------------------
#psi4
#
memory 32 gb

molecule  {
-1 1
  O        1.3719500     1.0365520     0.0001530
  O        1.2974920    -1.2070900     0.0002320
  O       -1.5132940    -1.0592330    -0.0003040
  O       -1.2763200     1.2290260    -0.0002110
  C        0.6716220    -0.1528200    -0.0001790
  C       -0.8948800     0.0328190     0.0003190
  H        2.4906073     0.6625407     0.0001976
units angstrom
no_reorient  #important for SAPT in psi4, default
symmetry c1  #important for SAPT in psi4, default
}

set PROPERTIES_ORIGIN ["COM"]
properties('MP2/aug-cc-pvtz', properties = ['dipole'])
--------------------------------------------------------------------------

    Molecular point group: c1
  Charge       = -1
  Multiplicity = 1
  Basis Set: AUG-CC-PVTZ
    Blend: AUG-CC-PVTZ
  Basis Set: (AUG-CC-PVTZ AUX)
    Blend: AUG-CC-PVTZ-JKFIT

    Orbital Energies [Eh]
    ---------------------

    Doubly Occupied:

       1A    -20.473740     2A    -20.400004     3A    -20.326514
       4A    -20.324721     5A    -11.227038     6A    -11.178846
       7A     -1.283489     8A     -1.192513     9A     -1.178952
      10A     -1.100484    11A     -0.715591    12A     -0.568074
      13A     -0.521346    14A     -0.492919    15A     -0.465927
      16A     -0.426575    17A     -0.422005    18A     -0.375417
      19A     -0.329251    20A     -0.324664    21A     -0.242569
      22A     -0.229282    23A     -0.217799

  @DF-RHF Final Energy:  -375.93283958240653

   => Energetics <=

    Nuclear Repulsion Energy =            217.1154474687257618
    One-Electron Energy =                -958.0611350572487481
    Two-Electron Energy =                 365.0128480061164851
    Total Energy =                       -375.9328395824065296
  Basis Set: (AUG-CC-PVTZ AUX)
    Blend: AUG-CC-PVTZ-RI
    Molecular point group: c1

    Geometry (in Angstrom), charge = -1, multiplicity = 1:

       Center              X                  Y                   Z               Mass
    ------------   -----------------  -----------------  -----------------  -----------------
         O            1.395449265456     1.045364510233     0.000155249672    15.994914619570
         O            1.320991265456    -1.198277489767     0.000234249672    15.994914619570
         O           -1.489794734544    -1.050420489767    -0.000301750328    15.994914619570
         O           -1.252820734544     1.237838510233    -0.000208750328    15.994914619570
         C            0.695121265456    -0.144007489767    -0.000176750328    12.000000000000
         C           -0.871380734544     0.041631510233     0.000321249672    12.000000000000
         H            2.514106565456     0.671353210233     0.000199849672     1.007825032230

  Basis Set: AUG-CC-PVTZ
    Blend: AUG-CC-PVTZ
  Basis Set: (AUG-CC-PVTZ AUX)
    Blend: AUG-CC-PVTZ-JKFIT
	 Reference Energy          =    -375.9328395824065296 [Eh]
	 Singles Energy            =      -0.0000000000000000 [Eh]
	 Same-Spin Energy          =      -0.3614369213055881 [Eh]
	 Opposite-Spin Energy      =      -1.0244835242911492 [Eh]
	 Correlation Energy        =      -1.3859204455967373 [Eh]
	 Total Energy              =    -377.3187600280032825 [Eh]

	 ================> DF-SCS-MP2 Energies <==================
	-----------------------------------------------------------
	 SCS Same-Spin Scale       =       0.3333333333333333 [-]
	 SCS Opposite-Spin Scale   =       1.2000000000000000 [-]
	 SCS Same-Spin Energy      =      -0.1204789737685294 [Eh]
	 SCS Opposite-Spin Energy  =      -1.2293802291493789 [Eh]
	 SCS Correlation Energy    =      -1.3498592029179084 [Eh]
	 SCS Total Energy          =    -377.2826987853244418 [Eh]
	-----------------------------------------------------------

  Dipole Moment: [D]
     X:     5.0872      Y:     0.6965      Z:     0.0007     Total:     5.1346

*** Psi4 exiting successfully. Buy a developer a beer!
