                               Psi4 1.3.2 release

  ==> Input File <==

--------------------------------------------------------------------------
#psi4
#
memory 32 gb

molecule  {
-1 1
  O        1.3719500     1.0365520     0.0001530
  O        1.2974920    -1.2070900     0.0002320
  O       -1.5132940    -1.0592330    -0.0003040
  O       -1.2763200     1.2290260    -0.0002110
  C        0.7223615    -0.0666487    -0.0001549
  C       -0.8948800     0.0328190     0.0003190
  H        2.3009280     0.7259580     0.0001900
units angstrom
no_reorient  #important for SAPT in psi4, default
symmetry c1  #important for SAPT in psi4, default
}

set PROPERTIES_ORIGIN ["COM"]
properties('MP2/aug-cc-pvtz', properties = ['dipole'])
--------------------------------------------------------------------------

    Molecular point group: c1
  Charge       = -1
  Multiplicity = 1
  Basis Set: AUG-CC-PVTZ
    Blend: AUG-CC-PVTZ
  Basis Set: (AUG-CC-PVTZ AUX)
    Blend: AUG-CC-PVTZ-JKFIT

    Orbital Energies [Eh]
    ---------------------

    Doubly Occupied:

       1A    -20.488611     2A    -20.385436     3A    -20.323970
       4A    -20.322292     5A    -11.227493     6A    -11.177244
       7A     -1.345857     8A     -1.193017     9A     -1.168459
      10A     -1.097710    11A     -0.744199    12A     -0.595739
      13A     -0.564295    14A     -0.496762    15A     -0.488341
      16A     -0.431232    17A     -0.418162    18A     -0.376887
      19A     -0.321426    20A     -0.309696    21A     -0.239976
      22A     -0.221913    23A     -0.216073

  @DF-RHF Final Energy:  -375.95721249146317

   => Energetics <=

    Nuclear Repulsion Energy =            218.1935531394231305
    One-Electron Energy =                -959.9919503675217811
    Two-Electron Energy =                 365.8411847366355119
    Total Energy =                       -375.9572124914631672
  Basis Set: (AUG-CC-PVTZ AUX)
    Blend: AUG-CC-PVTZ-RI
    Molecular point group: c1

    Geometry (in Angstrom), charge = -1, multiplicity = 1:

       Center              X                  Y                   Z               Mass
    ------------   -----------------  -----------------  -----------------  -----------------
         O            1.390755229431     1.033026043079     0.000152085851    15.994914619570
         O            1.316297229431    -1.210615956921     0.000231085851    15.994914619570
         O           -1.494488770569    -1.062758956921    -0.000304914149    15.994914619570
         O           -1.257514770569     1.225500043079    -0.000211914149    15.994914619570
         C            0.741166729431    -0.070174656921    -0.000155814149    12.000000000000
         C           -0.876074770569     0.029293043079     0.000318085851    12.000000000000
         H            2.319733229431     0.722432043079     0.000189085851     1.007825032230

  Basis Set: AUG-CC-PVTZ
    Blend: AUG-CC-PVTZ
  Basis Set: (AUG-CC-PVTZ AUX)
    Blend: AUG-CC-PVTZ-JKFIT
	 Reference Energy          =    -375.9572124914631672 [Eh]
	 Singles Energy            =      -0.0000000000000000 [Eh]
	 Same-Spin Energy          =      -0.3592318892758668 [Eh]
	 Opposite-Spin Energy      =      -1.0173341777431109 [Eh]
	 Correlation Energy        =      -1.3765660670189777 [Eh]
	 Total Energy              =    -377.3337785584821518 [Eh]

	 ================> DF-SCS-MP2 Energies <==================
	-----------------------------------------------------------
	 SCS Same-Spin Scale       =       0.3333333333333333 [-]
	 SCS Opposite-Spin Scale   =       1.2000000000000000 [-]
	 SCS Same-Spin Energy      =      -0.1197439630919556 [Eh]
	 SCS Opposite-Spin Energy  =      -1.2208010132917331 [Eh]
	 SCS Correlation Energy    =      -1.3405449763836887 [Eh]
	 SCS Total Energy          =    -377.2977574678468500 [Eh]
	-----------------------------------------------------------

  Dipole Moment: [D]
     X:     5.2989      Y:     1.5276      Z:     0.0007     Total:     5.5147

*** Psi4 exiting successfully. Buy a developer a beer!
