                               Psi4 1.4a3.dev225

  ==> Input File <==

--------------------------------------------------------------------------
#psi4
#
memory 32 gb

molecule  {
-1 1
  O        1.3597160     1.0340070     0.0001290
  O        1.2734010    -1.2190390     0.0000720
  O       -1.5027660    -1.0525350    -0.0000800
  O       -1.2798520     1.2230830    -0.0001310
  C        0.6587831    -0.1022132     0.0000481
  C       -0.8683810     0.0342010    -0.0000690
  H        2.3089580     0.7867790     0.0002020
units angstrom
no_reorient  #important for SAPT in psi4, default
symmetry c1  #important for SAPT in psi4, default
}

set PROPERTIES_ORIGIN ["COM"]
properties('MP2/aug-cc-pvtz', properties = ['dipole'])
--------------------------------------------------------------------------

    Molecular point group: c1
  Charge       = -1
  Multiplicity = 1
  Basis Set: AUG-CC-PVTZ
    Blend: AUG-CC-PVTZ
  Basis Set: (AUG-CC-PVTZ AUX)
    Blend: AUG-CC-PVTZ-JKFIT

    Orbital Energies [Eh]
    ---------------------

    Doubly Occupied:

       1A    -20.476764     2A    -20.393596     3A    -20.323604
       4A    -20.320457     5A    -11.234679     6A    -11.172850
       7A     -1.314606     8A     -1.194231     9A     -1.171833
      10A     -1.094184    11A     -0.756666    12A     -0.601343
      13A     -0.549461    14A     -0.488042    15A     -0.480745
      16A     -0.434983    17A     -0.416406    18A     -0.375627
      19A     -0.322063    20A     -0.312457    21A     -0.239545
      22A     -0.233773    23A     -0.212940

  @DF-RHF Final Energy:  -375.96070977625186

   => Energetics <=

    Nuclear Repulsion Energy =            218.9459143953191074
    One-Electron Energy =                -961.5715391054880001
    Two-Electron Energy =                 366.6649149339170890
    Total Energy =                       -375.9607097762518606
  Basis Set: (AUG-CC-PVTZ AUX)
    Blend: AUG-CC-PVTZ-RI
    Molecular point group: c1

    Geometry (in Angstrom), charge = -1, multiplicity = 1:

       Center              X                  Y                   Z               Mass
    ------------   -----------------  -----------------  -----------------  -----------------
         O            1.388702153535     1.036871236208     0.000131328063    15.994914619570
         O            1.302387153535    -1.216174763792     0.000074328063    15.994914619570
         O           -1.473779846465    -1.049670763792    -0.000077671937    15.994914619570
         O           -1.250865846465     1.225947236208    -0.000128671937    15.994914619570
         C            0.687769253535    -0.099348963792     0.000050428063    12.000000000000
         C           -0.839394846465     0.037065236208    -0.000066671937    12.000000000000
         H            2.337944153535     0.789643236208     0.000204328063     1.007825032230

  Basis Set: AUG-CC-PVTZ
    Blend: AUG-CC-PVTZ
  Basis Set: (AUG-CC-PVTZ AUX)
    Blend: AUG-CC-PVTZ-JKFIT
	 Reference Energy          =    -375.9607097762518606 [Eh]
	 Singles Energy            =      -0.0000000000000000 [Eh]
	 Same-Spin Energy          =      -0.3596030513125814 [Eh]
	 Opposite-Spin Energy      =      -1.0189981596829956 [Eh]
	 Correlation Energy        =      -1.3786012109955770 [Eh]
	 Total Energy              =    -377.3393109872474156 [Eh]

	 ================> DF-SCS-MP2 Energies <==================
	-----------------------------------------------------------
	 SCS Same-Spin Scale       =       0.3333333333333333 [-]
	 SCS Opposite-Spin Scale   =       1.2000000000000000 [-]
	 SCS Same-Spin Energy      =      -0.1198676837708605 [Eh]
	 SCS Opposite-Spin Energy  =      -1.2227977916195947 [Eh]
	 SCS Correlation Energy    =      -1.3426654753904552 [Eh]
	 SCS Total Energy          =    -377.3033752516423078 [Eh]
	-----------------------------------------------------------

  Dipole Moment: [D]
     X:     5.3085      Y:     1.2825      Z:     0.0004     Total:     5.4612

*** Psi4 exiting successfully. Buy a developer a beer!
