                               Psi4 1.4a3.dev225

  ==> Input File <==

--------------------------------------------------------------------------
#psi4
#
memory 32 gb

molecule  {
-1 1
  O        1.3597160     1.0340070     0.0001290
  O        1.2734010    -1.2190390     0.0000720
  O       -1.5027660    -1.0525350    -0.0000800
  O       -1.2798520     1.2230830    -0.0001310
  C        0.6925328    -0.1635399     0.0000494
  C       -0.8683810     0.0342010    -0.0000690
  H        2.3089580     0.7867790     0.0002020
units angstrom
no_reorient  #important for SAPT in psi4, default
symmetry c1  #important for SAPT in psi4, default
}

set PROPERTIES_ORIGIN ["COM"]
properties('MP2/aug-cc-pvtz', properties = ['dipole'])
--------------------------------------------------------------------------

    Molecular point group: c1
  Charge       = -1
  Multiplicity = 1
  Basis Set: AUG-CC-PVTZ
    Blend: AUG-CC-PVTZ
  Basis Set: (AUG-CC-PVTZ AUX)
    Blend: AUG-CC-PVTZ-JKFIT

    Orbital Energies [Eh]
    ---------------------

    Doubly Occupied:

       1A    -20.464418     2A    -20.404529     3A    -20.321100
       4A    -20.318172     5A    -11.226815     6A    -11.171488
       7A     -1.308999     8A     -1.209728     9A     -1.186900
      10A     -1.091681    11A     -0.736229    12A     -0.583490
      13A     -0.551726    14A     -0.494462    15A     -0.476840
      16A     -0.441135    17A     -0.415845    18A     -0.371392
      19A     -0.336410    20A     -0.334733    21A     -0.235670
      22A     -0.226955    23A     -0.211372

  @DF-RHF Final Energy:  -375.96998824636751

   => Energetics <=

    Nuclear Repulsion Energy =            218.9746534047872331
    One-Electron Energy =                -961.6491034706681376
    Two-Electron Energy =                 366.7044618195134262
    Total Energy =                       -375.9699882463675067
  Basis Set: (AUG-CC-PVTZ AUX)
    Blend: AUG-CC-PVTZ-RI
    Molecular point group: c1

    Geometry (in Angstrom), charge = -1, multiplicity = 1:

       Center              X                  Y                   Z               Mass
    ------------   -----------------  -----------------  -----------------  -----------------
         O            1.384150992136     1.045141167787     0.000131152758    15.994914619570
         O            1.297835992136    -1.207904832213     0.000074152758    15.994914619570
         O           -1.478331007864    -1.041400832213    -0.000077847242    15.994914619570
         O           -1.255417007864     1.234217167787    -0.000128847242    15.994914619570
         C            0.716967792136    -0.152405732213     0.000051552758    12.000000000000
         C           -0.843946007864     0.045335167787    -0.000066847242    12.000000000000
         H            2.333392992136     0.797913167787     0.000204152758     1.007825032230

  Basis Set: AUG-CC-PVTZ
    Blend: AUG-CC-PVTZ
  Basis Set: (AUG-CC-PVTZ AUX)
    Blend: AUG-CC-PVTZ-JKFIT
	 Reference Energy          =    -375.9699882463675067 [Eh]
	 Singles Energy            =      -0.0000000000000000 [Eh]
	 Same-Spin Energy          =      -0.3582812938737973 [Eh]
	 Opposite-Spin Energy      =      -1.0162752748806989 [Eh]
	 Correlation Energy        =      -1.3745565687544961 [Eh]
	 Total Energy              =    -377.3445448151219921 [Eh]

	 ================> DF-SCS-MP2 Energies <==================
	-----------------------------------------------------------
	 SCS Same-Spin Scale       =       0.3333333333333333 [-]
	 SCS Opposite-Spin Scale   =       1.2000000000000000 [-]
	 SCS Same-Spin Energy      =      -0.1194270979579324 [Eh]
	 SCS Opposite-Spin Energy  =      -1.2195303298568387 [Eh]
	 SCS Correlation Energy    =      -1.3389574278147711 [Eh]
	 SCS Total Energy          =    -377.3089456741822687 [Eh]
	-----------------------------------------------------------

  Dipole Moment: [D]
     X:     5.3956      Y:     0.7912      Z:     0.0004     Total:     5.4533

*** Psi4 exiting successfully. Buy a developer a beer!
