                               Psi4 1.3.2 release

  ==> Input File <==

--------------------------------------------------------------------------
#psi4
#
memory 32 gb

molecule  {
-1 1
  O        1.4532104     0.9848023     0.0002018
  O        1.2974920    -1.2070900     0.0002320
  O       -1.5132940    -1.0592330    -0.0003040
  O       -1.2763200     1.2290260    -0.0002110
  C        0.6716220    -0.1528200    -0.0001790
  C       -0.8948800     0.0328190     0.0003190
  H        2.3009280     0.7259580     0.0001900
units angstrom
no_reorient  #important for SAPT in psi4, default
symmetry c1  #important for SAPT in psi4, default
}

set PROPERTIES_ORIGIN ["COM"]
properties('MP2/aug-cc-pvtz', properties = ['dipole'])
--------------------------------------------------------------------------

    Molecular point group: c1
  Charge       = -1
  Multiplicity = 1
  Basis Set: AUG-CC-PVTZ
    Blend: AUG-CC-PVTZ
  Basis Set: (AUG-CC-PVTZ AUX)
    Blend: AUG-CC-PVTZ-JKFIT

    Orbital Energies [Eh]
    ---------------------

    Doubly Occupied:

       1A    -20.447949     2A    -20.398437     3A    -20.329767
       4A    -20.327619     5A    -11.229655     6A    -11.183033
       7A     -1.314637     8A     -1.203085     9A     -1.191927
      10A     -1.103918    11A     -0.747532    12A     -0.598745
      13A     -0.548456    14A     -0.494816    15A     -0.470812
      16A     -0.445419    17A     -0.424483    18A     -0.380146
      19A     -0.328260    20A     -0.324960    21A     -0.246685
      22A     -0.233797    23A     -0.220457

  @DF-RHF Final Energy:  -375.96451275808352

   => Energetics <=

    Nuclear Repulsion Energy =            218.2157148058501264
    One-Electron Energy =                -959.9712683773863091
    Two-Electron Energy =                 365.7910408134526961
    Total Energy =                       -375.9645127580835151
  Basis Set: (AUG-CC-PVTZ AUX)
    Blend: AUG-CC-PVTZ-RI
    Molecular point group: c1

    Geometry (in Angstrom), charge = -1, multiplicity = 1:

       Center              X                  Y                   Z               Mass
    ------------   -----------------  -----------------  -----------------  -----------------
         O            1.464251850384     1.002198247595     0.000195364267    15.994914619570
         O            1.308533450384    -1.189694052405     0.000225564267    15.994914619570
         O           -1.502252549616    -1.041837052405    -0.000310435733    15.994914619570
         O           -1.265278549616     1.246421947595    -0.000217435733    15.994914619570
         C            0.682663450384    -0.135424052405    -0.000185435733    12.000000000000
         C           -0.883838549616     0.050214947595     0.000312564267    12.000000000000
         H            2.311969450384     0.743353947595     0.000183564267     1.007825032230

  Basis Set: AUG-CC-PVTZ
    Blend: AUG-CC-PVTZ
  Basis Set: (AUG-CC-PVTZ AUX)
    Blend: AUG-CC-PVTZ-JKFIT
	 Reference Energy          =    -375.9645127580835151 [Eh]
	 Singles Energy            =      -0.0000000000000000 [Eh]
	 Same-Spin Energy          =      -0.3570651583218762 [Eh]
	 Opposite-Spin Energy      =      -1.0139613629687294 [Eh]
	 Correlation Energy        =      -1.3710265212906056 [Eh]
	 Total Energy              =    -377.3355392793741316 [Eh]

	 ================> DF-SCS-MP2 Energies <==================
	-----------------------------------------------------------
	 SCS Same-Spin Scale       =       0.3333333333333333 [-]
	 SCS Opposite-Spin Scale   =       1.2000000000000000 [-]
	 SCS Same-Spin Energy      =      -0.1190217194406254 [Eh]
	 SCS Opposite-Spin Energy  =      -1.2167536355624753 [Eh]
	 SCS Correlation Energy    =      -1.3357753550031006 [Eh]
	 SCS Total Energy          =    -377.3002881130865944 [Eh]
	-----------------------------------------------------------

  Dipole Moment: [D]
     X:     4.9131      Y:     0.7102      Z:     0.0006     Total:     4.9641

*** Psi4 exiting successfully. Buy a developer a beer!
