                               Psi4 1.3.2 release

  ==> Input File <==

--------------------------------------------------------------------------
#psi4
#
memory 32 gb

molecule  {
-1 1
  O        1.3719500     1.0365520     0.0001530
  O        1.4042646    -1.1358934     0.0001459
  O       -1.5132940    -1.0592330    -0.0003040
  O       -1.2763200     1.2290260    -0.0002110
  C        0.6716220    -0.1528200    -0.0001790
  C       -0.8948800     0.0328190     0.0003190
  H        2.3009280     0.7259580     0.0001900
units angstrom
no_reorient  #important for SAPT in psi4, default
symmetry c1  #important for SAPT in psi4, default
}

set PROPERTIES_ORIGIN ["COM"]
properties('MP2/aug-cc-pvtz', properties = ['dipole'])
--------------------------------------------------------------------------

    Molecular point group: c1
  Charge       = -1
  Multiplicity = 1
  Basis Set: AUG-CC-PVTZ
    Blend: AUG-CC-PVTZ
  Basis Set: (AUG-CC-PVTZ AUX)
    Blend: AUG-CC-PVTZ-JKFIT

    Orbital Energies [Eh]
    ---------------------

    Doubly Occupied:

       1A    -20.450652     2A    -20.400732     3A    -20.331561
       4A    -20.329821     5A    -11.229892     6A    -11.185406
       7A     -1.304177     8A     -1.198709     9A     -1.185876
      10A     -1.105768    11A     -0.734777    12A     -0.577235
      13A     -0.542789    14A     -0.496929    15A     -0.468595
      16A     -0.444589    17A     -0.426587    18A     -0.379705
      19A     -0.329747    20A     -0.324178    21A     -0.248212
      22A     -0.235147    23A     -0.222133

  @DF-RHF Final Energy:  -375.96496747008388

   => Energetics <=

    Nuclear Repulsion Energy =            218.0081342587960762
    One-Electron Energy =                -959.6397725295561258
    Two-Electron Energy =                 365.6666708006761723
    Total Energy =                       -375.9649674700838773
  Basis Set: (AUG-CC-PVTZ AUX)
    Blend: AUG-CC-PVTZ-RI
    Molecular point group: c1

    Geometry (in Angstrom), charge = -1, multiplicity = 1:

       Center              X                  Y                   Z               Mass
    ------------   -----------------  -----------------  -----------------  -----------------
         O            1.378405800305     1.031849159162     0.000170811654    15.994914619570
         O            1.410720400305    -1.140596240838     0.000163711654    15.994914619570
         O           -1.506838199695    -1.063935840838    -0.000286188346    15.994914619570
         O           -1.269864199695     1.224323159162    -0.000193188346    15.994914619570
         C            0.678077800305    -0.157522840838    -0.000161188346    12.000000000000
         C           -0.888424199695     0.028116159162     0.000336811654    12.000000000000
         H            2.307383800305     0.721255159162     0.000207811654     1.007825032230

  Basis Set: AUG-CC-PVTZ
    Blend: AUG-CC-PVTZ
  Basis Set: (AUG-CC-PVTZ AUX)
    Blend: AUG-CC-PVTZ-JKFIT
	 Reference Energy          =    -375.9649674700838773 [Eh]
	 Singles Energy            =      -0.0000000000000000 [Eh]
	 Same-Spin Energy          =      -0.3587707049510650 [Eh]
	 Opposite-Spin Energy      =      -1.0173900680068029 [Eh]
	 Correlation Energy        =      -1.3761607729578680 [Eh]
	 Total Energy              =    -377.3411282430417373 [Eh]

	 ================> DF-SCS-MP2 Energies <==================
	-----------------------------------------------------------
	 SCS Same-Spin Scale       =       0.3333333333333333 [-]
	 SCS Opposite-Spin Scale   =       1.2000000000000000 [-]
	 SCS Same-Spin Energy      =      -0.1195902349836883 [Eh]
	 SCS Opposite-Spin Energy  =      -1.2208680816081634 [Eh]
	 SCS Correlation Energy    =      -1.3404583165918518 [Eh]
	 SCS Total Energy          =    -377.3054257866757553 [Eh]
	-----------------------------------------------------------

  Dipole Moment: [D]
     X:     4.7324      Y:     0.6975      Z:     0.0007     Total:     4.7836

*** Psi4 exiting successfully. Buy a developer a beer!
