                               Psi4 1.4a3.dev225

  ==> Input File <==

--------------------------------------------------------------------------
#psi4
#
memory 32 gb

molecule  {
-1 1
  O        1.3597160     1.0340070     0.0001290
  O        1.2734010    -1.2190390     0.0000720
  O       -1.5027660    -1.0525350    -0.0000800
  O       -1.2798520     1.2230830    -0.0001310
  C        0.6828900    -0.1460180     0.0000490
  C       -0.8431739     0.0773821    -0.0000686
  H        2.3089580     0.7867790     0.0002020
units angstrom
no_reorient  #important for SAPT in psi4, default
symmetry c1  #important for SAPT in psi4, default
}

set PROPERTIES_ORIGIN ["COM"]
properties('MP2/aug-cc-pvtz', properties = ['dipole'])
--------------------------------------------------------------------------

    Molecular point group: c1
  Charge       = -1
  Multiplicity = 1
  Basis Set: AUG-CC-PVTZ
    Blend: AUG-CC-PVTZ
  Basis Set: (AUG-CC-PVTZ AUX)
    Blend: AUG-CC-PVTZ-JKFIT

    Orbital Energies [Eh]
    ---------------------

    Doubly Occupied:

       1A    -20.469987     2A    -20.403898     3A    -20.331830
       4A    -20.307712     5A    -11.232479     6A    -11.171538
       7A     -1.311616     8A     -1.203193     9A     -1.194179
      10A     -1.075848    11A     -0.751405    12A     -0.589475
      13A     -0.552995    14A     -0.495473    15A     -0.480202
      16A     -0.441942    17A     -0.411204    18A     -0.371583
      19A     -0.334804    20A     -0.330740    21A     -0.234124
      22A     -0.227635    23A     -0.206113

  @DF-RHF Final Energy:  -375.96256823572014

   => Energetics <=

    Nuclear Repulsion Energy =            219.0456236733103026
    One-Electron Energy =                -961.7564343035854790
    Two-Electron Energy =                 366.7482423945550636
    Total Energy =                       -375.9625682357201413
  Basis Set: (AUG-CC-PVTZ AUX)
    Blend: AUG-CC-PVTZ-RI
    Molecular point group: c1

    Geometry (in Angstrom), charge = -1, multiplicity = 1:

       Center              X                  Y                   Z               Mass
    ------------   -----------------  -----------------  -----------------  -----------------
         O            1.382052139661     1.036955342418     0.000131152758    15.994914619570
         O            1.295737139661    -1.216090657582     0.000074152758    15.994914619570
         O           -1.480429860339    -1.049586657582    -0.000077847242    15.994914619570
         O           -1.257515860339     1.226031342418    -0.000128847242    15.994914619570
         C            0.705226139661    -0.143069657582     0.000051152758    12.000000000000
         C           -0.820837760339     0.080330442418    -0.000066447242    12.000000000000
         H            2.331294139661     0.789727342418     0.000204152758     1.007825032230

  Basis Set: AUG-CC-PVTZ
    Blend: AUG-CC-PVTZ
  Basis Set: (AUG-CC-PVTZ AUX)
    Blend: AUG-CC-PVTZ-JKFIT
	 Reference Energy          =    -375.9625682357201413 [Eh]
	 Singles Energy            =      -0.0000000000000000 [Eh]
	 Same-Spin Energy          =      -0.3591828619783971 [Eh]
	 Opposite-Spin Energy      =      -1.0183152240024669 [Eh]
	 Correlation Energy        =      -1.3774980859808639 [Eh]
	 Total Energy              =    -377.3400663217009878 [Eh]

	 ================> DF-SCS-MP2 Energies <==================
	-----------------------------------------------------------
	 SCS Same-Spin Scale       =       0.3333333333333333 [-]
	 SCS Opposite-Spin Scale   =       1.2000000000000000 [-]
	 SCS Same-Spin Energy      =      -0.1197276206594657 [Eh]
	 SCS Opposite-Spin Energy  =      -1.2219782688029601 [Eh]
	 SCS Correlation Energy    =      -1.3417058894624259 [Eh]
	 SCS Total Energy          =    -377.3042741251825873 [Eh]
	-----------------------------------------------------------

  Dipole Moment: [D]
     X:     5.5444      Y:     1.3660      Z:     0.0004     Total:     5.7102

*** Psi4 exiting successfully. Buy a developer a beer!
