                               Psi4 1.3.2 release

  ==> Input File <==

--------------------------------------------------------------------------
#psi4
#
memory 32 gb

molecule  {
-1 1
  O        1.3719500     1.0365520     0.0001530
  O        1.2974920    -1.2070900     0.0002320
  O       -1.5132940    -1.0592330    -0.0003040
  O       -1.2763200     1.2290260    -0.0002110
  C        0.6924861    -0.1648613    -0.0001793
  C       -0.8948800     0.0328190     0.0003190
  H        2.3009280     0.7259580     0.0001900
units angstrom
no_reorient  #important for SAPT in psi4, default
symmetry c1  #important for SAPT in psi4, default
}

set PROPERTIES_ORIGIN ["COM"]
properties('MP2/aug-cc-pvtz', properties = ['dipole'])
--------------------------------------------------------------------------

    Molecular point group: c1
  Charge       = -1
  Multiplicity = 1
  Basis Set: AUG-CC-PVTZ
    Blend: AUG-CC-PVTZ
  Basis Set: (AUG-CC-PVTZ AUX)
    Blend: AUG-CC-PVTZ-JKFIT

    Orbital Energies [Eh]
    ---------------------

    Doubly Occupied:

       1A    -20.460568     2A    -20.404511     3A    -20.325344
       4A    -20.323151     5A    -11.225645     6A    -11.177378
       7A     -1.307060     8A     -1.205823     9A     -1.191220
      10A     -1.099306    11A     -0.725452    12A     -0.575585
      13A     -0.550297    14A     -0.497340    15A     -0.472953
      16A     -0.443489    17A     -0.421131    18A     -0.375096
      19A     -0.337338    20A     -0.334356    21A     -0.241671
      22A     -0.225348    23A     -0.216876

  @DF-RHF Final Energy:  -375.96976795426178

   => Energetics <=

    Nuclear Repulsion Energy =            218.1812273879791348
    One-Electron Energy =                -960.0281112015723011
    Two-Electron Energy =                 365.8771158593314112
    Total Energy =                       -375.9697679542617834
  Basis Set: (AUG-CC-PVTZ AUX)
    Blend: AUG-CC-PVTZ-RI
    Molecular point group: c1

    Geometry (in Angstrom), charge = -1, multiplicity = 1:

       Center              X                  Y                   Z               Mass
    ------------   -----------------  -----------------  -----------------  -----------------
         O            1.394783939828     1.046270053961     0.000155376201    15.994914619570
         O            1.320325939828    -1.197371946039     0.000234376201    15.994914619570
         O           -1.490460060172    -1.049514946039    -0.000301623799    15.994914619570
         O           -1.253486060172     1.238744053961    -0.000208623799    15.994914619570
         C            0.715320039828    -0.155143246039    -0.000176923799    12.000000000000
         C           -0.872046060172     0.042537053961     0.000321376201    12.000000000000
         H            2.323761939828     0.735676053961     0.000192376201     1.007825032230

  Basis Set: AUG-CC-PVTZ
    Blend: AUG-CC-PVTZ
  Basis Set: (AUG-CC-PVTZ AUX)
    Blend: AUG-CC-PVTZ-JKFIT
	 Reference Energy          =    -375.9697679542617834 [Eh]
	 Singles Energy            =      -0.0000000000000000 [Eh]
	 Same-Spin Energy          =      -0.3583482005075940 [Eh]
	 Opposite-Spin Energy      =      -1.0164433293324786 [Eh]
	 Correlation Energy        =      -1.3747915298400726 [Eh]
	 Total Energy              =    -377.3445594841018647 [Eh]

	 ================> DF-SCS-MP2 Energies <==================
	-----------------------------------------------------------
	 SCS Same-Spin Scale       =       0.3333333333333333 [-]
	 SCS Opposite-Spin Scale   =       1.2000000000000000 [-]
	 SCS Same-Spin Energy      =      -0.1194494001691980 [Eh]
	 SCS Opposite-Spin Energy  =      -1.2197319951989742 [Eh]
	 SCS Correlation Energy    =      -1.3391813953681722 [Eh]
	 SCS Total Energy          =    -377.3089493496299838 [Eh]
	-----------------------------------------------------------

  Dipole Moment: [D]
     X:     5.1126      Y:     0.6644      Z:     0.0006     Total:     5.1556

*** Psi4 exiting successfully. Buy a developer a beer!
