                               Psi4 1.3.2 release

  ==> Input File <==

--------------------------------------------------------------------------
#psi4
#
memory 32 gb

molecule  {
-1 1
  O        1.3719500     1.0365520     0.0001530
  O        1.2974920    -1.2070900     0.0002320
  O       -1.5132940    -1.0592330    -0.0003040
  O       -1.2763200     1.2290260    -0.0002110
  C        0.7135571    -0.1765366    -0.0001794
  C       -0.8948800     0.0328190     0.0003190
  H        2.3009280     0.7259580     0.0001900
units angstrom
no_reorient  #important for SAPT in psi4, default
symmetry c1  #important for SAPT in psi4, default
}

set PROPERTIES_ORIGIN ["COM"]
properties('MP2/aug-cc-pvtz', properties = ['dipole'])
--------------------------------------------------------------------------

    Molecular point group: c1
  Charge       = -1
  Multiplicity = 1
  Basis Set: AUG-CC-PVTZ
    Blend: AUG-CC-PVTZ
  Basis Set: (AUG-CC-PVTZ AUX)
    Blend: AUG-CC-PVTZ-JKFIT

    Orbital Energies [Eh]
    ---------------------

    Doubly Occupied:

       1A    -20.459470     2A    -20.406395     3A    -20.324054
       4A    -20.321887     5A    -11.221932     6A    -11.176374
       7A     -1.313049     8A     -1.214389     9A     -1.189526
      10A     -1.097774    11A     -0.718154    12A     -0.573899
      13A     -0.552287    14A     -0.499758    15A     -0.475906
      16A     -0.443869    17A     -0.419768    18A     -0.373588
      19A     -0.341586    20A     -0.340179    21A     -0.240170
      22A     -0.220284    23A     -0.215956

  @DF-RHF Final Energy:  -375.96922320449301

   => Energetics <=

    Nuclear Repulsion Energy =            218.2244012366526533
    One-Electron Energy =                -960.1067424179648242
    Two-Electron Energy =                 365.9131179768191942
    Total Energy =                       -375.9692232044930051
  Basis Set: (AUG-CC-PVTZ AUX)
    Blend: AUG-CC-PVTZ-RI
    Molecular point group: c1

    Geometry (in Angstrom), charge = -1, multiplicity = 1:

       Center              X                  Y                   Z               Mass
    ------------   -----------------  -----------------  -----------------  -----------------
         O            1.391942506516     1.047844473132     0.000155389686    15.994914619570
         O            1.317484506516    -1.195797526868     0.000234389686    15.994914619570
         O           -1.493301493484    -1.047940526868    -0.000301610314    15.994914619570
         O           -1.256327493484     1.240318473132    -0.000208610314    15.994914619570
         C            0.733549606516    -0.165244126868    -0.000177010314    12.000000000000
         C           -0.874887493484     0.044111473132     0.000321389686    12.000000000000
         H            2.320920506516     0.737250473132     0.000192389686     1.007825032230

  Basis Set: AUG-CC-PVTZ
    Blend: AUG-CC-PVTZ
  Basis Set: (AUG-CC-PVTZ AUX)
    Blend: AUG-CC-PVTZ-JKFIT
	 Reference Energy          =    -375.9692232044930051 [Eh]
	 Singles Energy            =      -0.0000000000000000 [Eh]
	 Same-Spin Energy          =      -0.3579889172220496 [Eh]
	 Opposite-Spin Energy      =      -1.0155406876361543 [Eh]
	 Correlation Energy        =      -1.3735296048582040 [Eh]
	 Total Energy              =    -377.3427528093512251 [Eh]

	 ================> DF-SCS-MP2 Energies <==================
	-----------------------------------------------------------
	 SCS Same-Spin Scale       =       0.3333333333333333 [-]
	 SCS Opposite-Spin Scale   =       1.2000000000000000 [-]
	 SCS Same-Spin Energy      =      -0.1193296390740165 [Eh]
	 SCS Opposite-Spin Energy  =      -1.2186488251633851 [Eh]
	 SCS Correlation Energy    =      -1.3379784642374017 [Eh]
	 SCS Total Energy          =    -377.3072016687303858 [Eh]
	-----------------------------------------------------------

  Dipole Moment: [D]
     X:     5.1913      Y:     0.5757      Z:     0.0006     Total:     5.2231

*** Psi4 exiting successfully. Buy a developer a beer!
