                               Psi4 1.3.2 release

  ==> Input File <==

--------------------------------------------------------------------------
#psi4
#
memory 32 gb

molecule  {
-1 1
  O        1.3719500     1.0365520     0.0001530
  O        1.2603172    -1.2282903     0.0002598
  O       -1.5132940    -1.0592330    -0.0003040
  O       -1.2763200     1.2290260    -0.0002110
  C        0.6716220    -0.1528200    -0.0001790
  C       -0.8948800     0.0328190     0.0003190
  H        2.3009280     0.7259580     0.0001900
units angstrom
no_reorient  #important for SAPT in psi4, default
symmetry c1  #important for SAPT in psi4, default
}

set PROPERTIES_ORIGIN ["COM"]
properties('MP2/aug-cc-pvtz', properties = ['dipole'])
--------------------------------------------------------------------------

    Molecular point group: c1
  Charge       = -1
  Multiplicity = 1
  Basis Set: AUG-CC-PVTZ
    Blend: AUG-CC-PVTZ
  Basis Set: (AUG-CC-PVTZ AUX)
    Blend: AUG-CC-PVTZ-JKFIT

    Orbital Energies [Eh]
    ---------------------

    Doubly Occupied:

       1A    -20.465199     2A    -20.403104     3A    -20.324944
       4A    -20.322515     5A    -11.229224     6A    -11.175710
       7A     -1.301978     8A     -1.200519     9A     -1.189919
      10A     -1.099064    11A     -0.732383    12A     -0.578720
      13A     -0.549526    14A     -0.494394    15A     -0.471335
      16A     -0.442408    17A     -0.420684    18A     -0.375600
      19A     -0.333363    20A     -0.329269    21A     -0.241400
      22A     -0.228085    23A     -0.216257

  @DF-RHF Final Energy:  -375.96800690445627

   => Energetics <=

    Nuclear Repulsion Energy =            218.2421277329092675
    One-Electron Energy =                -960.1690685686751294
    Two-Electron Energy =                 365.9589339313096161
    Total Energy =                       -375.9680069044562742
  Basis Set: (AUG-CC-PVTZ AUX)
    Blend: AUG-CC-PVTZ-RI
    Molecular point group: c1

    Geometry (in Angstrom), charge = -1, multiplicity = 1:

       Center              X                  Y                   Z               Mass
    ------------   -----------------  -----------------  -----------------  -----------------
         O            1.404279398275     1.048456893961     0.000150338879    15.994914619570
         O            1.292646598275    -1.216385406039     0.000257138879    15.994914619570
         O           -1.480964601725    -1.047328106039    -0.000306661121    15.994914619570
         O           -1.243990601725     1.240930893961    -0.000213661121    15.994914619570
         C            0.703951398275    -0.140915106039    -0.000181661121    12.000000000000
         C           -0.862550601725     0.044723893961     0.000316338879    12.000000000000
         H            2.333257398275     0.737862893961     0.000187338879     1.007825032230

  Basis Set: AUG-CC-PVTZ
    Blend: AUG-CC-PVTZ
  Basis Set: (AUG-CC-PVTZ AUX)
    Blend: AUG-CC-PVTZ-JKFIT
	 Reference Energy          =    -375.9680069044562742 [Eh]
	 Singles Energy            =      -0.0000000000000000 [Eh]
	 Same-Spin Energy          =      -0.3588368020536625 [Eh]
	 Opposite-Spin Energy      =      -1.0176209223839310 [Eh]
	 Correlation Energy        =      -1.3764577244375935 [Eh]
	 Total Energy              =    -377.3444646288938884 [Eh]

	 ================> DF-SCS-MP2 Energies <==================
	-----------------------------------------------------------
	 SCS Same-Spin Scale       =       0.3333333333333333 [-]
	 SCS Opposite-Spin Scale   =       1.2000000000000000 [-]
	 SCS Same-Spin Energy      =      -0.1196122673512208 [Eh]
	 SCS Opposite-Spin Energy  =      -1.2211451068607171 [Eh]
	 SCS Correlation Energy    =      -1.3407573742119379 [Eh]
	 SCS Total Energy          =    -377.3087642786682068 [Eh]
	-----------------------------------------------------------

  Dipole Moment: [D]
     X:     5.1369      Y:     0.7639      Z:     0.0006     Total:     5.1934

*** Psi4 exiting successfully. Buy a developer a beer!
