                               Psi4 1.3.2 release

  ==> Input File <==

--------------------------------------------------------------------------
#psi4
#
memory 32 gb

molecule  {
-1 1
  O        1.3719500     1.0365520     0.0001530
  O        1.2974920    -1.2070900     0.0002320
  O       -1.5132940    -1.0592330    -0.0003040
  O       -1.2763200     1.2290260    -0.0002110
  C        0.5511352    -0.0731003    -0.0001754
  C       -0.8948800     0.0328190     0.0003190
  H        2.3009280     0.7259580     0.0001900
units angstrom
no_reorient  #important for SAPT in psi4, default
symmetry c1  #important for SAPT in psi4, default
}

set PROPERTIES_ORIGIN ["COM"]
properties('MP2/aug-cc-pvtz', properties = ['dipole'])
--------------------------------------------------------------------------

    Molecular point group: c1
  Charge       = -1
  Multiplicity = 1
  Basis Set: AUG-CC-PVTZ
    Blend: AUG-CC-PVTZ
  Basis Set: (AUG-CC-PVTZ AUX)
    Blend: AUG-CC-PVTZ-JKFIT

    Orbital Energies [Eh]
    ---------------------

    Doubly Occupied:

       1A    -20.469753     2A    -20.390473     3A    -20.335595
       4A    -20.332436     5A    -11.250441     6A    -11.179762
       7A     -1.289687     8A     -1.207639     9A     -1.131994
      10A     -1.107146    11A     -0.780693    12A     -0.605968
      13A     -0.534159    14A     -0.490562    15A     -0.465559
      16A     -0.442460    17A     -0.409341    18A     -0.385193
      19A     -0.306795    20A     -0.290130    21A     -0.254732
      22A     -0.248053    23A     -0.223195

  @DF-RHF Final Energy:  -375.92460754895984

   => Energetics <=

    Nuclear Repulsion Energy =            218.1886098920637949
    One-Electron Energy =                -959.9629015968271233
    Two-Electron Energy =                 365.8496841558034589
    Total Energy =                       -375.9246075489598411
  Basis Set: (AUG-CC-PVTZ AUX)
    Blend: AUG-CC-PVTZ-RI
    Molecular point group: c1

    Geometry (in Angstrom), charge = -1, multiplicity = 1:

       Center              X                  Y                   Z               Mass
    ------------   -----------------  -----------------  -----------------  -----------------
         O            1.413845168813     1.033896044083     0.000154850284    15.994914619570
         O            1.339387168813    -1.209745955917     0.000233850284    15.994914619570
         O           -1.471398831187    -1.061888955917    -0.000302149716    15.994914619570
         O           -1.234424831187     1.226370044083    -0.000209149716    15.994914619570
         C            0.593030368813    -0.075756255917    -0.000173549716    12.000000000000
         C           -0.852984831187     0.030163044083     0.000320850284    12.000000000000
         H            2.342823168813     0.723302044083     0.000191850284     1.007825032230

  Basis Set: AUG-CC-PVTZ
    Blend: AUG-CC-PVTZ
  Basis Set: (AUG-CC-PVTZ AUX)
    Blend: AUG-CC-PVTZ-JKFIT
	 Reference Energy          =    -375.9246075489598411 [Eh]
	 Singles Energy            =      -0.0000000000000000 [Eh]
	 Same-Spin Energy          =      -0.3627979633437324 [Eh]
	 Opposite-Spin Energy      =      -1.0266637543607759 [Eh]
	 Correlation Energy        =      -1.3894617177045083 [Eh]
	 Total Energy              =    -377.3140692666643758 [Eh]

	 ================> DF-SCS-MP2 Energies <==================
	-----------------------------------------------------------
	 SCS Same-Spin Scale       =       0.3333333333333333 [-]
	 SCS Opposite-Spin Scale   =       1.2000000000000000 [-]
	 SCS Same-Spin Energy      =      -0.1209326544479108 [Eh]
	 SCS Opposite-Spin Energy  =      -1.2319965052329311 [Eh]
	 SCS Correlation Energy    =      -1.3529291596808419 [Eh]
	 SCS Total Energy          =    -377.2775367086406959 [Eh]
	-----------------------------------------------------------

  Dipole Moment: [D]
     X:     4.5835      Y:     1.2418      Z:     0.0007     Total:     4.7488

*** Psi4 exiting successfully. Buy a developer a beer!
