                               Psi4 1.4a3.dev225

  ==> Input File <==

--------------------------------------------------------------------------
#psi4
#
memory 32 gb

molecule  {
-1 1
  O        1.3597160     1.0340070     0.0001290
  O        1.2734010    -1.2190390     0.0000720
  O       -1.5027660    -1.0525350    -0.0000800
  O       -1.2798520     1.2230830    -0.0001310
  C        0.6732472    -0.1284961     0.0000486
  C       -0.8683810     0.0342010    -0.0000690
  H        2.3089580     0.7867790     0.0002020
units angstrom
no_reorient  #important for SAPT in psi4, default
symmetry c1  #important for SAPT in psi4, default
}

set PROPERTIES_ORIGIN ["COM"]
properties('MP2/aug-cc-pvtz', properties = ['dipole'])
--------------------------------------------------------------------------

    Molecular point group: c1
  Charge       = -1
  Multiplicity = 1
  Basis Set: AUG-CC-PVTZ
    Blend: AUG-CC-PVTZ
  Basis Set: (AUG-CC-PVTZ AUX)
    Blend: AUG-CC-PVTZ-JKFIT

    Orbital Energies [Eh]
    ---------------------

    Doubly Occupied:

       1A    -20.471610     2A    -20.398329     3A    -20.322481
       4A    -20.319456     5A    -11.231436     6A    -11.172289
       7A     -1.310157     8A     -1.196035     9A     -1.184459
      10A     -1.093124    11A     -0.748031    12A     -0.592935
      13A     -0.549831    14A     -0.490555    15A     -0.478245
      16A     -0.437940    17A     -0.416805    18A     -0.373851
      19A     -0.328418    20A     -0.322275    21A     -0.237635
      22A     -0.231400    23A     -0.212248

  @DF-RHF Final Energy:  -375.96649644546591

   => Energetics <=

    Nuclear Repulsion Energy =            218.9434876800161476
    One-Electron Energy =                -961.5808755613961694
    Two-Electron Energy =                 366.6708914359141431
    Total Energy =                       -375.9664964454659071
  Basis Set: (AUG-CC-PVTZ AUX)
    Blend: AUG-CC-PVTZ-RI
    Molecular point group: c1

    Geometry (in Angstrom), charge = -1, multiplicity = 1:

       Center              X                  Y                   Z               Mass
    ------------   -----------------  -----------------  -----------------  -----------------
         O            1.386751663499     1.040415496452     0.000131260638    15.994914619570
         O            1.300436663499    -1.212630503548     0.000074260638    15.994914619570
         O           -1.475730336501    -1.046126503548    -0.000077739362    15.994914619570
         O           -1.252816336501     1.229491496452    -0.000128739362    15.994914619570
         C            0.700282863499    -0.122087603548     0.000050860638    12.000000000000
         C           -0.841345336501     0.040609496452    -0.000066739362    12.000000000000
         H            2.335993663499     0.793187496452     0.000204260638     1.007825032230

  Basis Set: AUG-CC-PVTZ
    Blend: AUG-CC-PVTZ
  Basis Set: (AUG-CC-PVTZ AUX)
    Blend: AUG-CC-PVTZ-JKFIT
	 Reference Energy          =    -375.9664964454659071 [Eh]
	 Singles Energy            =      -0.0000000000000000 [Eh]
	 Same-Spin Energy          =      -0.3589940334927561 [Eh]
	 Opposite-Spin Energy      =      -1.0177562530401787 [Eh]
	 Correlation Energy        =      -1.3767502865329349 [Eh]
	 Total Energy              =    -377.3432467319988177 [Eh]

	 ================> DF-SCS-MP2 Energies <==================
	-----------------------------------------------------------
	 SCS Same-Spin Scale       =       0.3333333333333333 [-]
	 SCS Opposite-Spin Scale   =       1.2000000000000000 [-]
	 SCS Same-Spin Energy      =      -0.1196646778309187 [Eh]
	 SCS Opposite-Spin Energy  =      -1.2213075036482144 [Eh]
	 SCS Correlation Energy    =      -1.3409721814791331 [Eh]
	 SCS Total Energy          =    -377.3074686269450240 [Eh]
	-----------------------------------------------------------

  Dipole Moment: [D]
     X:     5.3471      Y:     1.0777      Z:     0.0004     Total:     5.4546

*** Psi4 exiting successfully. Buy a developer a beer!
