                               Psi4 1.3.2 release

  ==> Input File <==

--------------------------------------------------------------------------
#psi4
#
memory 32 gb

molecule  {
-1 1
  O        1.3719500     1.0365520     0.0001530
  O        1.2974920    -1.2070900     0.0002320
  O       -1.5132940    -1.0592330    -0.0003040
  O       -1.2763200     1.2290260    -0.0002110
  C        0.7562944    -0.1987752    -0.0001794
  C       -0.8948800     0.0328190     0.0003190
  H        2.3009280     0.7259580     0.0001900
units angstrom
no_reorient  #important for SAPT in psi4, default
symmetry c1  #important for SAPT in psi4, default
}

set PROPERTIES_ORIGIN ["COM"]
properties('MP2/aug-cc-pvtz', properties = ['dipole'])
--------------------------------------------------------------------------

    Molecular point group: c1
  Charge       = -1
  Multiplicity = 1
  Basis Set: AUG-CC-PVTZ
    Blend: AUG-CC-PVTZ
  Basis Set: (AUG-CC-PVTZ AUX)
    Blend: AUG-CC-PVTZ-JKFIT

    Orbital Energies [Eh]
    ---------------------

    Doubly Occupied:

       1A    -20.457636     2A    -20.410356     3A    -20.321434
       4A    -20.319353     5A    -11.214868     6A    -11.173745
       7A     -1.329199     8A     -1.228941     9A     -1.185690
      10A     -1.094607    11A     -0.704262    12A     -0.574542
      13A     -0.555341    14A     -0.504214    15A     -0.483839
      16A     -0.444094    17A     -0.416584    18A     -0.370491
      19A     -0.350992    20A     -0.349581    21A     -0.237152
      22A     -0.214031    23A     -0.208898

  @DF-RHF Final Energy:  -375.96189092825114

   => Energetics <=

    Nuclear Repulsion Energy =            218.3422766088288256
    One-Electron Energy =                -960.3086382252174644
    Two-Electron Energy =                 366.0044706881375305
    Total Energy =                       -375.9618909282511368
  Basis Set: (AUG-CC-PVTZ AUX)
    Blend: AUG-CC-PVTZ-RI
    Molecular point group: c1

    Geometry (in Angstrom), charge = -1, multiplicity = 1:

       Center              X                  Y                   Z               Mass
    ------------   -----------------  -----------------  -----------------  -----------------
         O            1.386179363434     1.050843357801     0.000155389686    15.994914619570
         O            1.311721363434    -1.192798642199     0.000234389686    15.994914619570
         O           -1.499064636566    -1.044941642199    -0.000301610314    15.994914619570
         O           -1.262090636566     1.243317357801    -0.000208610314    15.994914619570
         C            0.770523763434    -0.184483842199    -0.000177010314    12.000000000000
         C           -0.880650636566     0.047110357801     0.000321389686    12.000000000000
         H            2.315157363434     0.740249357801     0.000192389686     1.007825032230

  Basis Set: AUG-CC-PVTZ
    Blend: AUG-CC-PVTZ
  Basis Set: (AUG-CC-PVTZ AUX)
    Blend: AUG-CC-PVTZ-JKFIT
	 Reference Energy          =    -375.9618909282511368 [Eh]
	 Singles Energy            =      -0.0000000000000000 [Eh]
	 Same-Spin Energy          =      -0.3574770386606810 [Eh]
	 Opposite-Spin Energy      =      -1.0141356301648288 [Eh]
	 Correlation Energy        =      -1.3716126688255097 [Eh]
	 Total Energy              =    -377.3335035970766285 [Eh]

	 ================> DF-SCS-MP2 Energies <==================
	-----------------------------------------------------------
	 SCS Same-Spin Scale       =       0.3333333333333333 [-]
	 SCS Opposite-Spin Scale   =       1.2000000000000000 [-]
	 SCS Same-Spin Energy      =      -0.1191590128868937 [Eh]
	 SCS Opposite-Spin Energy  =      -1.2169627561977945 [Eh]
	 SCS Correlation Energy    =      -1.3361217690846880 [Eh]
	 SCS Total Energy          =    -377.2980126973358210 [Eh]
	-----------------------------------------------------------

  Dipole Moment: [D]
     X:     5.3537      Y:     0.3941      Z:     0.0006     Total:     5.3682

*** Psi4 exiting successfully. Buy a developer a beer!
