                               Psi4 1.3.2 release

  ==> Input File <==

--------------------------------------------------------------------------
#psi4
#
memory 32 gb

molecule  {
-1 1
  O        1.3719500     1.0365520     0.0001530
  O        1.2974920    -1.2070900     0.0002320
  O       -1.5132940    -1.0592330    -0.0003040
  O       -1.2763200     1.2290260    -0.0002110
  C        0.6716220    -0.1528200    -0.0001790
  C       -0.7963276     0.2068518     0.0004183
  H        2.3009280     0.7259580     0.0001900
units angstrom
no_reorient  #important for SAPT in psi4, default
symmetry c1  #important for SAPT in psi4, default
}

set PROPERTIES_ORIGIN ["COM"]
properties('MP2/aug-cc-pvtz', properties = ['dipole'])
--------------------------------------------------------------------------

    Molecular point group: c1
  Charge       = -1
  Multiplicity = 1
  Basis Set: AUG-CC-PVTZ
    Blend: AUG-CC-PVTZ
  Basis Set: (AUG-CC-PVTZ AUX)
    Blend: AUG-CC-PVTZ-JKFIT

    Orbital Energies [Eh]
    ---------------------

    Doubly Occupied:

       1A    -20.468240     2A    -20.412258     3A    -20.365819
       4A    -20.281314     5A    -11.242263     6A    -11.173290
       7A     -1.314983     8A     -1.267859     9A     -1.203266
      10A     -1.006386    11A     -0.768295    12A     -0.583851
      13A     -0.556395    14A     -0.520778    15A     -0.483741
      16A     -0.463113    17A     -0.419484    18A     -0.400167
      19A     -0.337250    20A     -0.337239    21A     -0.223652
      22A     -0.198666    23A     -0.182463

  @DF-RHF Final Energy:  -375.90830771964556

   => Energetics <=

    Nuclear Repulsion Energy =            218.8614824914364192
    One-Electron Energy =                -961.1180354024412509
    Two-Electron Energy =                 366.3482451913592968
    Total Energy =                       -375.9083077196455633
  Basis Set: (AUG-CC-PVTZ AUX)
    Blend: AUG-CC-PVTZ-RI
    Molecular point group: c1

    Geometry (in Angstrom), charge = -1, multiplicity = 1:

       Center              X                  Y                   Z               Mass
    ------------   -----------------  -----------------  -----------------  -----------------
         O            1.384307639530     1.021177882434     0.000141945099    15.994914619570
         O            1.309849639530    -1.222464117566     0.000220945099    15.994914619570
         O           -1.500936360470    -1.074607117566    -0.000315054901    15.994914619570
         O           -1.263962360470     1.213651882434    -0.000222054901    15.994914619570
         C            0.683979639530    -0.168194117566    -0.000190054901    12.000000000000
         C           -0.783969960470     0.191477682434     0.000407245099    12.000000000000
         H            2.313285639530     0.710583882434     0.000178945099     1.007825032230

  Basis Set: AUG-CC-PVTZ
    Blend: AUG-CC-PVTZ
  Basis Set: (AUG-CC-PVTZ AUX)
    Blend: AUG-CC-PVTZ-JKFIT
	 Reference Energy          =    -375.9083077196455633 [Eh]
	 Singles Energy            =      -0.0000000000000000 [Eh]
	 Same-Spin Energy          =      -0.3610394872892352 [Eh]
	 Opposite-Spin Energy      =      -1.0229807848250205 [Eh]
	 Correlation Energy        =      -1.3840202721142556 [Eh]
	 Total Energy              =    -377.2923279917598052 [Eh]

	 ================> DF-SCS-MP2 Energies <==================
	-----------------------------------------------------------
	 SCS Same-Spin Scale       =       0.3333333333333333 [-]
	 SCS Opposite-Spin Scale   =       1.2000000000000000 [-]
	 SCS Same-Spin Energy      =      -0.1203464957630784 [Eh]
	 SCS Opposite-Spin Energy  =      -1.2275769417900246 [Eh]
	 SCS Correlation Energy    =      -1.3479234375531031 [Eh]
	 SCS Total Energy          =    -377.2562311571986697 [Eh]
	-----------------------------------------------------------

  Dipole Moment: [D]
     X:     5.6925      Y:     2.4530      Z:     0.0008     Total:     6.1985

*** Psi4 exiting successfully. Buy a developer a beer!
