                               Psi4 1.3.2 release

  ==> Input File <==

--------------------------------------------------------------------------
#psi4
#
memory 32 gb

molecule  {
-1 1
  O        1.3300149     1.0602686     0.0001280
  O        1.2974920    -1.2070900     0.0002320
  O       -1.5132940    -1.0592330    -0.0003040
  O       -1.2763200     1.2290260    -0.0002110
  C        0.6716220    -0.1528200    -0.0001790
  C       -0.8948800     0.0328190     0.0003190
  H        2.3009280     0.7259580     0.0001900
units angstrom
no_reorient  #important for SAPT in psi4, default
symmetry c1  #important for SAPT in psi4, default
}

set PROPERTIES_ORIGIN ["COM"]
properties('MP2/aug-cc-pvtz', properties = ['dipole'])
--------------------------------------------------------------------------

    Molecular point group: c1
  Charge       = -1
  Multiplicity = 1
  Basis Set: AUG-CC-PVTZ
    Blend: AUG-CC-PVTZ
  Basis Set: (AUG-CC-PVTZ AUX)
    Blend: AUG-CC-PVTZ-JKFIT

    Orbital Energies [Eh]
    ---------------------

    Doubly Occupied:

       1A    -20.467774     2A    -20.404811     3A    -20.325129
       4A    -20.322932     5A    -11.229623     6A    -11.175892
       7A     -1.297641     8A     -1.196140     9A     -1.190969
      10A     -1.099341    11A     -0.727194    12A     -0.571988
      13A     -0.544291    14A     -0.495453    15A     -0.470624
      16A     -0.440155    17A     -0.420940    18A     -0.374839
      19A     -0.335158    20A     -0.330019    21A     -0.241492
      22A     -0.228067    23A     -0.216528

  @DF-RHF Final Energy:  -375.96236064787468

   => Energetics <=

    Nuclear Repulsion Energy =            218.1825895573911396
    One-Electron Energy =                -960.0759020202193597
    Two-Electron Energy =                 365.9309518149535734
    Total Energy =                       -375.9623606478746751
  Basis Set: (AUG-CC-PVTZ AUX)
    Blend: AUG-CC-PVTZ-RI
    Molecular point group: c1

    Geometry (in Angstrom), charge = -1, multiplicity = 1:

       Center              X                  Y                   Z               Mass
    ------------   -----------------  -----------------  -----------------  -----------------
         O            1.363199930877     1.064099976741     0.000134829331    15.994914619570
         O            1.330677030877    -1.203258623259     0.000238829331    15.994914619570
         O           -1.480108969123    -1.055401623259    -0.000297170669    15.994914619570
         O           -1.243134969123     1.232857376741    -0.000204170669    15.994914619570
         C            0.704807030877    -0.148988623259    -0.000172170669    12.000000000000
         C           -0.861694969123     0.036650376741     0.000325829331    12.000000000000
         H            2.334113030877     0.729789376741     0.000196829331     1.007825032230

  Basis Set: AUG-CC-PVTZ
    Blend: AUG-CC-PVTZ
  Basis Set: (AUG-CC-PVTZ AUX)
    Blend: AUG-CC-PVTZ-JKFIT
	 Reference Energy          =    -375.9623606478746751 [Eh]
	 Singles Energy            =      -0.0000000000000000 [Eh]
	 Same-Spin Energy          =      -0.3597552922814337 [Eh]
	 Opposite-Spin Energy      =      -1.0195845455403392 [Eh]
	 Correlation Energy        =      -1.3793398378217727 [Eh]
	 Total Energy              =    -377.3417004856964354 [Eh]

	 ================> DF-SCS-MP2 Energies <==================
	-----------------------------------------------------------
	 SCS Same-Spin Scale       =       0.3333333333333333 [-]
	 SCS Opposite-Spin Scale   =       1.2000000000000000 [-]
	 SCS Same-Spin Energy      =      -0.1199184307604779 [Eh]
	 SCS Opposite-Spin Energy  =      -1.2235014546484069 [Eh]
	 SCS Correlation Energy    =      -1.3434198854088848 [Eh]
	 SCS Total Energy          =    -377.3057805332835528 [Eh]
	-----------------------------------------------------------

  Dipole Moment: [D]
     X:     5.0801      Y:     0.7692      Z:     0.0007     Total:     5.1380

*** Psi4 exiting successfully. Buy a developer a beer!
