                               Psi4 1.4a3.dev225

  ==> Input File <==

--------------------------------------------------------------------------
#psi4
#
memory 32 gb

molecule  {
-1 1
  O        1.3597160     1.0340070     0.0001290
  O        1.2734010    -1.2190390     0.0000720
  O       -1.5027660    -1.0525350    -0.0000800
  O       -1.2798520     1.2230830    -0.0001310
  C        0.6828900    -0.1460180     0.0000490
  C       -0.8187150     0.0284311    -0.0000652
  H        2.3089580     0.7867790     0.0002020
units angstrom
no_reorient  #important for SAPT in psi4, default
symmetry c1  #important for SAPT in psi4, default
}

set PROPERTIES_ORIGIN ["COM"]
properties('MP2/aug-cc-pvtz', properties = ['dipole'])
--------------------------------------------------------------------------

    Molecular point group: c1
  Charge       = -1
  Multiplicity = 1
  Basis Set: AUG-CC-PVTZ
    Blend: AUG-CC-PVTZ
  Basis Set: (AUG-CC-PVTZ AUX)
    Blend: AUG-CC-PVTZ-JKFIT

    Orbital Energies [Eh]
    ---------------------

    Doubly Occupied:

       1A    -20.472254     2A    -20.406988     3A    -20.320743
       4A    -20.318074     5A    -11.236125     6A    -11.172010
       7A     -1.314174     8A     -1.207006     9A     -1.175184
      10A     -1.076289    11A     -0.760656    12A     -0.597534
      13A     -0.555447    14A     -0.491379    15A     -0.482889
      16A     -0.440832    17A     -0.406870    18A     -0.364884
      19A     -0.333600    20A     -0.330148    21A     -0.238924
      22A     -0.228116    23A     -0.204394

  @DF-RHF Final Energy:  -375.96091940931615

   => Energetics <=

    Nuclear Repulsion Energy =            219.0651529463249858
    One-Electron Energy =                -961.7831061244779676
    Two-Electron Energy =                 366.7570337688368909
    Total Energy =                       -375.9609194093161477
  Basis Set: (AUG-CC-PVTZ AUX)
    Blend: AUG-CC-PVTZ-RI
    Molecular point group: c1

    Geometry (in Angstrom), charge = -1, multiplicity = 1:

       Center              X                  Y                   Z               Mass
    ------------   -----------------  -----------------  -----------------  -----------------
         O            1.378753846593     1.043556405588     0.000130694266    15.994914619570
         O            1.292438846593    -1.209489594412     0.000073694266    15.994914619570
         O           -1.483728153407    -1.042985594412    -0.000078305734    15.994914619570
         O           -1.260814153407     1.232632405588    -0.000129305734    15.994914619570
         C            0.701927846593    -0.136468594412     0.000050694266    12.000000000000
         C           -0.799677153407     0.037980505588    -0.000063505734    12.000000000000
         H            2.327995846593     0.796328405588     0.000203694266     1.007825032230

  Basis Set: AUG-CC-PVTZ
    Blend: AUG-CC-PVTZ
  Basis Set: (AUG-CC-PVTZ AUX)
    Blend: AUG-CC-PVTZ-JKFIT
	 Reference Energy          =    -375.9609194093161477 [Eh]
	 Singles Energy            =      -0.0000000000000000 [Eh]
	 Same-Spin Energy          =      -0.3598220530098221 [Eh]
	 Opposite-Spin Energy      =      -1.0199615779165665 [Eh]
	 Correlation Energy        =      -1.3797836309263887 [Eh]
	 Total Energy              =    -377.3407030402425448 [Eh]

	 ================> DF-SCS-MP2 Energies <==================
	-----------------------------------------------------------
	 SCS Same-Spin Scale       =       0.3333333333333333 [-]
	 SCS Opposite-Spin Scale   =       1.2000000000000000 [-]
	 SCS Same-Spin Energy      =      -0.1199406843366073 [Eh]
	 SCS Opposite-Spin Energy  =      -1.2239538934998797 [Eh]
	 SCS Correlation Energy    =      -1.3438945778364870 [Eh]
	 SCS Total Energy          =    -377.3048139871526132 [Eh]
	-----------------------------------------------------------

  Dipole Moment: [D]
     X:     5.6508      Y:     0.9063      Z:     0.0005     Total:     5.7230

*** Psi4 exiting successfully. Buy a developer a beer!
