                               Psi4 1.3.2 release

  ==> Input File <==

--------------------------------------------------------------------------
#psi4
#
memory 32 gb

molecule  {
-1 1
  O        1.3719500     1.0365520     0.0001530
  O        1.2974920    -1.2070900     0.0002320
  O       -1.5132940    -1.0592330    -0.0003040
  O       -1.2763200     1.2290260    -0.0002110
  C        0.7737173    -0.3247983    -0.0001120
  C       -0.8948800     0.0328190     0.0003190
  H        2.3009280     0.7259580     0.0001900
units angstrom
no_reorient  #important for SAPT in psi4, default
symmetry c1  #important for SAPT in psi4, default
}

set PROPERTIES_ORIGIN ["COM"]
properties('MP2/aug-cc-pvtz', properties = ['dipole'])
--------------------------------------------------------------------------

    Molecular point group: c1
  Charge       = -1
  Multiplicity = 1
  Basis Set: AUG-CC-PVTZ
    Blend: AUG-CC-PVTZ
  Basis Set: (AUG-CC-PVTZ AUX)
    Blend: AUG-CC-PVTZ-JKFIT

    Orbital Energies [Eh]
    ---------------------

    Doubly Occupied:

       1A    -20.432957     2A    -20.419572     3A    -20.322031
       4A    -20.319682     5A    -11.200752     6A    -11.174719
       7A     -1.413244     8A     -1.196227     9A     -1.181339
      10A     -1.094500    11A     -0.675435    12A     -0.597138
      13A     -0.561216    14A     -0.521748    15A     -0.503311
      16A     -0.440736    17A     -0.414716    18A     -0.371191
      19A     -0.357325    20A     -0.346272    21A     -0.237052
      22A     -0.214651    23A     -0.193757

  @DF-RHF Final Energy:  -375.89357592338195

   => Energetics <=

    Nuclear Repulsion Energy =            219.0260773548773727
    One-Electron Energy =                -961.4601652184893510
    Two-Electron Energy =                 366.5405119402299761
    Total Energy =                       -375.8935759233819454
  Basis Set: (AUG-CC-PVTZ AUX)
    Blend: AUG-CC-PVTZ-RI
    Molecular point group: c1

    Geometry (in Angstrom), charge = -1, multiplicity = 1:

       Center              X                  Y                   Z               Mass
    ------------   -----------------  -----------------  -----------------  -----------------
         O            1.383829877958     1.067837626437     0.000146300767    15.994914619570
         O            1.309371877958    -1.175804373563     0.000225300767    15.994914619570
         O           -1.501414122042    -1.027947373563    -0.000310699233    15.994914619570
         O           -1.264440122042     1.260311626437    -0.000217699233    15.994914619570
         C            0.785597177958    -0.293512673563    -0.000118699233    12.000000000000
         C           -0.883000122042     0.064104626437     0.000312300767    12.000000000000
         H            2.312807877958     0.757243626437     0.000183300767     1.007825032230

  Basis Set: AUG-CC-PVTZ
    Blend: AUG-CC-PVTZ
  Basis Set: (AUG-CC-PVTZ AUX)
    Blend: AUG-CC-PVTZ-JKFIT
	 Reference Energy          =    -375.8935759233819454 [Eh]
	 Singles Energy            =      -0.0000000000000000 [Eh]
	 Same-Spin Energy          =      -0.3566943477415706 [Eh]
	 Opposite-Spin Energy      =      -1.0125141617936064 [Eh]
	 Correlation Energy        =      -1.3692085095351771 [Eh]
	 Total Energy              =    -377.2627844329171012 [Eh]

	 ================> DF-SCS-MP2 Energies <==================
	-----------------------------------------------------------
	 SCS Same-Spin Scale       =       0.3333333333333333 [-]
	 SCS Opposite-Spin Scale   =       1.2000000000000000 [-]
	 SCS Same-Spin Energy      =      -0.1188981159138569 [Eh]
	 SCS Opposite-Spin Energy  =      -1.2150169941523277 [Eh]
	 SCS Correlation Energy    =      -1.3339151100661846 [Eh]
	 SCS Total Energy          =    -377.2274910334481319 [Eh]
	-----------------------------------------------------------

  Dipole Moment: [D]
     X:     5.1852      Y:    -0.8557      Z:     0.0007     Total:     5.2553

*** Psi4 exiting successfully. Buy a developer a beer!
