                               Psi4 1.3.2 release

  ==> Input File <==

--------------------------------------------------------------------------
#psi4
#
memory 32 gb

molecule  {
-1 1
  O        1.3926007     1.0241484     0.0001421
  O        1.2974920    -1.2070900     0.0002320
  O       -1.5132940    -1.0592330    -0.0003040
  O       -1.2763200     1.2290260    -0.0002110
  C        0.6716220    -0.1528200    -0.0001790
  C       -0.8948800     0.0328190     0.0003190
  H        2.3009280     0.7259580     0.0001900
units angstrom
no_reorient  #important for SAPT in psi4, default
symmetry c1  #important for SAPT in psi4, default
}

set PROPERTIES_ORIGIN ["COM"]
properties('MP2/aug-cc-pvtz', properties = ['dipole'])
--------------------------------------------------------------------------

    Molecular point group: c1
  Charge       = -1
  Multiplicity = 1
  Basis Set: AUG-CC-PVTZ
    Blend: AUG-CC-PVTZ
  Basis Set: (AUG-CC-PVTZ AUX)
    Blend: AUG-CC-PVTZ-JKFIT

    Orbital Energies [Eh]
    ---------------------

    Doubly Occupied:

       1A    -20.458528     2A    -20.401583     3A    -20.327412
       4A    -20.325193     5A    -11.229378     6A    -11.179369
       7A     -1.304995     8A     -1.199170     9A     -1.191458
      10A     -1.101563    11A     -0.736200    12A     -0.582755
      13A     -0.548870    14A     -0.494937    15A     -0.470616
      16A     -0.443796    17A     -0.422815    18A     -0.377464
      19A     -0.331873    20A     -0.327473    21A     -0.244050
      22A     -0.230949    23A     -0.218427

  @DF-RHF Final Energy:  -375.96963863856587

   => Energetics <=

    Nuclear Repulsion Energy =            218.1486682751245780
    One-Electron Energy =                -959.9388663694281831
    Two-Electron Energy =                 365.8205594557377367
    Total Energy =                       -375.9696386385658684
  Basis Set: (AUG-CC-PVTZ AUX)
    Blend: AUG-CC-PVTZ-RI
    Molecular point group: c1

    Geometry (in Angstrom), charge = -1, multiplicity = 1:

       Center              X                  Y                   Z               Mass
    ------------   -----------------  -----------------  -----------------  -----------------
         O            1.414536345144     1.034472145019     0.000146394949    15.994914619570
         O            1.319427645144    -1.196766254981     0.000236294949    15.994914619570
         O           -1.491358354856    -1.048909254981    -0.000299705051    15.994914619570
         O           -1.254384354856     1.239349745019    -0.000206705051    15.994914619570
         C            0.693557645144    -0.142496254981    -0.000174705051    12.000000000000
         C           -0.872944354856     0.043142745019     0.000323294949    12.000000000000
         H            2.322863645144     0.736281745019     0.000194294949     1.007825032230

  Basis Set: AUG-CC-PVTZ
    Blend: AUG-CC-PVTZ
  Basis Set: (AUG-CC-PVTZ AUX)
    Blend: AUG-CC-PVTZ-JKFIT
	 Reference Energy          =    -375.9696386385658684 [Eh]
	 Singles Energy            =      -0.0000000000000000 [Eh]
	 Same-Spin Energy          =      -0.3583166772840758 [Eh]
	 Opposite-Spin Energy      =      -1.0165174474215910 [Eh]
	 Correlation Energy        =      -1.3748341247056668 [Eh]
	 Total Energy              =    -377.3444727632715399 [Eh]

	 ================> DF-SCS-MP2 Energies <==================
	-----------------------------------------------------------
	 SCS Same-Spin Scale       =       0.3333333333333333 [-]
	 SCS Opposite-Spin Scale   =       1.2000000000000000 [-]
	 SCS Same-Spin Energy      =      -0.1194388924280253 [Eh]
	 SCS Opposite-Spin Energy  =      -1.2198209369059092 [Eh]
	 SCS Correlation Energy    =      -1.3392598293339344 [Eh]
	 SCS Total Energy          =    -377.3088984678997804 [Eh]
	-----------------------------------------------------------

  Dipole Moment: [D]
     X:     5.0088      Y:     0.7420      Z:     0.0007     Total:     5.0634

*** Psi4 exiting successfully. Buy a developer a beer!
