                               Psi4 1.3.2 release

  ==> Input File <==

--------------------------------------------------------------------------
#psi4
#
memory 32 gb

molecule  {
-1 1
  O        1.3719500     1.0365520     0.0001530
  O        1.2974920    -1.2070900     0.0002320
  O       -1.5132940    -1.0592330    -0.0003040
  O       -1.2763200     1.2290260    -0.0002110
  C        0.6716220    -0.1528200    -0.0001790
  C       -0.9934324    -0.1412138     0.0002197
  H        2.3009280     0.7259580     0.0001900
units angstrom
no_reorient  #important for SAPT in psi4, default
symmetry c1  #important for SAPT in psi4, default
}

set PROPERTIES_ORIGIN ["COM"]
properties('MP2/aug-cc-pvtz', properties = ['dipole'])
--------------------------------------------------------------------------

    Molecular point group: c1
  Charge       = -1
  Multiplicity = 1
  Basis Set: AUG-CC-PVTZ
    Blend: AUG-CC-PVTZ
  Basis Set: (AUG-CC-PVTZ AUX)
    Blend: AUG-CC-PVTZ-JKFIT

    Orbital Energies [Eh]
    ---------------------

    Doubly Occupied:

       1A    -20.450145     2A    -20.390214     3A    -20.373671
       4A    -20.289245     5A    -11.209354     6A    -11.172264
       7A     -1.337321     8A     -1.285634     9A     -1.183467
      10A     -1.039691    11A     -0.698352    12A     -0.578804
      13A     -0.539292    14A     -0.530418    15A     -0.472049
      16A     -0.449298    17A     -0.441068    18A     -0.434049
      19A     -0.327364    20A     -0.319809    21A     -0.236543
      22A     -0.205832    23A     -0.189824

  @DF-RHF Final Energy:  -375.89567254419291

   => Energetics <=

    Nuclear Repulsion Energy =            218.5701030547636208
    One-Electron Energy =                -960.6241375176359725
    Two-Electron Energy =                 366.1583619186794181
    Total Energy =                       -375.8956725441929052
  Basis Set: (AUG-CC-PVTZ AUX)
    Blend: AUG-CC-PVTZ-RI
    Molecular point group: c1

    Geometry (in Angstrom), charge = -1, multiplicity = 1:

       Center              X                  Y                   Z               Mass
    ------------   -----------------  -----------------  -----------------  -----------------
         O            1.410887305644     1.068114676635     0.000168726393    15.994914619570
         O            1.336429305644    -1.175527323365     0.000247726393    15.994914619570
         O           -1.474356694356    -1.027670323365    -0.000288273607    15.994914619570
         O           -1.237382694356     1.260588676635    -0.000195273607    15.994914619570
         C            0.710559305644    -0.121257323365    -0.000163273607    12.000000000000
         C           -0.954495094356    -0.109651123365     0.000235426393    12.000000000000
         H            2.339865305644     0.757520676635     0.000205726393     1.007825032230

  Basis Set: AUG-CC-PVTZ
    Blend: AUG-CC-PVTZ
  Basis Set: (AUG-CC-PVTZ AUX)
    Blend: AUG-CC-PVTZ-JKFIT
	 Reference Energy          =    -375.8956725441929052 [Eh]
	 Singles Energy            =      -0.0000000000000000 [Eh]
	 Same-Spin Energy          =      -0.3566679979341459 [Eh]
	 Opposite-Spin Energy      =      -1.0129962819472795 [Eh]
	 Correlation Energy        =      -1.3696642798814254 [Eh]
	 Total Energy              =    -377.2653368240743248 [Eh]

	 ================> DF-SCS-MP2 Energies <==================
	-----------------------------------------------------------
	 SCS Same-Spin Scale       =       0.3333333333333333 [-]
	 SCS Opposite-Spin Scale   =       1.2000000000000000 [-]
	 SCS Same-Spin Energy      =      -0.1188893326447153 [Eh]
	 SCS Opposite-Spin Energy  =      -1.2155955383367354 [Eh]
	 SCS Correlation Energy    =      -1.3344848709814507 [Eh]
	 SCS Total Energy          =    -377.2301574151743466 [Eh]
	-----------------------------------------------------------

  Dipole Moment: [D]
     X:     4.1349      Y:    -1.2442      Z:     0.0005     Total:     4.3180

*** Psi4 exiting successfully. Buy a developer a beer!
