                               Psi4 1.4a3.dev225

  ==> Input File <==

--------------------------------------------------------------------------
#psi4
#
memory 32 gb

molecule  {
-1 1
  O        1.3597160     1.0340070     0.0001290
  O        1.2734010    -1.2190390     0.0000720
  O       -1.5027660    -1.0525350    -0.0000800
  O       -1.2798520     1.2230830    -0.0001310
  C        0.6828900    -0.1460180     0.0000490
  C       -0.8683810     0.0342010    -0.0000690
  H        2.2896037     0.7918198     0.0002005
units angstrom
no_reorient  #important for SAPT in psi4, default
symmetry c1  #important for SAPT in psi4, default
}

set PROPERTIES_ORIGIN ["COM"]
properties('MP2/aug-cc-pvtz', properties = ['dipole'])
--------------------------------------------------------------------------

    Molecular point group: c1
  Charge       = -1
  Multiplicity = 1
  Basis Set: AUG-CC-PVTZ
    Blend: AUG-CC-PVTZ
  Basis Set: (AUG-CC-PVTZ AUX)
    Blend: AUG-CC-PVTZ-JKFIT

    Orbital Energies [Eh]
    ---------------------

    Doubly Occupied:

       1A    -20.466480     2A    -20.401782     3A    -20.321825
       4A    -20.318818     5A    -11.229462     6A    -11.171876
       7A     -1.311731     8A     -1.204101     9A     -1.187040
      10A     -1.092470    11A     -0.744970    12A     -0.589854
      13A     -0.552568    14A     -0.492765    15A     -0.477817
      16A     -0.440860    17A     -0.416511    18A     -0.372828
      19A     -0.332840    20A     -0.329055    21A     -0.236660
      22A     -0.229461    23A     -0.211836

  @DF-RHF Final Energy:  -375.96993577251658

   => Energetics <=

    Nuclear Repulsion Energy =            219.0755774400353744
    One-Electron Energy =                -961.8237995152650228
    Two-Electron Energy =                 366.7782863027131270
    Total Energy =                       -375.9699357725165783
  Basis Set: (AUG-CC-PVTZ AUX)
    Blend: AUG-CC-PVTZ-RI
    Molecular point group: c1

    Geometry (in Angstrom), charge = -1, multiplicity = 1:

       Center              X                  Y                   Z               Mass
    ------------   -----------------  -----------------  -----------------  -----------------
         O            1.385670524352     1.042721242692     0.000131223686    15.994914619570
         O            1.299355524352    -1.210324757308     0.000074223686    15.994914619570
         O           -1.476811475648    -1.043820757308    -0.000077776314    15.994914619570
         O           -1.253897475648     1.231797242692    -0.000128776314    15.994914619570
         C            0.708844524352    -0.137303757308     0.000051223686    12.000000000000
         C           -0.842426475648     0.042915242692    -0.000066776314    12.000000000000
         H            2.315558224352     0.800534042692     0.000202723686     1.007825032230

  Basis Set: AUG-CC-PVTZ
    Blend: AUG-CC-PVTZ
  Basis Set: (AUG-CC-PVTZ AUX)
    Blend: AUG-CC-PVTZ-JKFIT
	 Reference Energy          =    -375.9699357725165783 [Eh]
	 Singles Energy            =      -0.0000000000000000 [Eh]
	 Same-Spin Energy          =      -0.3583594882310579 [Eh]
	 Opposite-Spin Energy      =      -1.0163734047188013 [Eh]
	 Correlation Energy        =      -1.3747328929498592 [Eh]
	 Total Energy              =    -377.3446686654664290 [Eh]

	 ================> DF-SCS-MP2 Energies <==================
	-----------------------------------------------------------
	 SCS Same-Spin Scale       =       0.3333333333333333 [-]
	 SCS Opposite-Spin Scale   =       1.2000000000000000 [-]
	 SCS Same-Spin Energy      =      -0.1194531627436860 [Eh]
	 SCS Opposite-Spin Energy  =      -1.2196480856625616 [Eh]
	 SCS Correlation Energy    =      -1.3391012484062474 [Eh]
	 SCS Total Energy          =    -377.3090370209228013 [Eh]
	-----------------------------------------------------------

  Dipole Moment: [D]
     X:     5.3612      Y:     0.9382      Z:     0.0004     Total:     5.4427

*** Psi4 exiting successfully. Buy a developer a beer!
