                               Psi4 1.3.2 release

  ==> Input File <==

--------------------------------------------------------------------------
#psi4
#
memory 32 gb

molecule  {
-1 1
  O        1.3719500     1.0365520     0.0001530
  O        1.2974920    -1.2070900     0.0002320
  O       -1.5132940    -1.0592330    -0.0003040
  O       -1.2763200     1.2290260    -0.0002110
  C        0.5695267     0.0191583    -0.0002460
  C       -0.8948800     0.0328190     0.0003190
  H        2.3009280     0.7259580     0.0001900
units angstrom
no_reorient  #important for SAPT in psi4, default
symmetry c1  #important for SAPT in psi4, default
}

set PROPERTIES_ORIGIN ["COM"]
properties('MP2/aug-cc-pvtz', properties = ['dipole'])
--------------------------------------------------------------------------

    Molecular point group: c1
  Charge       = -1
  Multiplicity = 1
  Basis Set: AUG-CC-PVTZ
    Blend: AUG-CC-PVTZ
  Basis Set: (AUG-CC-PVTZ AUX)
    Blend: AUG-CC-PVTZ-JKFIT

    Orbital Energies [Eh]
    ---------------------

    Doubly Occupied:

       1A    -20.492960     2A    -20.370828     3A    -20.335583
       4A    -20.331494     5A    -11.250398     6A    -11.181093
       7A     -1.333813     8A     -1.208737     9A     -1.114159
      10A     -1.085991    11A     -0.786875    12A     -0.638676
      13A     -0.551720    14A     -0.490187    15A     -0.488718
      16A     -0.440086    17A     -0.388695    18A     -0.385874
      19A     -0.291442    20A     -0.267013    21A     -0.252667
      22A     -0.243139    23A     -0.222993

  @DF-RHF Final Energy:  -375.90354642838520

   => Energetics <=

    Nuclear Repulsion Energy =            218.3230969216318158
    One-Electron Energy =                -960.1470037952104803
    Two-Electron Energy =                 365.9203604451934098
    Total Energy =                       -375.9035464283851979
  Basis Set: (AUG-CC-PVTZ AUX)
    Blend: AUG-CC-PVTZ-RI
    Molecular point group: c1

    Geometry (in Angstrom), charge = -1, multiplicity = 1:

       Center              X                  Y                   Z               Mass
    ------------   -----------------  -----------------  -----------------  -----------------
         O            1.411365067215     1.021454932633     0.000164370724    15.994914619570
         O            1.336907067215    -1.222187067367     0.000243370724    15.994914619570
         O           -1.473878932785    -1.074330067367    -0.000292629276    15.994914619570
         O           -1.236904932785     1.213928932633    -0.000199629276    15.994914619570
         C            0.608941767215     0.004061232633    -0.000234629276    12.000000000000
         C           -0.855464932785     0.017721932633     0.000330370724    12.000000000000
         H            2.340343067215     0.710860932633     0.000201370724     1.007825032230

  Basis Set: AUG-CC-PVTZ
    Blend: AUG-CC-PVTZ
  Basis Set: (AUG-CC-PVTZ AUX)
    Blend: AUG-CC-PVTZ-JKFIT
	 Reference Energy          =    -375.9035464283851979 [Eh]
	 Singles Energy            =      -0.0000000000000000 [Eh]
	 Same-Spin Energy          =      -0.3635672109367616 [Eh]
	 Opposite-Spin Energy      =      -1.0272823163206393 [Eh]
	 Correlation Energy        =      -1.3908495272574009 [Eh]
	 Total Energy              =    -377.2943959556425852 [Eh]

	 ================> DF-SCS-MP2 Energies <==================
	-----------------------------------------------------------
	 SCS Same-Spin Scale       =       0.3333333333333333 [-]
	 SCS Opposite-Spin Scale   =       1.2000000000000000 [-]
	 SCS Same-Spin Energy      =      -0.1211890703122539 [Eh]
	 SCS Opposite-Spin Energy  =      -1.2327387795847671 [Eh]
	 SCS Correlation Energy    =      -1.3539278498970209 [Eh]
	 SCS Total Energy          =    -377.2574742782822455 [Eh]
	-----------------------------------------------------------

  Dipole Moment: [D]
     X:     4.7295      Y:     1.9828      Z:     0.0007     Total:     5.1284

*** Psi4 exiting successfully. Buy a developer a beer!
