                               Psi4 1.4a3.dev225

  ==> Input File <==

--------------------------------------------------------------------------
#psi4
#
memory 32 gb

molecule  {
-1 1
  O        1.3597160     1.0340070     0.0001290
  O        1.2734010    -1.2190390     0.0000720
  O       -1.5027660    -1.0525350    -0.0000800
  O       -1.2798520     1.2230830    -0.0001310
  C        0.6828900    -0.1460180     0.0000490
  C       -0.9180470     0.0399709    -0.0000728
  H        2.3089580     0.7867790     0.0002020
units angstrom
no_reorient  #important for SAPT in psi4, default
symmetry c1  #important for SAPT in psi4, default
}

set PROPERTIES_ORIGIN ["COM"]
properties('MP2/aug-cc-pvtz', properties = ['dipole'])
--------------------------------------------------------------------------

    Molecular point group: c1
  Charge       = -1
  Multiplicity = 1
  Basis Set: AUG-CC-PVTZ
    Blend: AUG-CC-PVTZ
  Basis Set: (AUG-CC-PVTZ AUX)
    Blend: AUG-CC-PVTZ-JKFIT

    Orbital Energies [Eh]
    ---------------------

    Doubly Occupied:

       1A    -20.463081     2A    -20.395189     3A    -20.324159
       4A    -20.320899     5A    -11.220198     6A    -11.172743
       7A     -1.302598     8A     -1.202784     9A     -1.193032
      10A     -1.109317    11A     -0.725305    12A     -0.578025
      13A     -0.545152    14A     -0.494264    15A     -0.471178
      16A     -0.438300    17A     -0.426050    18A     -0.382147
      19A     -0.331381    20A     -0.325091    21A     -0.243590
      22A     -0.220312    23A     -0.219974

  @DF-RHF Final Energy:  -375.97165811422104

   => Energetics <=

    Nuclear Repulsion Energy =            218.8491595611316995
    One-Electron Energy =                -961.4320979857621978
    Two-Electron Energy =                 366.6112803104094269
    Total Energy =                       -375.9716581142210430
  Basis Set: (AUG-CC-PVTZ AUX)
    Blend: AUG-CC-PVTZ-RI
    Molecular point group: c1

    Geometry (in Angstrom), charge = -1, multiplicity = 1:

       Center              X                  Y                   Z               Mass
    ------------   -----------------  -----------------  -----------------  -----------------
         O            1.392148809041     1.042000258650     0.000131719129    15.994914619570
         O            1.305833809041    -1.211045741350     0.000074719129    15.994914619570
         O           -1.470333190959    -1.044541741350    -0.000077280871    15.994914619570
         O           -1.247419190959     1.231076258650    -0.000128280871    15.994914619570
         C            0.715322809041    -0.138024741350     0.000051719129    12.000000000000
         C           -0.885614190959     0.047964158650    -0.000070080871    12.000000000000
         H            2.341390809041     0.794772258650     0.000204719129     1.007825032230

  Basis Set: AUG-CC-PVTZ
    Blend: AUG-CC-PVTZ
  Basis Set: (AUG-CC-PVTZ AUX)
    Blend: AUG-CC-PVTZ-JKFIT
	 Reference Energy          =    -375.9716581142210430 [Eh]
	 Singles Energy            =      -0.0000000000000000 [Eh]
	 Same-Spin Energy          =      -0.3577801337324550 [Eh]
	 Opposite-Spin Energy      =      -1.0147331498690519 [Eh]
	 Correlation Energy        =      -1.3725132836015070 [Eh]
	 Total Energy              =    -377.3441713978225494 [Eh]

	 ================> DF-SCS-MP2 Energies <==================
	-----------------------------------------------------------
	 SCS Same-Spin Scale       =       0.3333333333333333 [-]
	 SCS Opposite-Spin Scale   =       1.2000000000000000 [-]
	 SCS Same-Spin Energy      =      -0.1192600445774850 [Eh]
	 SCS Opposite-Spin Energy  =      -1.2176797798428622 [Eh]
	 SCS Correlation Energy    =      -1.3369398244203472 [Eh]
	 SCS Total Energy          =    -377.3085979386414124 [Eh]
	-----------------------------------------------------------

  Dipole Moment: [D]
     X:     5.0149      Y:     0.9720      Z:     0.0004     Total:     5.1082

*** Psi4 exiting successfully. Buy a developer a beer!
