                               Psi4 1.3.2 release

  ==> Input File <==

--------------------------------------------------------------------------
#psi4
#
memory 32 gb

molecule  {
-1 1
  O        1.3719500     1.0365520     0.0001530
  O        1.2974920    -1.2070900     0.0002320
  O       -1.5879652    -1.0134344    -0.0003931
  O       -1.2763200     1.2290260    -0.0002110
  C        0.6716220    -0.1528200    -0.0001790
  C       -0.8948800     0.0328190     0.0003190
  H        2.3009280     0.7259580     0.0001900
units angstrom
no_reorient  #important for SAPT in psi4, default
symmetry c1  #important for SAPT in psi4, default
}

set PROPERTIES_ORIGIN ["COM"]
properties('MP2/aug-cc-pvtz', properties = ['dipole'])
--------------------------------------------------------------------------

    Molecular point group: c1
  Charge       = -1
  Multiplicity = 1
  Basis Set: AUG-CC-PVTZ
    Blend: AUG-CC-PVTZ
  Basis Set: (AUG-CC-PVTZ AUX)
    Blend: AUG-CC-PVTZ-JKFIT

    Orbital Energies [Eh]
    ---------------------

    Doubly Occupied:

       1A    -20.465156     2A    -20.406867     3A    -20.322156
       4A    -20.321831     5A    -11.235269     6A    -11.176396
       7A     -1.305690     8A     -1.200410     9A     -1.192417
      10A     -1.094036    11A     -0.736722    12A     -0.581224
      13A     -0.551389    14A     -0.494942    15A     -0.473517
      16A     -0.444719    17A     -0.418370    18A     -0.375252
      19A     -0.336224    20A     -0.331561    21A     -0.238225
      22A     -0.232297    23A     -0.213445

  @DF-RHF Final Energy:  -375.96763074993544

   => Energetics <=

    Nuclear Repulsion Energy =            217.7294277873738508
    One-Electron Energy =                -959.0978873340894779
    Two-Electron Energy =                 365.4008287967801607
    Total Energy =                       -375.9676307499354380
  Basis Set: (AUG-CC-PVTZ AUX)
    Blend: AUG-CC-PVTZ-RI
    Molecular point group: c1

    Geometry (in Angstrom), charge = -1, multiplicity = 1:

       Center              X                  Y                   Z               Mass
    ------------   -----------------  -----------------  -----------------  -----------------
         O            1.411019129447     1.036414282542     0.000171350885    15.994914619570
         O            1.336561129447    -1.207227717458     0.000250350885    15.994914619570
         O           -1.548896070553    -1.013572117458    -0.000374749115    15.994914619570
         O           -1.237250870553     1.228888282542    -0.000192649115    15.994914619570
         C            0.710691129447    -0.152957717458    -0.000160649115    12.000000000000
         C           -0.855810870553     0.032681282542     0.000337350885    12.000000000000
         H            2.339997129447     0.725820282542     0.000208350885     1.007825032230

  Basis Set: AUG-CC-PVTZ
    Blend: AUG-CC-PVTZ
  Basis Set: (AUG-CC-PVTZ AUX)
    Blend: AUG-CC-PVTZ-JKFIT
	 Reference Energy          =    -375.9676307499354380 [Eh]
	 Singles Energy            =      -0.0000000000000000 [Eh]
	 Same-Spin Energy          =      -0.3586363234897644 [Eh]
	 Opposite-Spin Energy      =      -1.0174306725214626 [Eh]
	 Correlation Energy        =      -1.3760669960112271 [Eh]
	 Total Energy              =    -377.3436977459466561 [Eh]

	 ================> DF-SCS-MP2 Energies <==================
	-----------------------------------------------------------
	 SCS Same-Spin Scale       =       0.3333333333333333 [-]
	 SCS Opposite-Spin Scale   =       1.2000000000000000 [-]
	 SCS Same-Spin Energy      =      -0.1195454411632548 [Eh]
	 SCS Opposite-Spin Energy  =      -1.2209168070257550 [Eh]
	 SCS Correlation Energy    =      -1.3404622481890098 [Eh]
	 SCS Total Energy          =    -377.3080929981244367 [Eh]
	-----------------------------------------------------------

  Dipole Moment: [D]
     X:     5.2501      Y:     0.6979      Z:     0.0008     Total:     5.2963

*** Psi4 exiting successfully. Buy a developer a beer!
