                               Psi4 1.3.2 release

  ==> Input File <==

--------------------------------------------------------------------------
#psi4
#
memory 32 gb

molecule  {
-1 1
  O        1.2872777     1.0825072     0.0001026
  O        1.2974920    -1.2070900     0.0002320
  O       -1.5132940    -1.0592330    -0.0003040
  O       -1.2763200     1.2290260    -0.0002110
  C        0.6716220    -0.1528200    -0.0001790
  C       -0.8948800     0.0328190     0.0003190
  H        2.3009280     0.7259580     0.0001900
units angstrom
no_reorient  #important for SAPT in psi4, default
symmetry c1  #important for SAPT in psi4, default
}

set PROPERTIES_ORIGIN ["COM"]
properties('MP2/aug-cc-pvtz', properties = ['dipole'])
--------------------------------------------------------------------------

    Molecular point group: c1
  Charge       = -1
  Multiplicity = 1
  Basis Set: AUG-CC-PVTZ
    Blend: AUG-CC-PVTZ
  Basis Set: (AUG-CC-PVTZ AUX)
    Blend: AUG-CC-PVTZ-JKFIT

    Orbital Energies [Eh]
    ---------------------

    Doubly Occupied:

       1A    -20.473231     2A    -20.407007     3A    -20.323658
       4A    -20.321523     5A    -11.230047     6A    -11.173689
       7A     -1.293827     8A     -1.195315     9A     -1.189940
      10A     -1.097943    11A     -0.722324    12A     -0.568963
      13A     -0.538058    14A     -0.495859    15A     -0.470762
      16A     -0.436439    17A     -0.419517    18A     -0.373132
      19A     -0.337215    20A     -0.331754    21A     -0.239814
      22A     -0.226139    23A     -0.215346

  @DF-RHF Final Energy:  -375.95260088738922

   => Energetics <=

    Nuclear Repulsion Energy =            218.2592156981481821
    One-Electron Energy =                -960.2606267543909553
    Two-Electron Energy =                 366.0488101688535494
    Total Energy =                       -375.9526008873892238
  Basis Set: (AUG-CC-PVTZ AUX)
    Blend: AUG-CC-PVTZ-RI
    Molecular point group: c1

    Geometry (in Angstrom), charge = -1, multiplicity = 1:

       Center              X                  Y                   Z               Mass
    ------------   -----------------  -----------------  -----------------  -----------------
         O            1.328144461364     1.082341334722     0.000113994814    15.994914619570
         O            1.338358761364    -1.207255865278     0.000243394814    15.994914619570
         O           -1.472427238636    -1.059398865278    -0.000292605186    15.994914619570
         O           -1.235453238636     1.228860134722    -0.000199605186    15.994914619570
         C            0.712488761364    -0.152985865278    -0.000167605186    12.000000000000
         C           -0.854013238636     0.032653134722     0.000330394814    12.000000000000
         H            2.341794761364     0.725792134722     0.000201394814     1.007825032230

  Basis Set: AUG-CC-PVTZ
    Blend: AUG-CC-PVTZ
  Basis Set: (AUG-CC-PVTZ AUX)
    Blend: AUG-CC-PVTZ-JKFIT
	 Reference Energy          =    -375.9526008873892238 [Eh]
	 Singles Energy            =      -0.0000000000000000 [Eh]
	 Same-Spin Energy          =      -0.3608052175675342 [Eh]
	 Opposite-Spin Energy      =      -1.0219052428009563 [Eh]
	 Correlation Energy        =      -1.3827104603684905 [Eh]
	 Total Energy              =    -377.3353113477577381 [Eh]

	 ================> DF-SCS-MP2 Energies <==================
	-----------------------------------------------------------
	 SCS Same-Spin Scale       =       0.3333333333333333 [-]
	 SCS Opposite-Spin Scale   =       1.2000000000000000 [-]
	 SCS Same-Spin Energy      =      -0.1202684058558447 [Eh]
	 SCS Opposite-Spin Energy  =      -1.2262862913611474 [Eh]
	 SCS Correlation Energy    =      -1.3465546972169922 [Eh]
	 SCS Total Energy          =    -377.2991555846062397 [Eh]
	-----------------------------------------------------------

  Dipole Moment: [D]
     X:     5.1130      Y:     0.7840      Z:     0.0007     Total:     5.1728

*** Psi4 exiting successfully. Buy a developer a beer!
