                               Psi4 1.3.2 release

  ==> Input File <==

--------------------------------------------------------------------------
#psi4
#
memory 32 gb

molecule  {
-1 1
  O        1.3719500     1.0365520     0.0001530
  O        1.2974920    -1.2070900     0.0002320
  O       -1.5132940    -1.0592330    -0.0003040
  O       -1.2763200     1.2290260    -0.0002110
  C        0.6716220    -0.1528200    -0.0001790
  C       -0.8948800     0.0328190     0.0003190
  H        2.3957677     0.6942494     0.0001938
units angstrom
no_reorient  #important for SAPT in psi4, default
symmetry c1  #important for SAPT in psi4, default
}

set PROPERTIES_ORIGIN ["COM"]
properties('MP2/aug-cc-pvtz', properties = ['dipole'])
--------------------------------------------------------------------------

    Molecular point group: c1
  Charge       = -1
  Multiplicity = 1
  Basis Set: AUG-CC-PVTZ
    Blend: AUG-CC-PVTZ
  Basis Set: (AUG-CC-PVTZ AUX)
    Blend: AUG-CC-PVTZ-JKFIT

    Orbital Energies [Eh]
    ---------------------

    Doubly Occupied:

       1A    -20.468563     2A    -20.401180     3A    -20.326489
       4A    -20.324463     5A    -11.228104     6A    -11.178394
       7A     -1.290947     8A     -1.193012     9A     -1.186429
      10A     -1.100547    11A     -0.722834    12A     -0.571942
      13A     -0.534711    14A     -0.493949    15A     -0.468016
      16A     -0.435771    17A     -0.422020    18A     -0.375853
      19A     -0.331136    20A     -0.326317    21A     -0.242827
      22A     -0.229545    23A     -0.217701

  @DF-RHF Final Energy:  -375.95488653593043

   => Energetics <=

    Nuclear Repulsion Energy =            217.5973882140274043
    One-Electron Energy =                -958.9630506922137556
    Two-Electron Energy =                 365.4107759422558956
    Total Energy =                       -375.9548865359304273
  Basis Set: (AUG-CC-PVTZ AUX)
    Blend: AUG-CC-PVTZ-RI
    Molecular point group: c1

    Geometry (in Angstrom), charge = -1, multiplicity = 1:

       Center              X                  Y                   Z               Mass
    ------------   -----------------  -----------------  -----------------  -----------------
         O            1.396523368455     1.045005394318     0.000155292709    15.994914619570
         O            1.322065368455    -1.198636605682     0.000234292709    15.994914619570
         O           -1.488720631545    -1.050779605682    -0.000301707291    15.994914619570
         O           -1.251746631545     1.237479394318    -0.000208707291    15.994914619570
         C            0.696195368455    -0.144366605682    -0.000176707291    12.000000000000
         C           -0.870306631545     0.041272394318     0.000321292709    12.000000000000
         H            2.420341068455     0.702702794318     0.000196092709     1.007825032230

  Basis Set: AUG-CC-PVTZ
    Blend: AUG-CC-PVTZ
  Basis Set: (AUG-CC-PVTZ AUX)
    Blend: AUG-CC-PVTZ-JKFIT
	 Reference Energy          =    -375.9548865359304273 [Eh]
	 Singles Energy            =      -0.0000000000000000 [Eh]
	 Same-Spin Energy          =      -0.3601156162340370 [Eh]
	 Opposite-Spin Energy      =      -1.0208142083512755 [Eh]
	 Correlation Energy        =      -1.3809298245853125 [Eh]
	 Total Energy              =    -377.3358163605157642 [Eh]

	 ================> DF-SCS-MP2 Energies <==================
	-----------------------------------------------------------
	 SCS Same-Spin Scale       =       0.3333333333333333 [-]
	 SCS Opposite-Spin Scale   =       1.2000000000000000 [-]
	 SCS Same-Spin Energy      =      -0.1200385387446790 [Eh]
	 SCS Opposite-Spin Energy  =      -1.2249770500215305 [Eh]
	 SCS Correlation Energy    =      -1.3450155887662094 [Eh]
	 SCS Total Energy          =    -377.2999021246966436 [Eh]
	-----------------------------------------------------------

  Dipole Moment: [D]
     X:     5.0748      Y:     0.7299      Z:     0.0007     Total:     5.1270

*** Psi4 exiting successfully. Buy a developer a beer!
