                               Psi4 1.4a3.dev225

  ==> Input File <==

--------------------------------------------------------------------------
#psi4
#
memory 32 gb

molecule  {
-1 1
  O        1.3597160     1.0340070     0.0001290
  O        1.2734010    -1.2190390     0.0000720
  O       -1.5027660    -1.0525350    -0.0000800
  O       -1.2798520     1.2230830    -0.0001310
  C        0.7069969    -0.1898228     0.0000499
  C       -0.8683810     0.0342010    -0.0000690
  H        2.3089580     0.7867790     0.0002020
units angstrom
no_reorient  #important for SAPT in psi4, default
symmetry c1  #important for SAPT in psi4, default
}

set PROPERTIES_ORIGIN ["COM"]
properties('MP2/aug-cc-pvtz', properties = ['dipole'])
--------------------------------------------------------------------------

    Molecular point group: c1
  Charge       = -1
  Multiplicity = 1
  Basis Set: AUG-CC-PVTZ
    Blend: AUG-CC-PVTZ
  Basis Set: (AUG-CC-PVTZ AUX)
    Blend: AUG-CC-PVTZ-JKFIT

    Orbital Energies [Eh]
    ---------------------

    Doubly Occupied:

       1A    -20.458749     2A    -20.409142     3A    -20.320139
       4A    -20.317254     5A    -11.223142     6A    -11.170846
       7A     -1.314104     8A     -1.218228     9A     -1.185749
      10A     -1.090607    11A     -0.727219    12A     -0.578419
      13A     -0.554045    14A     -0.497323    15A     -0.477824
      16A     -0.442579    17A     -0.414660    18A     -0.369460
      19A     -0.343086    20A     -0.341864    21A     -0.234481
      22A     -0.222827    23A     -0.210749

  @DF-RHF Final Energy:  -375.96891676972922

   => Energetics <=

    Nuclear Repulsion Energy =            219.0270826627863983
    One-Electron Energy =                -961.7469992625204895
    Two-Electron Energy =                 366.7509998300049006
    Total Energy =                       -375.9689167697292191
  Basis Set: (AUG-CC-PVTZ AUX)
    Blend: AUG-CC-PVTZ-RI
    Molecular point group: c1

    Geometry (in Angstrom), charge = -1, multiplicity = 1:

       Center              X                  Y                   Z               Mass
    ------------   -----------------  -----------------  -----------------  -----------------
         O            1.382200502099     1.048685428030     0.000131085332    15.994914619570
         O            1.295885502099    -1.204360571970     0.000074085332    15.994914619570
         O           -1.480281497901    -1.037856571970    -0.000077914668    15.994914619570
         O           -1.257367497901     1.237761428030    -0.000128914668    15.994914619570
         C            0.729481402099    -0.175144371970     0.000051985332    12.000000000000
         C           -0.845896497901     0.048879428030    -0.000066914668    12.000000000000
         H            2.331442502099     0.801457428030     0.000204085332     1.007825032230

  Basis Set: AUG-CC-PVTZ
    Blend: AUG-CC-PVTZ
  Basis Set: (AUG-CC-PVTZ AUX)
    Blend: AUG-CC-PVTZ-JKFIT
	 Reference Energy          =    -375.9689167697292191 [Eh]
	 Singles Energy            =      -0.0000000000000000 [Eh]
	 Same-Spin Energy          =      -0.3578238925724628 [Eh]
	 Opposite-Spin Energy      =      -1.0153001128650854 [Eh]
	 Correlation Energy        =      -1.3731240054375482 [Eh]
	 Total Energy              =    -377.3420407751667653 [Eh]

	 ================> DF-SCS-MP2 Energies <==================
	-----------------------------------------------------------
	 SCS Same-Spin Scale       =       0.3333333333333333 [-]
	 SCS Opposite-Spin Scale   =       1.2000000000000000 [-]
	 SCS Same-Spin Energy      =      -0.1192746308574876 [Eh]
	 SCS Opposite-Spin Energy  =      -1.2183601354381024 [Eh]
	 SCS Correlation Energy    =      -1.3376347662955901 [Eh]
	 SCS Total Energy          =    -377.3065515360248128 [Eh]
	-----------------------------------------------------------

  Dipole Moment: [D]
     X:     5.4296      Y:     0.5652      Z:     0.0004     Total:     5.4589

*** Psi4 exiting successfully. Buy a developer a beer!
