                               Psi4 1.3.2 release

  ==> Input File <==

--------------------------------------------------------------------------
#psi4
#
memory 32 gb

molecule  {
-1 1
  O        1.3719500     1.0365520     0.0001530
  O        1.2974920    -1.2070900     0.0002320
  O       -1.5132940    -1.0592330    -0.0003040
  O       -1.2763200     1.2290260    -0.0002110
  C        0.6305401    -0.1276544    -0.0001782
  C       -0.8948800     0.0328190     0.0003190
  H        2.3009280     0.7259580     0.0001900
units angstrom
no_reorient  #important for SAPT in psi4, default
symmetry c1  #important for SAPT in psi4, default
}

set PROPERTIES_ORIGIN ["COM"]
properties('MP2/aug-cc-pvtz', properties = ['dipole'])
--------------------------------------------------------------------------

    Molecular point group: c1
  Charge       = -1
  Multiplicity = 1
  Basis Set: AUG-CC-PVTZ
    Blend: AUG-CC-PVTZ
  Basis Set: (AUG-CC-PVTZ AUX)
    Blend: AUG-CC-PVTZ-JKFIT

    Orbital Energies [Eh]
    ---------------------

    Doubly Occupied:

       1A    -20.464325     2A    -20.398884     3A    -20.329330
       4A    -20.327000     5A    -11.236864     6A    -11.179283
       7A     -1.295745     8A     -1.198714     9A     -1.173725
      10A     -1.103694    11A     -0.748458    12A     -0.586081
      13A     -0.543289    14A     -0.491665    15A     -0.467403
      16A     -0.441032    17A     -0.422670    18A     -0.379498
      19A     -0.324204    20A     -0.315780    21A     -0.246412
      22A     -0.237962    23A     -0.219555

  @DF-RHF Final Energy:  -375.96015209039007

   => Energetics <=

    Nuclear Repulsion Energy =            218.1178808087647951
    One-Electron Energy =                -959.8929214750714891
    Two-Electron Energy =                 365.8148885759166546
    Total Energy =                       -375.9601520903900678
  Basis Set: (AUG-CC-PVTZ AUX)
    Blend: AUG-CC-PVTZ-RI
    Molecular point group: c1

    Geometry (in Angstrom), charge = -1, multiplicity = 1:

       Center              X                  Y                   Z               Mass
    ------------   -----------------  -----------------  -----------------  -----------------
         O            1.403137384275     1.041252687671     0.000155227865    15.994914619570
         O            1.328679384275    -1.202389312329     0.000234227865    15.994914619570
         O           -1.482106615725    -1.054532312329    -0.000301772135    15.994914619570
         O           -1.245132615725     1.233726687671    -0.000208772135    15.994914619570
         C            0.661727484275    -0.122953712329    -0.000175972135    12.000000000000
         C           -0.863692615725     0.037519687671     0.000321227865    12.000000000000
         H            2.332115384275     0.730658687671     0.000192227865     1.007825032230

  Basis Set: AUG-CC-PVTZ
    Blend: AUG-CC-PVTZ
  Basis Set: (AUG-CC-PVTZ AUX)
    Blend: AUG-CC-PVTZ-JKFIT
	 Reference Energy          =    -375.9601520903900678 [Eh]
	 Singles Energy            =      -0.0000000000000000 [Eh]
	 Same-Spin Energy          =      -0.3598440313507023 [Eh]
	 Opposite-Spin Energy      =      -1.0199879049240579 [Eh]
	 Correlation Energy        =      -1.3798319362747602 [Eh]
	 Total Energy              =    -377.3399840266648084 [Eh]

	 ================> DF-SCS-MP2 Energies <==================
	-----------------------------------------------------------
	 SCS Same-Spin Scale       =       0.3333333333333333 [-]
	 SCS Opposite-Spin Scale   =       1.2000000000000000 [-]
	 SCS Same-Spin Energy      =      -0.1199480104502341 [Eh]
	 SCS Opposite-Spin Energy  =      -1.2239854859088695 [Eh]
	 SCS Correlation Energy    =      -1.3439334963591036 [Eh]
	 SCS Total Energy          =    -377.3040855867491814 [Eh]
	-----------------------------------------------------------

  Dipole Moment: [D]
     X:     4.8838      Y:     0.9214      Z:     0.0007     Total:     4.9700

*** Psi4 exiting successfully. Buy a developer a beer!
