                               Psi4 1.3.2 release

  ==> Input File <==

--------------------------------------------------------------------------
#psi4
#
memory 32 gb

molecule  {
-1 1
  O        1.3719500     1.0365520     0.0001530
  O        1.2224253    -1.2481803     0.0002870
  O       -1.5132940    -1.0592330    -0.0003040
  O       -1.2763200     1.2290260    -0.0002110
  C        0.6716220    -0.1528200    -0.0001790
  C       -0.8948800     0.0328190     0.0003190
  H        2.3009280     0.7259580     0.0001900
units angstrom
no_reorient  #important for SAPT in psi4, default
symmetry c1  #important for SAPT in psi4, default
}

set PROPERTIES_ORIGIN ["COM"]
properties('MP2/aug-cc-pvtz', properties = ['dipole'])
--------------------------------------------------------------------------

    Molecular point group: c1
  Charge       = -1
  Multiplicity = 1
  Basis Set: AUG-CC-PVTZ
    Blend: AUG-CC-PVTZ
  Basis Set: (AUG-CC-PVTZ AUX)
    Blend: AUG-CC-PVTZ-JKFIT

    Orbital Energies [Eh]
    ---------------------

    Doubly Occupied:

       1A    -20.468519     2A    -20.403470     3A    -20.323218
       4A    -20.320553     5A    -11.229032     6A    -11.173197
       7A     -1.301776     8A     -1.203172     9A     -1.188111
      10A     -1.097278    11A     -0.731826    12A     -0.579094
      13A     -0.550863    14A     -0.493675    15A     -0.472104
      16A     -0.442053    17A     -0.419120    18A     -0.374664
      19A     -0.333384    20A     -0.330006    21A     -0.239551
      22A     -0.226093    23A     -0.214703

  @DF-RHF Final Energy:  -375.96692784653470

   => Energetics <=

    Nuclear Repulsion Energy =            218.3584523129572972
    One-Electron Energy =                -960.4198329188443495
    Two-Electron Energy =                 366.0944527593523503
    Total Energy =                       -375.9669278465347020
  Basis Set: (AUG-CC-PVTZ AUX)
    Blend: AUG-CC-PVTZ-RI
    Molecular point group: c1

    Geometry (in Angstrom), charge = -1, multiplicity = 1:

       Center              X                  Y                   Z               Mass
    ------------   -----------------  -----------------  -----------------  -----------------
         O            1.411090217970     1.052031990584     0.000145449858    15.994914619570
         O            1.261565517970    -1.232700309416     0.000279449858    15.994914619570
         O           -1.474153782030    -1.043753009416    -0.000311550142    15.994914619570
         O           -1.237179782030     1.244505990584    -0.000218550142    15.994914619570
         C            0.710762217970    -0.137340009416    -0.000186550142    12.000000000000
         C           -0.855739782030     0.048298990584     0.000311449858    12.000000000000
         H            2.340068217970     0.741437990584     0.000182449858     1.007825032230

  Basis Set: AUG-CC-PVTZ
    Blend: AUG-CC-PVTZ
  Basis Set: (AUG-CC-PVTZ AUX)
    Blend: AUG-CC-PVTZ-JKFIT
	 Reference Energy          =    -375.9669278465347020 [Eh]
	 Singles Energy            =      -0.0000000000000000 [Eh]
	 Same-Spin Energy          =      -0.3589251003518715 [Eh]
	 Opposite-Spin Energy      =      -1.0178099992834126 [Eh]
	 Correlation Energy        =      -1.3767350996352841 [Eh]
	 Total Energy              =    -377.3436629461700136 [Eh]

	 ================> DF-SCS-MP2 Energies <==================
	-----------------------------------------------------------
	 SCS Same-Spin Scale       =       0.3333333333333333 [-]
	 SCS Opposite-Spin Scale   =       1.2000000000000000 [-]
	 SCS Same-Spin Energy      =      -0.1196417001172905 [Eh]
	 SCS Opposite-Spin Energy  =      -1.2213719991400951 [Eh]
	 SCS Correlation Energy    =      -1.3410136992573856 [Eh]
	 SCS Total Energy          =    -377.3079415457920618 [Eh]
	-----------------------------------------------------------

  Dipole Moment: [D]
     X:     5.2385      Y:     0.7732      Z:     0.0006     Total:     5.2952

*** Psi4 exiting successfully. Buy a developer a beer!
