                               Psi4 1.3.2 release

  ==> Input File <==

--------------------------------------------------------------------------
#psi4
#
memory 32 gb

molecule  {
-1 1
  O        1.3719500     1.0365520     0.0001530
  O        1.2974920    -1.2070900     0.0002320
  O       -1.5510293    -1.0369854    -0.0002795
  O       -1.2763200     1.2290260    -0.0002110
  C        0.6716220    -0.1528200    -0.0001790
  C       -0.8948800     0.0328190     0.0003190
  H        2.3009280     0.7259580     0.0001900
units angstrom
no_reorient  #important for SAPT in psi4, default
symmetry c1  #important for SAPT in psi4, default
}

set PROPERTIES_ORIGIN ["COM"]
properties('MP2/aug-cc-pvtz', properties = ['dipole'])
--------------------------------------------------------------------------

    Molecular point group: c1
  Charge       = -1
  Multiplicity = 1
  Basis Set: AUG-CC-PVTZ
    Blend: AUG-CC-PVTZ
  Basis Set: (AUG-CC-PVTZ AUX)
    Blend: AUG-CC-PVTZ-JKFIT

    Orbital Energies [Eh]
    ---------------------

    Doubly Occupied:

       1A    -20.463488     2A    -20.404798     3A    -20.324421
       4A    -20.323163     5A    -11.232365     6A    -11.177288
       7A     -1.304021     8A     -1.199087     9A     -1.191988
      10A     -1.097482    11A     -0.734867    12A     -0.579799
      13A     -0.549747    14A     -0.494992    15A     -0.472069
      16A     -0.443815    17A     -0.420341    18A     -0.375918
      19A     -0.334618    20A     -0.329968    21A     -0.240576
      22A     -0.231458    23A     -0.215651

  @DF-RHF Final Energy:  -375.96835857086478

   => Energetics <=

    Nuclear Repulsion Energy =            217.9281562017076226
    One-Electron Energy =                -959.5091908835096319
    Two-Electron Energy =                 365.6126761109372865
    Total Energy =                       -375.9683585708647797
  Basis Set: (AUG-CC-PVTZ AUX)
    Blend: AUG-CC-PVTZ-RI
    Molecular point group: c1

    Geometry (in Angstrom), charge = -1, multiplicity = 1:

       Center              X                  Y                   Z               Mass
    ------------   -----------------  -----------------  -----------------  -----------------
         O            1.404380144462     1.040647419825     0.000150932032    15.994914619570
         O            1.329922144462    -1.202994580175     0.000229932032    15.994914619570
         O           -1.518599155538    -1.032889980175    -0.000281567968    15.994914619570
         O           -1.243889855538     1.233121419825    -0.000213067968    15.994914619570
         C            0.704052144462    -0.148724580175    -0.000181067968    12.000000000000
         C           -0.862449855538     0.036914419825     0.000316932032    12.000000000000
         H            2.333358144462     0.730053419825     0.000187932032     1.007825032230

  Basis Set: AUG-CC-PVTZ
    Blend: AUG-CC-PVTZ
  Basis Set: (AUG-CC-PVTZ AUX)
    Blend: AUG-CC-PVTZ-JKFIT
	 Reference Energy          =    -375.9683585708647797 [Eh]
	 Singles Energy            =      -0.0000000000000000 [Eh]
	 Same-Spin Energy          =      -0.3586917094992429 [Eh]
	 Opposite-Spin Energy      =      -1.0174326891121706 [Eh]
	 Correlation Energy        =      -1.3761243986114136 [Eh]
	 Total Energy              =    -377.3444829694761893 [Eh]

	 ================> DF-SCS-MP2 Energies <==================
	-----------------------------------------------------------
	 SCS Same-Spin Scale       =       0.3333333333333333 [-]
	 SCS Opposite-Spin Scale   =       1.2000000000000000 [-]
	 SCS Same-Spin Energy      =      -0.1195639031664143 [Eh]
	 SCS Opposite-Spin Energy  =      -1.2209192269346045 [Eh]
	 SCS Correlation Energy    =      -1.3404831301010189 [Eh]
	 SCS Total Energy          =    -377.3088417009657860 [Eh]
	-----------------------------------------------------------

  Dipole Moment: [D]
     X:     5.1441      Y:     0.7261      Z:     0.0006     Total:     5.1951

*** Psi4 exiting successfully. Buy a developer a beer!
