                               Psi4 1.4a3.dev225

  ==> Input File <==

--------------------------------------------------------------------------
#psi4
#
memory 32 gb

molecule  {
-1 1
  O        1.3597160     1.0340070     0.0001290
  O        1.2734010    -1.2190390     0.0000720
  O       -1.5027660    -1.0525350    -0.0000800
  O       -1.2798520     1.2230830    -0.0001310
  C        0.6828900    -0.1460180     0.0000490
  C       -0.8582982     0.0514734    -0.0000688
  H        2.3089580     0.7867790     0.0002020
units angstrom
no_reorient  #important for SAPT in psi4, default
symmetry c1  #important for SAPT in psi4, default
}

set PROPERTIES_ORIGIN ["COM"]
properties('MP2/aug-cc-pvtz', properties = ['dipole'])
--------------------------------------------------------------------------

    Molecular point group: c1
  Charge       = -1
  Multiplicity = 1
  Basis Set: AUG-CC-PVTZ
    Blend: AUG-CC-PVTZ
  Basis Set: (AUG-CC-PVTZ AUX)
    Blend: AUG-CC-PVTZ-JKFIT

    Orbital Energies [Eh]
    ---------------------

    Doubly Occupied:

       1A    -20.468866     2A    -20.402439     3A    -20.325799
       4A    -20.314320     5A    -11.230536     6A    -11.171828
       7A     -1.309858     8A     -1.202456     9A     -1.187861
      10A     -1.087537    11A     -0.745860    12A     -0.588548
      13A     -0.551567    14A     -0.493293    15A     -0.478400
      16A     -0.440005    17A     -0.414512    18A     -0.371546
      19A     -0.333434    20A     -0.329413    21A     -0.233416
      22A     -0.231579    23A     -0.209930

  @DF-RHF Final Energy:  -375.96719183098674

   => Energetics <=

    Nuclear Repulsion Energy =            218.9832116420205637
    One-Electron Energy =                -961.6548006267738629
    Two-Electron Energy =                 366.7043971537665357
    Total Energy =                       -375.9671918309867351
  Basis Set: (AUG-CC-PVTZ AUX)
    Blend: AUG-CC-PVTZ-RI
    Molecular point group: c1

    Geometry (in Angstrom), charge = -1, multiplicity = 1:

       Center              X                  Y                   Z               Mass
    ------------   -----------------  -----------------  -----------------  -----------------
         O            1.384091657949     1.040449141633     0.000131179728    15.994914619570
         O            1.297776657949    -1.212596858367     0.000074179728    15.994914619570
         O           -1.478390342051    -1.046092858367    -0.000077820272    15.994914619570
         O           -1.255476342051     1.229525141633    -0.000128820272    15.994914619570
         C            0.707265657949    -0.139575858367     0.000051179728    12.000000000000
         C           -0.833922542051     0.057915541633    -0.000066620272    12.000000000000
         H            2.333333657949     0.793221141633     0.000204179728     1.007825032230

  Basis Set: AUG-CC-PVTZ
    Blend: AUG-CC-PVTZ
  Basis Set: (AUG-CC-PVTZ AUX)
    Blend: AUG-CC-PVTZ-JKFIT
	 Reference Energy          =    -375.9671918309867351 [Eh]
	 Singles Energy            =      -0.0000000000000000 [Eh]
	 Same-Spin Energy          =      -0.3588438208452600 [Eh]
	 Opposite-Spin Energy      =      -1.0175100658109233 [Eh]
	 Correlation Energy        =      -1.3763538866561833 [Eh]
	 Total Energy              =    -377.3435457176429395 [Eh]

	 ================> DF-SCS-MP2 Energies <==================
	-----------------------------------------------------------
	 SCS Same-Spin Scale       =       0.3333333333333333 [-]
	 SCS Opposite-Spin Scale   =       1.2000000000000000 [-]
	 SCS Same-Spin Energy      =      -0.1196146069484200 [Eh]
	 SCS Opposite-Spin Energy  =      -1.2210120789731078 [Eh]
	 SCS Correlation Energy    =      -1.3406266859215279 [Eh]
	 SCS Total Energy          =    -377.3078185169082417 [Eh]
	-----------------------------------------------------------

  Dipole Moment: [D]
     X:     5.4426      Y:     1.1107      Z:     0.0004     Total:     5.5548

*** Psi4 exiting successfully. Buy a developer a beer!
