                               Psi4 1.3.2 release

  ==> Input File <==

--------------------------------------------------------------------------
#psi4
#
memory 32 gb

molecule  {
-1 1
  O        1.3719500     1.0365520     0.0001530
  O        1.2974920    -1.2070900     0.0002320
  O       -1.5132940    -1.0592330    -0.0003040
  O       -1.2763200     1.2290260    -0.0002110
  C        0.6716220    -0.1528200    -0.0001790
  C       -0.9941851     0.0445872     0.0003506
  H        2.3009280     0.7259580     0.0001900
units angstrom
no_reorient  #important for SAPT in psi4, default
symmetry c1  #important for SAPT in psi4, default
}

set PROPERTIES_ORIGIN ["COM"]
properties('MP2/aug-cc-pvtz', properties = ['dipole'])
--------------------------------------------------------------------------

    Molecular point group: c1
  Charge       = -1
  Multiplicity = 1
  Basis Set: AUG-CC-PVTZ
    Blend: AUG-CC-PVTZ
  Basis Set: (AUG-CC-PVTZ AUX)
    Blend: AUG-CC-PVTZ-JKFIT

    Orbital Energies [Eh]
    ---------------------

    Doubly Occupied:

       1A    -20.450247     2A    -20.388695     3A    -20.333998
       4A    -20.331304     5A    -11.207980     6A    -11.182424
       7A     -1.289106     8A     -1.218587     9A     -1.182947
      10A     -1.135021    11A     -0.699667    12A     -0.561512
      13A     -0.536497    14A     -0.498404    15A     -0.458376
      16A     -0.444949    17A     -0.436309    18A     -0.396693
      19A     -0.330051    20A     -0.318637    21A     -0.259016
      22A     -0.235360    23A     -0.209003

  @DF-RHF Final Energy:  -375.96693742163382

   => Energetics <=

    Nuclear Repulsion Energy =            217.9138493986676508
    One-Electron Energy =                -959.5520076186705865
    Two-Electron Energy =                 365.6712207983690632
    Total Energy =                       -375.9669374216338156
  Basis Set: (AUG-CC-PVTZ AUX)
    Blend: AUG-CC-PVTZ-RI
    Molecular point group: c1

    Geometry (in Angstrom), charge = -1, multiplicity = 1:

       Center              X                  Y                   Z               Mass
    ------------   -----------------  -----------------  -----------------  -----------------
         O            1.410988807559     1.043059332760     0.000151074472    15.994914619570
         O            1.336530807559    -1.200582667240     0.000230074472    15.994914619570
         O           -1.474255192441    -1.052725667240    -0.000305925528    15.994914619570
         O           -1.237281192441     1.235533332760    -0.000212925528    15.994914619570
         C            0.710660807559    -0.146312667240    -0.000180925528    12.000000000000
         C           -0.955146292441     0.051094532760     0.000348674472    12.000000000000
         H            2.339966807559     0.732465332760     0.000188074472     1.007825032230

  Basis Set: AUG-CC-PVTZ
    Blend: AUG-CC-PVTZ
  Basis Set: (AUG-CC-PVTZ AUX)
    Blend: AUG-CC-PVTZ-JKFIT
	 Reference Energy          =    -375.9669374216338156 [Eh]
	 Singles Energy            =      -0.0000000000000000 [Eh]
	 Same-Spin Energy          =      -0.3576070586408243 [Eh]
	 Opposite-Spin Energy      =      -1.0139969205084629 [Eh]
	 Correlation Energy        =      -1.3716039791492873 [Eh]
	 Total Energy              =    -377.3385414007831287 [Eh]

	 ================> DF-SCS-MP2 Energies <==================
	-----------------------------------------------------------
	 SCS Same-Spin Scale       =       0.3333333333333333 [-]
	 SCS Opposite-Spin Scale   =       1.2000000000000000 [-]
	 SCS Same-Spin Energy      =      -0.1192023528802748 [Eh]
	 SCS Opposite-Spin Energy  =      -1.2167963046101555 [Eh]
	 SCS Correlation Energy    =      -1.3359986574904303 [Eh]
	 SCS Total Energy          =    -377.3029360791242652 [Eh]
	-----------------------------------------------------------

  Dipole Moment: [D]
     X:     4.1930      Y:     0.8269      Z:     0.0007     Total:     4.2737

*** Psi4 exiting successfully. Buy a developer a beer!
