                               Psi4 1.3.2 release

  ==> Input File <==

--------------------------------------------------------------------------
#psi4
#
memory 32 gb

molecule  {
-1 1
  O        1.3719500     1.0365520     0.0001530
  O        1.2974920    -1.2070900     0.0002320
  O       -1.5132940    -1.0592330    -0.0003040
  O       -1.2763200     1.2290260    -0.0002110
  C        0.6716220    -0.1528200    -0.0001790
  C       -0.6962697     0.0092826     0.0002559
  H        2.3009280     0.7259580     0.0001900
units angstrom
no_reorient  #important for SAPT in psi4, default
symmetry c1  #important for SAPT in psi4, default
}

set PROPERTIES_ORIGIN ["COM"]
properties('MP2/aug-cc-pvtz', properties = ['dipole'])
--------------------------------------------------------------------------

    Molecular point group: c1
  Charge       = -1
  Multiplicity = 1
  Basis Set: AUG-CC-PVTZ
    Blend: AUG-CC-PVTZ
  Basis Set: (AUG-CC-PVTZ AUX)
    Blend: AUG-CC-PVTZ-JKFIT

    Orbital Energies [Eh]
    ---------------------

    Doubly Occupied:

       1A    -20.475245     2A    -20.422085     3A    -20.327639
       4A    -20.326401     5A    -11.248246     6A    -11.179449
       7A     -1.321837     8A     -1.214273     9A     -1.145784
      10A     -1.041711    11A     -0.818101    12A     -0.608825
      13A     -0.565321    14A     -0.494398    15A     -0.491724
      16A     -0.444092    17A     -0.384315    18A     -0.357721
      19A     -0.337886    20A     -0.321709    21A     -0.255806
      22A     -0.218581    23A     -0.191395

  @DF-RHF Final Energy:  -375.90694541465820

   => Energetics <=

    Nuclear Repulsion Energy =            218.7263624433692826
    One-Electron Energy =                -960.8815286218864458
    Two-Electron Energy =                 366.2482207638590239
    Total Energy =                       -375.9069454146581961
  Basis Set: (AUG-CC-PVTZ AUX)
    Blend: AUG-CC-PVTZ-RI
    Molecular point group: c1

    Geometry (in Angstrom), charge = -1, multiplicity = 1:

       Center              X                  Y                   Z               Mass
    ------------   -----------------  -----------------  -----------------  -----------------
         O            1.370814789158     1.047820173086     0.000163844808    15.994914619570
         O            1.296356789158    -1.195821826914     0.000242844808    15.994914619570
         O           -1.514429210842    -1.047964826914    -0.000293155192    15.994914619570
         O           -1.277455210842     1.240294173086    -0.000200155192    15.994914619570
         C            0.670486789158    -0.141551826914    -0.000168155192    12.000000000000
         C           -0.697404910842     0.020550773086     0.000266744808    12.000000000000
         H            2.299792789158     0.737226173086     0.000200844808     1.007825032230

  Basis Set: AUG-CC-PVTZ
    Blend: AUG-CC-PVTZ
  Basis Set: (AUG-CC-PVTZ AUX)
    Blend: AUG-CC-PVTZ-JKFIT
	 Reference Energy          =    -375.9069454146581961 [Eh]
	 Singles Energy            =      -0.0000000000000000 [Eh]
	 Same-Spin Energy          =      -0.3655026434810390 [Eh]
	 Opposite-Spin Energy      =      -1.0334165774152415 [Eh]
	 Correlation Energy        =      -1.3989192208962806 [Eh]
	 Total Energy              =    -377.3058646355544852 [Eh]

	 ================> DF-SCS-MP2 Energies <==================
	-----------------------------------------------------------
	 SCS Same-Spin Scale       =       0.3333333333333333 [-]
	 SCS Opposite-Spin Scale   =       1.2000000000000000 [-]
	 SCS Same-Spin Energy      =      -0.1218342144936797 [Eh]
	 SCS Opposite-Spin Energy  =      -1.2400998928982898 [Eh]
	 SCS Correlation Energy    =      -1.3619341073919695 [Eh]
	 SCS Total Energy          =    -377.2688795220501561 [Eh]
	-----------------------------------------------------------

  Dipole Moment: [D]
     X:     5.7859      Y:     0.6761      Z:     0.0004     Total:     5.8252

*** Psi4 exiting successfully. Buy a developer a beer!
