                               Psi4 1.3.2 release

  ==> Input File <==

--------------------------------------------------------------------------
#psi4
#
memory 32 gb

molecule  {
-1 1
  O        1.3719500     1.0365520     0.0001530
  O        1.2974920    -1.2070900     0.0002320
  O       -1.5132940    -1.0592330    -0.0003040
  O       -1.2763200     1.2290260    -0.0002110
  C        0.7226697    -0.2388092    -0.0001455
  C       -0.8948800     0.0328190     0.0003190
  H        2.3009280     0.7259580     0.0001900
units angstrom
no_reorient  #important for SAPT in psi4, default
symmetry c1  #important for SAPT in psi4, default
}

set PROPERTIES_ORIGIN ["COM"]
properties('MP2/aug-cc-pvtz', properties = ['dipole'])
--------------------------------------------------------------------------

    Molecular point group: c1
  Charge       = -1
  Multiplicity = 1
  Basis Set: AUG-CC-PVTZ
    Blend: AUG-CC-PVTZ
  Basis Set: (AUG-CC-PVTZ AUX)
    Blend: AUG-CC-PVTZ-JKFIT

    Orbital Energies [Eh]
    ---------------------

    Doubly Occupied:

       1A    -20.442495     2A    -20.417411     3A    -20.323854
       4A    -20.321562     5A    -11.215728     6A    -11.176359
       7A     -1.335663     8A     -1.212610     9A     -1.188295
      10A     -1.097327    11A     -0.703224    12A     -0.574112
      13A     -0.549494    14A     -0.504565    15A     -0.480990
      16A     -0.445368    17A     -0.418634    18A     -0.371248
      19A     -0.350047    20A     -0.349583    21A     -0.239760
      22A     -0.215874    23A     -0.214201

  @DF-RHF Final Energy:  -375.95782851156025

   => Energetics <=

    Nuclear Repulsion Energy =            218.4072737174965653
    One-Electron Energy =                -960.4333996947123069
    Two-Electron Energy =                 366.0682974656555189
    Total Energy =                       -375.9578285115602512
  Basis Set: (AUG-CC-PVTZ AUX)
    Blend: AUG-CC-PVTZ-RI
    Molecular point group: c1

    Geometry (in Angstrom), charge = -1, multiplicity = 1:

       Center              X                  Y                   Z               Mass
    ------------   -----------------  -----------------  -----------------  -----------------
         O            1.390713668530     1.056241959728     0.000150818257    15.994914619570
         O            1.316255668530    -1.187400040272     0.000229818257    15.994914619570
         O           -1.494530331470    -1.039543040272    -0.000306181743    15.994914619570
         O           -1.257556331470     1.248715959728    -0.000213181743    15.994914619570
         C            0.741433368530    -0.219119240272    -0.000147681743    12.000000000000
         C           -0.876116331470     0.052508959728     0.000316818257    12.000000000000
         H            2.319691668530     0.745647959728     0.000187818257     1.007825032230

  Basis Set: AUG-CC-PVTZ
    Blend: AUG-CC-PVTZ
  Basis Set: (AUG-CC-PVTZ AUX)
    Blend: AUG-CC-PVTZ-JKFIT
	 Reference Energy          =    -375.9578285115602512 [Eh]
	 Singles Energy            =      -0.0000000000000000 [Eh]
	 Same-Spin Energy          =      -0.3574053571047044 [Eh]
	 Opposite-Spin Energy      =      -1.0144476951471355 [Eh]
	 Correlation Energy        =      -1.3718530522518400 [Eh]
	 Total Energy              =    -377.3296815638120734 [Eh]

	 ================> DF-SCS-MP2 Energies <==================
	-----------------------------------------------------------
	 SCS Same-Spin Scale       =       0.3333333333333333 [-]
	 SCS Opposite-Spin Scale   =       1.2000000000000000 [-]
	 SCS Same-Spin Energy      =      -0.1191351190349015 [Eh]
	 SCS Opposite-Spin Energy  =      -1.2173372341765625 [Eh]
	 SCS Correlation Energy    =      -1.3364723532114640 [Eh]
	 SCS Total Energy          =    -377.2943008647717420 [Eh]
	-----------------------------------------------------------

  Dipole Moment: [D]
     X:     5.1370      Y:     0.0030      Z:     0.0007     Total:     5.1370

*** Psi4 exiting successfully. Buy a developer a beer!
