                               Psi4 1.3.2 release

  ==> Input File <==

--------------------------------------------------------------------------
#psi4
#
memory 32 gb

molecule  {
-1 1
  O        1.3719500     1.0365520     0.0001530
  O        1.2974920    -1.2070900     0.0002320
  O       -1.3957557    -1.1178925    -0.0003728
  O       -1.2763200     1.2290260    -0.0002110
  C        0.6716220    -0.1528200    -0.0001790
  C       -0.8948800     0.0328190     0.0003190
  H        2.3009280     0.7259580     0.0001900
units angstrom
no_reorient  #important for SAPT in psi4, default
symmetry c1  #important for SAPT in psi4, default
}

set PROPERTIES_ORIGIN ["COM"]
properties('MP2/aug-cc-pvtz', properties = ['dipole'])
--------------------------------------------------------------------------

    Molecular point group: c1
  Charge       = -1
  Multiplicity = 1
  Basis Set: AUG-CC-PVTZ
    Blend: AUG-CC-PVTZ
  Basis Set: (AUG-CC-PVTZ AUX)
    Blend: AUG-CC-PVTZ-JKFIT

    Orbital Energies [Eh]
    ---------------------

    Doubly Occupied:

       1A    -20.456181     2A    -20.395707     3A    -20.333042
       4A    -20.327756     5A    -11.220222     6A    -11.180948
       7A     -1.296922     8A     -1.196900     9A     -1.187531
      10A     -1.110068    11A     -0.726872    12A     -0.573813
      13A     -0.542696    14A     -0.495618    15A     -0.466054
      16A     -0.439393    17A     -0.427252    18A     -0.378505
      19A     -0.328217    20A     -0.323031    21A     -0.249990
      22A     -0.224195    23A     -0.223704

  @DF-RHF Final Energy:  -375.96399067865411

   => Energetics <=

    Nuclear Repulsion Energy =            218.9481935688787075
    One-Electron Energy =                -961.6151323499218506
    Two-Electron Energy =                 366.7029481023890867
    Total Energy =                       -375.9639906786541133
  Basis Set: (AUG-CC-PVTZ AUX)
    Blend: AUG-CC-PVTZ-RI
    Molecular point group: c1

    Geometry (in Angstrom), charge = -1, multiplicity = 1:

       Center              X                  Y                   Z               Mass
    ------------   -----------------  -----------------  -----------------  -----------------
         O            1.376470736569     1.055189938678     0.000167702093    15.994914619570
         O            1.302012736569    -1.188452061322     0.000246702093    15.994914619570
         O           -1.391234963431    -1.099254561322    -0.000358097907    15.994914619570
         O           -1.271799263431     1.247663938678    -0.000196297907    15.994914619570
         C            0.676142736569    -0.134182061322    -0.000164297907    12.000000000000
         C           -0.890359263431     0.051456938678     0.000333702093    12.000000000000
         H            2.305448736569     0.744595938678     0.000204702093     1.007825032230

  Basis Set: AUG-CC-PVTZ
    Blend: AUG-CC-PVTZ
  Basis Set: (AUG-CC-PVTZ AUX)
    Blend: AUG-CC-PVTZ-JKFIT
	 Reference Energy          =    -375.9639906786541133 [Eh]
	 Singles Energy            =      -0.0000000000000000 [Eh]
	 Same-Spin Energy          =      -0.3592193660560601 [Eh]
	 Opposite-Spin Energy      =      -1.0179525307200088 [Eh]
	 Correlation Energy        =      -1.3771718967760689 [Eh]
	 Total Energy              =    -377.3411625754301895 [Eh]

	 ================> DF-SCS-MP2 Energies <==================
	-----------------------------------------------------------
	 SCS Same-Spin Scale       =       0.3333333333333333 [-]
	 SCS Opposite-Spin Scale   =       1.2000000000000000 [-]
	 SCS Same-Spin Energy      =      -0.1197397886853534 [Eh]
	 SCS Opposite-Spin Energy  =      -1.2215430368640106 [Eh]
	 SCS Correlation Energy    =      -1.3412828255493638 [Eh]
	 SCS Total Energy          =    -377.3052735042034556 [Eh]
	-----------------------------------------------------------

  Dipole Moment: [D]
     X:     4.6940      Y:     0.8117      Z:     0.0007     Total:     4.7637

*** Psi4 exiting successfully. Buy a developer a beer!
