                               Psi4 1.3.2 release

  ==> Input File <==

--------------------------------------------------------------------------
#psi4
#
memory 32 gb

molecule  {
-1 1
  O        1.3719500     1.0365520     0.0001530
  O        1.3695096    -1.1608634     0.0001750
  O       -1.5132940    -1.0592330    -0.0003040
  O       -1.2763200     1.2290260    -0.0002110
  C        0.6716220    -0.1528200    -0.0001790
  C       -0.8948800     0.0328190     0.0003190
  H        2.3009280     0.7259580     0.0001900
units angstrom
no_reorient  #important for SAPT in psi4, default
symmetry c1  #important for SAPT in psi4, default
}

set PROPERTIES_ORIGIN ["COM"]
properties('MP2/aug-cc-pvtz', properties = ['dipole'])
--------------------------------------------------------------------------

    Molecular point group: c1
  Charge       = -1
  Multiplicity = 1
  Basis Set: AUG-CC-PVTZ
    Blend: AUG-CC-PVTZ
  Basis Set: (AUG-CC-PVTZ AUX)
    Blend: AUG-CC-PVTZ-JKFIT

    Orbital Energies [Eh]
    ---------------------

    Doubly Occupied:

       1A    -20.454489     2A    -20.401467     3A    -20.329951
       4A    -20.328071     5A    -11.229737     6A    -11.183037
       7A     -1.303394     8A     -1.197263     9A     -1.189178
      10A     -1.104160    11A     -0.734146    12A     -0.577600
      13A     -0.544690    14A     -0.496347    15A     -0.469219
      16A     -0.443907    17A     -0.425166    18A     -0.378641
      19A     -0.331202    20A     -0.325768    21A     -0.246595
      22A     -0.233529    23A     -0.220716

  @DF-RHF Final Energy:  -375.96687646962948

   => Energetics <=

    Nuclear Repulsion Energy =            218.0319670017882459
    One-Electron Energy =                -959.7011346833977541
    Two-Electron Energy =                 365.7022912119799685
    Total Energy =                       -375.9668764696294829
  Basis Set: (AUG-CC-PVTZ AUX)
    Blend: AUG-CC-PVTZ-RI
    Molecular point group: c1

    Geometry (in Angstrom), charge = -1, multiplicity = 1:

       Center              X                  Y                   Z               Mass
    ------------   -----------------  -----------------  -----------------  -----------------
         O            1.384652782866     1.036337352358     0.000165581121    15.994914619570
         O            1.382212382866    -1.161078047642     0.000187581121    15.994914619570
         O           -1.500591217134    -1.059447647642    -0.000291418879    15.994914619570
         O           -1.263617217134     1.228811352358    -0.000198418879    15.994914619570
         C            0.684324782866    -0.153034647642    -0.000166418879    12.000000000000
         C           -0.882177217134     0.032604352358     0.000331581121    12.000000000000
         H            2.313630782866     0.725743352358     0.000202581121     1.007825032230

  Basis Set: AUG-CC-PVTZ
    Blend: AUG-CC-PVTZ
  Basis Set: (AUG-CC-PVTZ AUX)
    Blend: AUG-CC-PVTZ-JKFIT
	 Reference Energy          =    -375.9668764696294829 [Eh]
	 Singles Energy            =      -0.0000000000000000 [Eh]
	 Same-Spin Energy          =      -0.3587435985756282 [Eh]
	 Opposite-Spin Energy      =      -1.0173683979626751 [Eh]
	 Correlation Energy        =      -1.3761119965383033 [Eh]
	 Total Energy              =    -377.3429884661678102 [Eh]

	 ================> DF-SCS-MP2 Energies <==================
	-----------------------------------------------------------
	 SCS Same-Spin Scale       =       0.3333333333333333 [-]
	 SCS Opposite-Spin Scale   =       1.2000000000000000 [-]
	 SCS Same-Spin Energy      =      -0.1195811995252094 [Eh]
	 SCS Opposite-Spin Energy  =      -1.2208420775552100 [Eh]
	 SCS Correlation Energy    =      -1.3404232770804194 [Eh]
	 SCS Total Energy          =    -377.3072997467099299 [Eh]
	-----------------------------------------------------------

  Dipole Moment: [D]
     X:     4.8330      Y:     0.7184      Z:     0.0007     Total:     4.8861

*** Psi4 exiting successfully. Buy a developer a beer!
