                               Psi4 1.3.2 release

  ==> Input File <==

--------------------------------------------------------------------------
#psi4
#
memory 32 gb

molecule  {
-1 1
  O        1.3719500     1.0365520     0.0001530
  O        1.2974920    -1.2070900     0.0002320
  O       -1.5132940    -1.0592330    -0.0003040
  O       -1.2763200     1.2290260    -0.0002110
  C        0.6716220    -0.1528200    -0.0001790
  C       -0.9441562    -0.0541974     0.0002694
  H        2.3009280     0.7259580     0.0001900
units angstrom
no_reorient  #important for SAPT in psi4, default
symmetry c1  #important for SAPT in psi4, default
}

set PROPERTIES_ORIGIN ["COM"]
properties('MP2/aug-cc-pvtz', properties = ['dipole'])
--------------------------------------------------------------------------

    Molecular point group: c1
  Charge       = -1
  Multiplicity = 1
  Basis Set: AUG-CC-PVTZ
    Blend: AUG-CC-PVTZ
  Basis Set: (AUG-CC-PVTZ AUX)
    Blend: AUG-CC-PVTZ-JKFIT

    Orbital Energies [Eh]
    ---------------------

    Doubly Occupied:

       1A    -20.456831     2A    -20.397019     3A    -20.348364
       4A    -20.306969     5A    -11.220830     6A    -11.176941
       7A     -1.296805     8A     -1.244510     9A     -1.189513
      10A     -1.081841    11A     -0.715161    12A     -0.576317
      13A     -0.542732    14A     -0.503665    15A     -0.465573
      16A     -0.448996    17A     -0.426910    18A     -0.397844
      19A     -0.329775    20A     -0.324544    21A     -0.248696
      22A     -0.217417    23A     -0.213004

  @DF-RHF Final Energy:  -375.95520533413253

   => Energetics <=

    Nuclear Repulsion Energy =            218.1733241701133750
    One-Electron Energy =                -959.9965407256268008
    Two-Electron Energy =                 365.8680112213809252
    Total Energy =                       -375.9552053341325291
  Basis Set: (AUG-CC-PVTZ AUX)
    Blend: AUG-CC-PVTZ-RI
    Molecular point group: c1

    Geometry (in Angstrom), charge = -1, multiplicity = 1:

       Center              X                  Y                   Z               Mass
    ------------   -----------------  -----------------  -----------------  -----------------
         O            1.404242389115     1.056380478085     0.000162024327    15.994914619570
         O            1.329784389115    -1.187261521915     0.000241024327    15.994914619570
         O           -1.481001610885    -1.039404521915    -0.000294975673    15.994914619570
         O           -1.244027610885     1.248854478085    -0.000201975673    15.994914619570
         C            0.703914389115    -0.132991521915    -0.000169975673    12.000000000000
         C           -0.911863810885    -0.034368921915     0.000278424327    12.000000000000
         H            2.333220389115     0.745786478085     0.000199024327     1.007825032230

  Basis Set: AUG-CC-PVTZ
    Blend: AUG-CC-PVTZ
  Basis Set: (AUG-CC-PVTZ AUX)
    Blend: AUG-CC-PVTZ-JKFIT
	 Reference Energy          =    -375.9552053341325291 [Eh]
	 Singles Energy            =      -0.0000000000000000 [Eh]
	 Same-Spin Energy          =      -0.3577747936824164 [Eh]
	 Opposite-Spin Energy      =      -1.0152244355548083 [Eh]
	 Correlation Energy        =      -1.3729992292372248 [Eh]
	 Total Energy              =    -377.3282045633697521 [Eh]

	 ================> DF-SCS-MP2 Energies <==================
	-----------------------------------------------------------
	 SCS Same-Spin Scale       =       0.3333333333333333 [-]
	 SCS Opposite-Spin Scale   =       1.2000000000000000 [-]
	 SCS Same-Spin Energy      =      -0.1192582645608055 [Eh]
	 SCS Opposite-Spin Energy  =      -1.2182693226657699 [Eh]
	 SCS Correlation Energy    =      -1.3375275872265755 [Eh]
	 SCS Total Energy          =    -377.2927329213591179 [Eh]
	-----------------------------------------------------------

  Dipole Moment: [D]
     X:     4.6229      Y:    -0.1943      Z:     0.0006     Total:     4.6270

*** Psi4 exiting successfully. Buy a developer a beer!
