                               Psi4 1.3.2 release

  ==> Input File <==

--------------------------------------------------------------------------
#psi4
#
memory 32 gb

molecule  {
-1 1
  O        1.3719500     1.0365520     0.0001530
  O        1.2974920    -1.2070900     0.0002320
  O       -1.5132940    -1.0592330    -0.0003040
  O       -1.2763200     1.2290260    -0.0002110
  C        0.6509713    -0.1404164    -0.0001786
  C       -0.8948800     0.0328190     0.0003190
  H        2.3009280     0.7259580     0.0001900
units angstrom
no_reorient  #important for SAPT in psi4, default
symmetry c1  #important for SAPT in psi4, default
}

set PROPERTIES_ORIGIN ["COM"]
properties('MP2/aug-cc-pvtz', properties = ['dipole'])
--------------------------------------------------------------------------

    Molecular point group: c1
  Charge       = -1
  Multiplicity = 1
  Basis Set: AUG-CC-PVTZ
    Blend: AUG-CC-PVTZ
  Basis Set: (AUG-CC-PVTZ AUX)
    Blend: AUG-CC-PVTZ-JKFIT

    Orbital Energies [Eh]
    ---------------------

    Doubly Occupied:

       1A    -20.463016     2A    -20.400783     3A    -20.327964
       4A    -20.325702     5A    -11.233159     6A    -11.178819
       7A     -1.298601     8A     -1.197025     9A     -1.184052
      10A     -1.102273    11A     -0.740630    12A     -0.581915
      13A     -0.545689    14A     -0.493146    15A     -0.468765
      16A     -0.441937    17A     -0.422830    18A     -0.378048
      19A     -0.328611    20A     -0.322107    21A     -0.244756
      22A     -0.234203    23A     -0.218668

  @DF-RHF Final Energy:  -375.96513163462259

   => Energetics <=

    Nuclear Repulsion Energy =            218.1278358030870947
    One-Electron Energy =                -959.9205350692883485
    Two-Electron Energy =                 365.8275676315786313
    Total Energy =                       -375.9651316346225940
  Basis Set: (AUG-CC-PVTZ AUX)
    Blend: AUG-CC-PVTZ-RI
    Molecular point group: c1

    Geometry (in Angstrom), charge = -1, multiplicity = 1:

       Center              X                  Y                   Z               Mass
    ------------   -----------------  -----------------  -----------------  -----------------
         O            1.400382228265     1.042973648799     0.000155281806    15.994914619570
         O            1.325924228265    -1.200668351201     0.000234281806    15.994914619570
         O           -1.484861771735    -1.052811351201    -0.000301718194    15.994914619570
         O           -1.247887771735     1.235447648799    -0.000208718194    15.994914619570
         C            0.679403528265    -0.133994751201    -0.000176318194    12.000000000000
         C           -0.866447771735     0.039240648799     0.000321281806    12.000000000000
         H            2.329360228265     0.732379648799     0.000192281806     1.007825032230

  Basis Set: AUG-CC-PVTZ
    Blend: AUG-CC-PVTZ
  Basis Set: (AUG-CC-PVTZ AUX)
    Blend: AUG-CC-PVTZ-JKFIT
	 Reference Energy          =    -375.9651316346225940 [Eh]
	 Singles Energy            =      -0.0000000000000000 [Eh]
	 Same-Spin Energy          =      -0.3592756991151529 [Eh]
	 Opposite-Spin Energy      =      -1.0186652039732782 [Eh]
	 Correlation Energy        =      -1.3779409030884311 [Eh]
	 Total Energy              =    -377.3430725377110093 [Eh]

	 ================> DF-SCS-MP2 Energies <==================
	-----------------------------------------------------------
	 SCS Same-Spin Scale       =       0.3333333333333333 [-]
	 SCS Opposite-Spin Scale   =       1.2000000000000000 [-]
	 SCS Same-Spin Energy      =      -0.1197585663717176 [Eh]
	 SCS Opposite-Spin Energy  =      -1.2223982447679338 [Eh]
	 SCS Correlation Energy    =      -1.3421568111396514 [Eh]
	 SCS Total Energy          =    -377.3072884457622536 [Eh]
	-----------------------------------------------------------

  Dipole Moment: [D]
     X:     4.9592      Y:     0.8374      Z:     0.0007     Total:     5.0294

*** Psi4 exiting successfully. Buy a developer a beer!
