                               Psi4 1.3.2 release

  ==> Input File <==

--------------------------------------------------------------------------
#psi4
#
memory 32 gb

molecule  {
-1 1
  O        1.3719500     1.0365520     0.0001530
  O        1.2789971    -1.2178524     0.0002459
  O       -1.5132940    -1.0592330    -0.0003040
  O       -1.2763200     1.2290260    -0.0002110
  C        0.6716220    -0.1528200    -0.0001790
  C       -0.8948800     0.0328190     0.0003190
  H        2.3009280     0.7259580     0.0001900
units angstrom
no_reorient  #important for SAPT in psi4, default
symmetry c1  #important for SAPT in psi4, default
}

set PROPERTIES_ORIGIN ["COM"]
properties('MP2/aug-cc-pvtz', properties = ['dipole'])
--------------------------------------------------------------------------

    Molecular point group: c1
  Charge       = -1
  Multiplicity = 1
  Basis Set: AUG-CC-PVTZ
    Blend: AUG-CC-PVTZ
  Basis Set: (AUG-CC-PVTZ AUX)
    Blend: AUG-CC-PVTZ-JKFIT

    Orbital Energies [Eh]
    ---------------------

    Doubly Occupied:

       1A    -20.463493     2A    -20.402888     3A    -20.325797
       4A    -20.323474     5A    -11.229316     6A    -11.176954
       7A     -1.302126     8A     -1.199216     9A     -1.190712
      10A     -1.099941    11A     -0.732666    12A     -0.578533
      13A     -0.548808    14A     -0.494740    15A     -0.470960
      16A     -0.442610    17A     -0.421453    18A     -0.376086
      19A     -0.333225    20A     -0.328819    21A     -0.242303
      22A     -0.229049    23A     -0.217022

  @DF-RHF Final Energy:  -375.96827877802042

   => Energetics <=

    Nuclear Repulsion Energy =            218.1926614330350560
    One-Electron Energy =                -960.0615010657114681
    Two-Electron Energy =                 365.9005608546560211
    Total Energy =                       -375.9682787780204194
  Basis Set: (AUG-CC-PVTZ AUX)
    Blend: AUG-CC-PVTZ-RI
    Molecular point group: c1

    Geometry (in Angstrom), charge = -1, multiplicity = 1:

       Center              X                  Y                   Z               Mass
    ------------   -----------------  -----------------  -----------------  -----------------
         O            1.400921809165     1.046580750118     0.000152837312    15.994914619570
         O            1.307968909165    -1.207823649882     0.000245737312    15.994914619570
         O           -1.484322190835    -1.049204249882    -0.000304162688    15.994914619570
         O           -1.247348190835     1.239054750118    -0.000211162688    15.994914619570
         C            0.700593809165    -0.142791249882    -0.000179162688    12.000000000000
         C           -0.865908190835     0.042847750118     0.000318837312    12.000000000000
         H            2.329899809165     0.735986750118     0.000189837312     1.007825032230

  Basis Set: AUG-CC-PVTZ
    Blend: AUG-CC-PVTZ
  Basis Set: (AUG-CC-PVTZ AUX)
    Blend: AUG-CC-PVTZ-JKFIT
	 Reference Energy          =    -375.9682787780204194 [Eh]
	 Singles Energy            =      -0.0000000000000000 [Eh]
	 Same-Spin Energy          =      -0.3588033665230419 [Eh]
	 Opposite-Spin Energy      =      -1.0175459370011355 [Eh]
	 Correlation Energy        =      -1.3763493035241774 [Eh]
	 Total Energy              =    -377.3446280815446130 [Eh]

	 ================> DF-SCS-MP2 Energies <==================
	-----------------------------------------------------------
	 SCS Same-Spin Scale       =       0.3333333333333333 [-]
	 SCS Opposite-Spin Scale   =       1.2000000000000000 [-]
	 SCS Same-Spin Energy      =      -0.1196011221743473 [Eh]
	 SCS Opposite-Spin Energy  =      -1.2210551244013625 [Eh]
	 SCS Correlation Energy    =      -1.3406562465757099 [Eh]
	 SCS Total Energy          =    -377.3089350245961100 [Eh]
	-----------------------------------------------------------

  Dipole Moment: [D]
     X:     5.0861      Y:     0.7582      Z:     0.0006     Total:     5.1423

*** Psi4 exiting successfully. Buy a developer a beer!
