                               Psi4 1.3.2 release

  ==> Input File <==

--------------------------------------------------------------------------
#psi4
#
memory 32 gb

molecule  {
-1 1
  O        1.3719500     1.0365520     0.0001530
  O        1.2974920    -1.2070900     0.0002320
  O       -1.5132940    -1.0592330    -0.0003040
  O       -1.2763200     1.2290260    -0.0002110
  C        0.6205743    -0.0668308    -0.0002125
  C       -0.8948800     0.0328190     0.0003190
  H        2.3009280     0.7259580     0.0001900
units angstrom
no_reorient  #important for SAPT in psi4, default
symmetry c1  #important for SAPT in psi4, default
}

set PROPERTIES_ORIGIN ["COM"]
properties('MP2/aug-cc-pvtz', properties = ['dipole'])
--------------------------------------------------------------------------

    Molecular point group: c1
  Charge       = -1
  Multiplicity = 1
  Basis Set: AUG-CC-PVTZ
    Blend: AUG-CC-PVTZ
  Basis Set: (AUG-CC-PVTZ AUX)
    Blend: AUG-CC-PVTZ-JKFIT

    Orbital Energies [Eh]
    ---------------------

    Doubly Occupied:

       1A    -20.478349     2A    -20.387431     3A    -20.330388
       4A    -20.327790     5A    -11.241042     6A    -11.179703
       7A     -1.313172     8A     -1.201090     9A     -1.144081
      10A     -1.103986    11A     -0.761352    12A     -0.605272
      13A     -0.547678    14A     -0.488311    15A     -0.477491
      16A     -0.436853    17A     -0.414819    18A     -0.382649
      19A     -0.312247    20A     -0.297054    21A     -0.247689
      22A     -0.239775    23A     -0.220131

  @DF-RHF Final Energy:  -375.94647284191586

   => Energetics <=

    Nuclear Repulsion Energy =            218.1488933119018157
    One-Electron Energy =                -959.9140248802299311
    Two-Electron Energy =                 365.8186587264122522
    Total Energy =                       -375.9464728419158632
  Basis Set: (AUG-CC-PVTZ AUX)
    Blend: AUG-CC-PVTZ-RI
    Molecular point group: c1

    Geometry (in Angstrom), charge = -1, multiplicity = 1:

       Center              X                  Y                   Z               Mass
    ------------   -----------------  -----------------  -----------------  -----------------
         O            1.404481276644     1.033050599342     0.000159853235    15.994914619570
         O            1.330023276644    -1.210591400658     0.000238853235    15.994914619570
         O           -1.480762723356    -1.062734400658    -0.000297146765    15.994914619570
         O           -1.243788723356     1.225524599342    -0.000204146765    15.994914619570
         C            0.653105576644    -0.070332200658    -0.000205646765    12.000000000000
         C           -0.862348723356     0.029317599342     0.000325853235    12.000000000000
         H            2.333459276644     0.722456599342     0.000196853235     1.007825032230

  Basis Set: AUG-CC-PVTZ
    Blend: AUG-CC-PVTZ
  Basis Set: (AUG-CC-PVTZ AUX)
    Blend: AUG-CC-PVTZ-JKFIT
	 Reference Energy          =    -375.9464728419158632 [Eh]
	 Singles Energy            =      -0.0000000000000000 [Eh]
	 Same-Spin Energy          =      -0.3608790155415534 [Eh]
	 Opposite-Spin Energy      =      -1.0218349876412474 [Eh]
	 Correlation Energy        =      -1.3827140031828007 [Eh]
	 Total Energy              =    -377.3291868450986613 [Eh]

	 ================> DF-SCS-MP2 Energies <==================
	-----------------------------------------------------------
	 SCS Same-Spin Scale       =       0.3333333333333333 [-]
	 SCS Opposite-Spin Scale   =       1.2000000000000000 [-]
	 SCS Same-Spin Energy      =      -0.1202930051805178 [Eh]
	 SCS Opposite-Spin Energy  =      -1.2262019851694967 [Eh]
	 SCS Correlation Energy    =      -1.3464949903500145 [Eh]
	 SCS Total Energy          =    -377.2929678322659015 [Eh]
	-----------------------------------------------------------

  Dipole Moment: [D]
     X:     4.9040      Y:     1.3989      Z:     0.0006     Total:     5.0997

*** Psi4 exiting successfully. Buy a developer a beer!
