                               Psi4 1.3.2 release

  ==> Input File <==

--------------------------------------------------------------------------
#psi4
#
memory 32 gb

molecule  {
-1 1
  O        1.3719500     1.0365520     0.0001530
  O        1.2974920    -1.2070900     0.0002320
  O       -1.5879653    -1.0134345    -0.0002543
  O       -1.2763200     1.2290260    -0.0002110
  C        0.6716220    -0.1528200    -0.0001790
  C       -0.8948800     0.0328190     0.0003190
  H        2.3009280     0.7259580     0.0001900
units angstrom
no_reorient  #important for SAPT in psi4, default
symmetry c1  #important for SAPT in psi4, default
}

set PROPERTIES_ORIGIN ["COM"]
properties('MP2/aug-cc-pvtz', properties = ['dipole'])
--------------------------------------------------------------------------

    Molecular point group: c1
  Charge       = -1
  Multiplicity = 1
  Basis Set: AUG-CC-PVTZ
    Blend: AUG-CC-PVTZ
  Basis Set: (AUG-CC-PVTZ AUX)
    Blend: AUG-CC-PVTZ-JKFIT

    Orbital Energies [Eh]
    ---------------------

    Doubly Occupied:

       1A    -20.465156     2A    -20.406867     3A    -20.322156
       4A    -20.321831     5A    -11.235269     6A    -11.176396
       7A     -1.305690     8A     -1.200410     9A     -1.192417
      10A     -1.094036    11A     -0.736722    12A     -0.581224
      13A     -0.551389    14A     -0.494942    15A     -0.473517
      16A     -0.444719    17A     -0.418370    18A     -0.375252
      19A     -0.336224    20A     -0.331561    21A     -0.238225
      22A     -0.232297    23A     -0.213445

  @DF-RHF Final Energy:  -375.96763076648199

   => Energetics <=

    Nuclear Repulsion Energy =            217.7294248629580693
    One-Electron Energy =                -959.0978813913162639
    Two-Electron Energy =                 365.4008257618761490
    Total Energy =                       -375.9676307664819888
  Basis Set: (AUG-CC-PVTZ AUX)
    Blend: AUG-CC-PVTZ-RI
    Molecular point group: c1

    Geometry (in Angstrom), charge = -1, multiplicity = 1:

       Center              X                  Y                   Z               Mass
    ------------   -----------------  -----------------  -----------------  -----------------
         O            1.411019147421     1.036414300516     0.000146402498    15.994914619570
         O            1.336561147421    -1.207227699484     0.000225402498    15.994914619570
         O           -1.548896152579    -1.013572199484    -0.000260897502    15.994914619570
         O           -1.237250852579     1.228888300516    -0.000217597502    15.994914619570
         C            0.710691147421    -0.152957699484    -0.000185597502    12.000000000000
         C           -0.855810852579     0.032681300516     0.000312402498    12.000000000000
         H            2.339997147421     0.725820300516     0.000183402498     1.007825032230

  Basis Set: AUG-CC-PVTZ
    Blend: AUG-CC-PVTZ
  Basis Set: (AUG-CC-PVTZ AUX)
    Blend: AUG-CC-PVTZ-JKFIT
	 Reference Energy          =    -375.9676307664819888 [Eh]
	 Singles Energy            =      -0.0000000000000000 [Eh]
	 Same-Spin Energy          =      -0.3586363238755298 [Eh]
	 Opposite-Spin Energy      =      -1.0174306749640827 [Eh]
	 Correlation Energy        =      -1.3760669988396126 [Eh]
	 Total Energy              =    -377.3436977653216218 [Eh]

	 ================> DF-SCS-MP2 Energies <==================
	-----------------------------------------------------------
	 SCS Same-Spin Scale       =       0.3333333333333333 [-]
	 SCS Opposite-Spin Scale   =       1.2000000000000000 [-]
	 SCS Same-Spin Energy      =      -0.1195454412918433 [Eh]
	 SCS Opposite-Spin Energy  =      -1.2209168099568992 [Eh]
	 SCS Correlation Energy    =      -1.3404622512487425 [Eh]
	 SCS Total Energy          =    -377.3080930177307550 [Eh]
	-----------------------------------------------------------

  Dipole Moment: [D]
     X:     5.2501      Y:     0.6979      Z:     0.0006     Total:     5.2963

*** Psi4 exiting successfully. Buy a developer a beer!
