                               Psi4 1.3.2 release

  ==> Input File <==

--------------------------------------------------------------------------
#psi4
#
memory 32 gb

molecule  {
-1 1
  O        1.3719500     1.0365520     0.0001530
  O        1.2974920    -1.2070900     0.0002320
  O       -1.4748052    -1.0801501    -0.0002583
  O       -1.2763200     1.2290260    -0.0002110
  C        0.6716220    -0.1528200    -0.0001790
  C       -0.8948800     0.0328190     0.0003190
  H        2.3009280     0.7259580     0.0001900
units angstrom
no_reorient  #important for SAPT in psi4, default
symmetry c1  #important for SAPT in psi4, default
}

set PROPERTIES_ORIGIN ["COM"]
properties('MP2/aug-cc-pvtz', properties = ['dipole'])
--------------------------------------------------------------------------

    Molecular point group: c1
  Charge       = -1
  Multiplicity = 1
  Basis Set: AUG-CC-PVTZ
    Blend: AUG-CC-PVTZ
  Basis Set: (AUG-CC-PVTZ AUX)
    Blend: AUG-CC-PVTZ-JKFIT

    Orbital Energies [Eh]
    ---------------------

    Doubly Occupied:

       1A    -20.459963     2A    -20.400420     3A    -20.328819
       4A    -20.325604     5A    -11.226391     6A    -11.179098
       7A     -1.300551     8A     -1.197283     9A     -1.190391
      10A     -1.104012    11A     -0.730982    12A     -0.576863
      13A     -0.546316    14A     -0.495205    15A     -0.469096
      16A     -0.441761    17A     -0.423989    18A     -0.377237
      19A     -0.331380    20A     -0.326607    21A     -0.245694
      22A     -0.228249    23A     -0.219828

  @DF-RHF Final Energy:  -375.96765595851605

   => Energetics <=

    Nuclear Repulsion Energy =            218.3922892501340698
    One-Electron Energy =                -960.4684099539664430
    Two-Electron Energy =                 366.1084647453163825
    Total Energy =                       -375.9676559585160476
  Basis Set: (AUG-CC-PVTZ AUX)
    Blend: AUG-CC-PVTZ-RI
    Molecular point group: c1

    Geometry (in Angstrom), charge = -1, multiplicity = 1:

       Center              X                  Y                   Z               Mass
    ------------   -----------------  -----------------  -----------------  -----------------
         O            1.390679364045     1.048405990625     0.000147121472    15.994914619570
         O            1.316221364045    -1.195236009375     0.000226121472    15.994914619570
         O           -1.456075835955    -1.068296109375    -0.000264178528    15.994914619570
         O           -1.257590635955     1.240879990625    -0.000216878528    15.994914619570
         C            0.690351364045    -0.140966009375    -0.000184878528    12.000000000000
         C           -0.876150635955     0.044672990625     0.000313121472    12.000000000000
         H            2.319657364045     0.737811990625     0.000184121472     1.007825032230

  Basis Set: AUG-CC-PVTZ
    Blend: AUG-CC-PVTZ
  Basis Set: (AUG-CC-PVTZ AUX)
    Blend: AUG-CC-PVTZ-JKFIT
	 Reference Energy          =    -375.9676559585160476 [Eh]
	 Singles Energy            =      -0.0000000000000000 [Eh]
	 Same-Spin Energy          =      -0.3588929176773367 [Eh]
	 Opposite-Spin Energy      =      -1.0175863525773388 [Eh]
	 Correlation Energy        =      -1.3764792702546753 [Eh]
	 Total Energy              =    -377.3441352287707105 [Eh]

	 ================> DF-SCS-MP2 Energies <==================
	-----------------------------------------------------------
	 SCS Same-Spin Scale       =       0.3333333333333333 [-]
	 SCS Opposite-Spin Scale   =       1.2000000000000000 [-]
	 SCS Same-Spin Energy      =      -0.1196309725591122 [Eh]
	 SCS Opposite-Spin Energy  =      -1.2211036230928065 [Eh]
	 SCS Correlation Energy    =      -1.3407345956519188 [Eh]
	 SCS Total Energy          =    -377.3083905541679428 [Eh]
	-----------------------------------------------------------

  Dipole Moment: [D]
     X:     4.9241      Y:     0.7746      Z:     0.0006     Total:     4.9846

*** Psi4 exiting successfully. Buy a developer a beer!
