                               Psi4 1.3.2 release

  ==> Input File <==

--------------------------------------------------------------------------
#psi4
#
memory 32 gb

molecule  {
-1 1
  O        1.3719500     1.0365520     0.0001530
  O        1.2974920    -1.2070900     0.0002320
  O       -1.5322588    -1.0482739    -0.0002918
  O       -1.2763200     1.2290260    -0.0002110
  C        0.6716220    -0.1528200    -0.0001790
  C       -0.8948800     0.0328190     0.0003190
  H        2.3009280     0.7259580     0.0001900
units angstrom
no_reorient  #important for SAPT in psi4, default
symmetry c1  #important for SAPT in psi4, default
}

set PROPERTIES_ORIGIN ["COM"]
properties('MP2/aug-cc-pvtz', properties = ['dipole'])
--------------------------------------------------------------------------

    Molecular point group: c1
  Charge       = -1
  Multiplicity = 1
  Basis Set: AUG-CC-PVTZ
    Blend: AUG-CC-PVTZ
  Basis Set: (AUG-CC-PVTZ AUX)
    Blend: AUG-CC-PVTZ-JKFIT

    Orbital Energies [Eh]
    ---------------------

    Doubly Occupied:

       1A    -20.462630     2A    -20.403734     3A    -20.325537
       4A    -20.323801     5A    -11.230891     6A    -11.177737
       7A     -1.303170     8A     -1.198510     9A     -1.191702
      10A     -1.099160    11A     -0.733917    12A     -0.579076
      13A     -0.548908    14A     -0.495030    15A     -0.471335
      16A     -0.443332    17A     -0.421290    18A     -0.376250
      19A     -0.333810    20A     -0.329149    21A     -0.241885
      22A     -0.230769    23A     -0.216724

  @DF-RHF Final Energy:  -375.96845423411537

   => Energetics <=

    Nuclear Repulsion Energy =            218.0357800005544959
    One-Electron Energy =                -959.7317765027163432
    Two-Electron Energy =                 365.7275422680464771
    Total Energy =                       -375.9684542341153701
  Basis Set: (AUG-CC-PVTZ AUX)
    Blend: AUG-CC-PVTZ-RI
    Molecular point group: c1

    Geometry (in Angstrom), charge = -1, multiplicity = 1:

       Center              X                  Y                   Z               Mass
    ------------   -----------------  -----------------  -----------------  -----------------
         O            1.401006270598     1.042676453421     0.000153142876    15.994914619570
         O            1.326548270598    -1.200965546579     0.000232142876    15.994914619570
         O           -1.503202529402    -1.042149446579    -0.000291657124    15.994914619570
         O           -1.247263729402     1.235150453421    -0.000210857124    15.994914619570
         C            0.700678270598    -0.146695546579    -0.000178857124    12.000000000000
         C           -0.865823729402     0.038943453421     0.000319142876    12.000000000000
         H            2.329984270598     0.732082453421     0.000190142876     1.007825032230

  Basis Set: AUG-CC-PVTZ
    Blend: AUG-CC-PVTZ
  Basis Set: (AUG-CC-PVTZ AUX)
    Blend: AUG-CC-PVTZ-JKFIT
	 Reference Energy          =    -375.9684542341153701 [Eh]
	 Singles Energy            =      -0.0000000000000000 [Eh]
	 Same-Spin Energy          =      -0.3587306097746244 [Eh]
	 Opposite-Spin Energy      =      -1.0174521220726098 [Eh]
	 Correlation Energy        =      -1.3761827318472342 [Eh]
	 Total Energy              =    -377.3446369659625930 [Eh]

	 ================> DF-SCS-MP2 Energies <==================
	-----------------------------------------------------------
	 SCS Same-Spin Scale       =       0.3333333333333333 [-]
	 SCS Opposite-Spin Scale   =       1.2000000000000000 [-]
	 SCS Same-Spin Energy      =      -0.1195768699248748 [Eh]
	 SCS Opposite-Spin Energy  =      -1.2209425464871317 [Eh]
	 SCS Correlation Energy    =      -1.3405194164120064 [Eh]
	 SCS Total Energy          =    -377.3089736505273777 [Eh]
	-----------------------------------------------------------

  Dipole Moment: [D]
     X:     5.0901      Y:     0.7392      Z:     0.0006     Total:     5.1435

*** Psi4 exiting successfully. Buy a developer a beer!
