                               Psi4 1.3.2 release

  ==> Input File <==

--------------------------------------------------------------------------
#psi4
#
memory 32 gb

molecule  {
-1 1
  O        1.3719500     1.0365520     0.0001530
  O        1.2974920    -1.2070900     0.0002320
  O       -1.5132940    -1.0592330    -0.0003040
  O       -1.2763200     1.2290260    -0.0002110
  C        0.7731011     0.0195227    -0.0001309
  C       -0.8948800     0.0328190     0.0003190
  H        2.3009280     0.7259580     0.0001900
units angstrom
no_reorient  #important for SAPT in psi4, default
symmetry c1  #important for SAPT in psi4, default
}

set PROPERTIES_ORIGIN ["COM"]
properties('MP2/aug-cc-pvtz', properties = ['dipole'])
--------------------------------------------------------------------------

    Molecular point group: c1
  Charge       = -1
  Multiplicity = 1
  Basis Set: AUG-CC-PVTZ
    Blend: AUG-CC-PVTZ
  Basis Set: (AUG-CC-PVTZ AUX)
    Blend: AUG-CC-PVTZ-JKFIT

    Orbital Energies [Eh]
    ---------------------

    Doubly Occupied:

       1A    -20.514754     2A    -20.366923     3A    -20.322273
       4A    -20.321662     5A    -11.224658     6A    -11.177727
       7A     -1.414146     8A     -1.189742     9A     -1.131387
      10A     -1.095428    11A     -0.771633    12A     -0.616457
      13A     -0.579872    14A     -0.537290    15A     -0.481348
      16A     -0.422447    17A     -0.404354    18A     -0.375724
      19A     -0.304159    20A     -0.287085    21A     -0.237231
      22A     -0.215398    23A     -0.209941

  @DF-RHF Final Energy:  -375.91589805697038

   => Energetics <=

    Nuclear Repulsion Energy =            218.4539351696838310
    One-Electron Energy =                -960.3363878767922870
    Two-Electron Energy =                 365.9665546501380504
    Total Energy =                       -375.9158980569703772
  Basis Set: (AUG-CC-PVTZ AUX)
    Blend: AUG-CC-PVTZ-RI
    Molecular point group: c1

    Geometry (in Angstrom), charge = -1, multiplicity = 1:

       Center              X                  Y                   Z               Mass
    ------------   -----------------  -----------------  -----------------  -----------------
         O            1.383912972790     1.021405793138     0.000148849440    15.994914619570
         O            1.309454972790    -1.222236206862     0.000227849440    15.994914619570
         O           -1.501331027210    -1.074379206862    -0.000308150560    15.994914619570
         O           -1.264357027210     1.213879793138    -0.000215150560    15.994914619570
         C            0.785064072790     0.004376493138    -0.000135050560    12.000000000000
         C           -0.882917027210     0.017672793138     0.000314849440    12.000000000000
         H            2.312890972790     0.710811793138     0.000185849440     1.007825032230

  Basis Set: AUG-CC-PVTZ
    Blend: AUG-CC-PVTZ
  Basis Set: (AUG-CC-PVTZ AUX)
    Blend: AUG-CC-PVTZ-JKFIT
	 Reference Energy          =    -375.9158980569703772 [Eh]
	 Singles Energy            =      -0.0000000000000000 [Eh]
	 Same-Spin Energy          =      -0.3601966909948444 [Eh]
	 Opposite-Spin Energy      =      -1.0180603365646270 [Eh]
	 Correlation Energy        =      -1.3782570275594714 [Eh]
	 Total Energy              =    -377.2941550845298480 [Eh]

	 ================> DF-SCS-MP2 Energies <==================
	-----------------------------------------------------------
	 SCS Same-Spin Scale       =       0.3333333333333333 [-]
	 SCS Opposite-Spin Scale   =       1.2000000000000000 [-]
	 SCS Same-Spin Energy      =      -0.1200655636649481 [Eh]
	 SCS Opposite-Spin Energy  =      -1.2216724038775524 [Eh]
	 SCS Correlation Energy    =      -1.3417379675425005 [Eh]
	 SCS Total Energy          =    -377.2576360245128626 [Eh]
	-----------------------------------------------------------

  Dipole Moment: [D]
     X:     5.4042      Y:     2.3055      Z:     0.0008     Total:     5.8754

*** Psi4 exiting successfully. Buy a developer a beer!
