                               Psi4 1.4a3.dev225

  ==> Input File <==

--------------------------------------------------------------------------
#psi4
#
memory 32 gb

molecule  {
-1 1
  O        1.3597160     1.0340070     0.0001290
  O        1.2734010    -1.2190390     0.0000720
  O       -1.5027660    -1.0525350    -0.0000800
  O       -1.2798520     1.2230830    -0.0001310
  C        0.6828900    -0.1460180     0.0000490
  C       -0.8683810     0.0342010    -0.0000690
  H        2.3283123     0.7817382     0.0002035
units angstrom
no_reorient  #important for SAPT in psi4, default
symmetry c1  #important for SAPT in psi4, default
}

set PROPERTIES_ORIGIN ["COM"]
properties('MP2/aug-cc-pvtz', properties = ['dipole'])
--------------------------------------------------------------------------

    Molecular point group: c1
  Charge       = -1
  Multiplicity = 1
  Basis Set: AUG-CC-PVTZ
    Blend: AUG-CC-PVTZ
  Basis Set: (AUG-CC-PVTZ AUX)
    Blend: AUG-CC-PVTZ-JKFIT

    Orbital Energies [Eh]
    ---------------------

    Doubly Occupied:

       1A    -20.469568     2A    -20.401110     3A    -20.321732
       4A    -20.318803     5A    -11.228880     6A    -11.171927
       7A     -1.305881     8A     -1.200429     9A     -1.186925
      10A     -1.092344    11A     -0.739520    12A     -0.586081
      13A     -0.548471    14A     -0.492183    15A     -0.476634
      16A     -0.438494    17A     -0.416409    18A     -0.372458
      19A     -0.332161    20A     -0.328232    21A     -0.236505
      22A     -0.229242    23A     -0.211777

  @DF-RHF Final Energy:  -375.96717120390360

   => Energetics <=

    Nuclear Repulsion Energy =            218.8358300630102633
    One-Electron Energy =                -961.3944650196075372
    Two-Electron Energy =                 366.5914637526936986
    Total Energy =                       -375.9671712039036038
  Basis Set: (AUG-CC-PVTZ AUX)
    Blend: AUG-CC-PVTZ-RI
    Molecular point group: c1

    Geometry (in Angstrom), charge = -1, multiplicity = 1:

       Center              X                  Y                   Z               Mass
    ------------   -----------------  -----------------  -----------------  -----------------
         O            1.385232131282     1.042835421546     0.000131189710    15.994914619570
         O            1.298917131282    -1.210210578454     0.000074189710    15.994914619570
         O           -1.477249868718    -1.043706578454    -0.000077810290    15.994914619570
         O           -1.254335868718     1.231911421546    -0.000128810290    15.994914619570
         C            0.708406131282    -0.137189578454     0.000051189710    12.000000000000
         C           -0.842864868718     0.043029421546    -0.000066810290    12.000000000000
         H            2.353828431282     0.790566621546     0.000205689710     1.007825032230

  Basis Set: AUG-CC-PVTZ
    Blend: AUG-CC-PVTZ
  Basis Set: (AUG-CC-PVTZ AUX)
    Blend: AUG-CC-PVTZ-JKFIT
	 Reference Energy          =    -375.9671712039036038 [Eh]
	 Singles Energy            =      -0.0000000000000000 [Eh]
	 Same-Spin Energy          =      -0.3588870511185615 [Eh]
	 Opposite-Spin Energy      =      -1.0176213151978457 [Eh]
	 Correlation Energy        =      -1.3765083663164073 [Eh]
	 Total Energy              =    -377.3436795702199902 [Eh]

	 ================> DF-SCS-MP2 Energies <==================
	-----------------------------------------------------------
	 SCS Same-Spin Scale       =       0.3333333333333333 [-]
	 SCS Opposite-Spin Scale   =       1.2000000000000000 [-]
	 SCS Same-Spin Energy      =      -0.1196290170395205 [Eh]
	 SCS Opposite-Spin Energy  =      -1.2211455782374148 [Eh]
	 SCS Correlation Energy    =      -1.3407745952769352 [Eh]
	 SCS Total Energy          =    -377.3079457991805157 [Eh]
	-----------------------------------------------------------

  Dipole Moment: [D]
     X:     5.3814      Y:     0.9343      Z:     0.0004     Total:     5.4619

*** Psi4 exiting successfully. Buy a developer a beer!
