                               Psi4 1.3.2 release

  ==> Input File <==

--------------------------------------------------------------------------
#psi4
#
memory 32 gb

molecule  {
-1 1
  O        1.3719500     1.0365520     0.0001530
  O        1.2974920    -1.2070900     0.0002320
  O       -1.5132940    -1.0592330    -0.0003040
  O       -1.2763200     1.2290260    -0.0002110
  C        0.6716220    -0.1528200    -0.0001790
  C       -1.0934903     0.0563554     0.0003821
  H        2.3009280     0.7259580     0.0001900
units angstrom
no_reorient  #important for SAPT in psi4, default
symmetry c1  #important for SAPT in psi4, default
}

set PROPERTIES_ORIGIN ["COM"]
properties('MP2/aug-cc-pvtz', properties = ['dipole'])
--------------------------------------------------------------------------

    Molecular point group: c1
  Charge       = -1
  Multiplicity = 1
  Basis Set: AUG-CC-PVTZ
    Blend: AUG-CC-PVTZ
  Basis Set: (AUG-CC-PVTZ AUX)
    Blend: AUG-CC-PVTZ-JKFIT

    Orbital Energies [Eh]
    ---------------------

    Doubly Occupied:

       1A    -20.435675     2A    -20.371984     3A    -20.347831
       4A    -20.344652     5A    -11.192024     6A    -11.179342
       7A     -1.274917     8A     -1.242780     9A     -1.177161
      10A     -1.161343    11A     -0.671246    12A     -0.550730
      13A     -0.525104    14A     -0.500019    15A     -0.465634
      16A     -0.450059    17A     -0.432470    18A     -0.413792
      19A     -0.325946    20A     -0.305415    21A     -0.276022
      22A     -0.255930    23A     -0.182950

  @DF-RHF Final Energy:  -375.95253052044120

   => Energetics <=

    Nuclear Repulsion Energy =            217.6143684731017345
    One-Electron Energy =                -958.9677425287109145
    Two-Electron Energy =                 365.4008435351679509
    Total Energy =                       -375.9525305204412007
  Basis Set: (AUG-CC-PVTZ AUX)
    Blend: AUG-CC-PVTZ-RI
    Molecular point group: c1

    Geometry (in Angstrom), charge = -1, multiplicity = 1:

       Center              X                  Y                   Z               Mass
    ------------   -----------------  -----------------  -----------------  -----------------
         O            1.424380156016     1.041472385984     0.000146826684    15.994914619570
         O            1.349922156016    -1.202169614016     0.000225826684    15.994914619570
         O           -1.460863843984    -1.054312614016    -0.000310173316    15.994914619570
         O           -1.223889843984     1.233946385984    -0.000217173316    15.994914619570
         C            0.724052156016    -0.147899614016    -0.000185173316    12.000000000000
         C           -1.041060143984     0.061275785984     0.000375926684    12.000000000000
         H            2.353358156016     0.730878385984     0.000183826684     1.007825032230

  Basis Set: AUG-CC-PVTZ
    Blend: AUG-CC-PVTZ
  Basis Set: (AUG-CC-PVTZ AUX)
    Blend: AUG-CC-PVTZ-JKFIT
	 Reference Energy          =    -375.9525305204412007 [Eh]
	 Singles Energy            =      -0.0000000000000000 [Eh]
	 Same-Spin Energy          =      -0.3574405751675674 [Eh]
	 Opposite-Spin Energy      =      -1.0125405117276292 [Eh]
	 Correlation Energy        =      -1.3699810868951965 [Eh]
	 Total Energy              =    -377.3225116073364234 [Eh]

	 ================> DF-SCS-MP2 Energies <==================
	-----------------------------------------------------------
	 SCS Same-Spin Scale       =       0.3333333333333333 [-]
	 SCS Opposite-Spin Scale   =       1.2000000000000000 [-]
	 SCS Same-Spin Energy      =      -0.1191468583891891 [Eh]
	 SCS Opposite-Spin Energy  =      -1.2150486140731549 [Eh]
	 SCS Correlation Energy    =      -1.3341954724623439 [Eh]
	 SCS Total Energy          =    -377.2867259929035413 [Eh]
	-----------------------------------------------------------

  Dipole Moment: [D]
     X:     3.0464      Y:     0.9142      Z:     0.0008     Total:     3.1806

*** Psi4 exiting successfully. Buy a developer a beer!
