                               Psi4 1.4a3.dev225

  ==> Input File <==

--------------------------------------------------------------------------
#psi4
#
memory 32 gb

molecule  {
-1 1
  O        1.3597160     1.0340070     0.0001290
  O        1.2734010    -1.2190390     0.0000720
  O       -1.5027660    -1.0525350    -0.0000800
  O       -1.2798520     1.2230830    -0.0001310
  C        0.6729392    -0.1633668     0.0000478
  C       -0.8683810     0.0342010    -0.0000690
  H        2.3089580     0.7867790     0.0002020
units angstrom
no_reorient  #important for SAPT in psi4, default
symmetry c1  #important for SAPT in psi4, default
}

set PROPERTIES_ORIGIN ["COM"]
properties('MP2/aug-cc-pvtz', properties = ['dipole'])
--------------------------------------------------------------------------

    Molecular point group: c1
  Charge       = -1
  Multiplicity = 1
  Basis Set: AUG-CC-PVTZ
    Blend: AUG-CC-PVTZ
  Basis Set: (AUG-CC-PVTZ AUX)
    Blend: AUG-CC-PVTZ-JKFIT

    Orbital Energies [Eh]
    ---------------------

    Doubly Occupied:

       1A    -20.462432     2A    -20.404777     3A    -20.322409
       4A    -20.319472     5A    -11.229398     6A    -11.172285
       7A     -1.303766     8A     -1.203821     9A     -1.188502
      10A     -1.093180    11A     -0.741042    12A     -0.584170
      13A     -0.548933    14A     -0.493487    15A     -0.473551
      16A     -0.441271    17A     -0.417038    18A     -0.372332
      19A     -0.334237    20A     -0.331850    21A     -0.237345
      22A     -0.230572    23A     -0.212291

  @DF-RHF Final Energy:  -375.96889612714040

   => Energetics <=

    Nuclear Repulsion Energy =            218.9684291580636852
    One-Electron Energy =                -961.6383266041166280
    Two-Electron Energy =                 366.7010013189125175
    Total Energy =                       -375.9688961271403969
  Basis Set: (AUG-CC-PVTZ AUX)
    Blend: AUG-CC-PVTZ-RI
    Molecular point group: c1

    Geometry (in Angstrom), charge = -1, multiplicity = 1:

       Center              X                  Y                   Z               Mass
    ------------   -----------------  -----------------  -----------------  -----------------
         O            1.386793197430     1.045117825178     0.000131368518    15.994914619570
         O            1.300478197430    -1.207928174822     0.000074368518    15.994914619570
         O           -1.475688802570    -1.041424174822    -0.000077631482    15.994914619570
         O           -1.252774802570     1.234193825178    -0.000128631482    15.994914619570
         C            0.700016397430    -0.152255974822     0.000050168518    12.000000000000
         C           -0.841303802570     0.045311825178    -0.000066631482    12.000000000000
         H            2.336035197430     0.797889825178     0.000204368518     1.007825032230

  Basis Set: AUG-CC-PVTZ
    Blend: AUG-CC-PVTZ
  Basis Set: (AUG-CC-PVTZ AUX)
    Blend: AUG-CC-PVTZ-JKFIT
	 Reference Energy          =    -375.9688961271403969 [Eh]
	 Singles Energy            =      -0.0000000000000000 [Eh]
	 Same-Spin Energy          =      -0.3585817095298041 [Eh]
	 Opposite-Spin Energy      =      -1.0170820044527140 [Eh]
	 Correlation Energy        =      -1.3756637139825181 [Eh]
	 Total Energy              =    -377.3445598411229298 [Eh]

	 ================> DF-SCS-MP2 Energies <==================
	-----------------------------------------------------------
	 SCS Same-Spin Scale       =       0.3333333333333333 [-]
	 SCS Opposite-Spin Scale   =       1.2000000000000000 [-]
	 SCS Same-Spin Energy      =      -0.1195272365099347 [Eh]
	 SCS Opposite-Spin Energy  =      -1.2204984053432568 [Eh]
	 SCS Correlation Energy    =      -1.3400256418531915 [Eh]
	 SCS Total Energy          =    -377.3089217689935708 [Eh]
	-----------------------------------------------------------

  Dipole Moment: [D]
     X:     5.3030      Y:     0.7757      Z:     0.0004     Total:     5.3594

*** Psi4 exiting successfully. Buy a developer a beer!
