                               Psi4 1.3.2 release

  ==> Input File <==

--------------------------------------------------------------------------
#psi4
#
memory 32 gb

molecule  {
-1 1
  O        1.4130319     1.0113864     0.0001776
  O        1.2974920    -1.2070900     0.0002320
  O       -1.5132940    -1.0592330    -0.0003040
  O       -1.2763200     1.2290260    -0.0002110
  C        0.6716220    -0.1528200    -0.0001790
  C       -0.8948800     0.0328190     0.0003190
  H        2.3009280     0.7259580     0.0001900
units angstrom
no_reorient  #important for SAPT in psi4, default
symmetry c1  #important for SAPT in psi4, default
}

set PROPERTIES_ORIGIN ["COM"]
properties('MP2/aug-cc-pvtz', properties = ['dipole'])
--------------------------------------------------------------------------

    Molecular point group: c1
  Charge       = -1
  Multiplicity = 1
  Basis Set: AUG-CC-PVTZ
    Blend: AUG-CC-PVTZ
  Basis Set: (AUG-CC-PVTZ AUX)
    Blend: AUG-CC-PVTZ-JKFIT

    Orbital Energies [Eh]
    ---------------------

    Doubly Occupied:

       1A    -20.455151     2A    -20.400526     3A    -20.328189
       4A    -20.325984     5A    -11.229409     6A    -11.180571
       7A     -1.307937     8A     -1.200418     9A     -1.191577
      10A     -1.102334    11A     -0.739707    12A     -0.587750
      13A     -0.549122    14A     -0.494843    15A     -0.470661
      16A     -0.444538    17A     -0.423394    18A     -0.378352
      19A     -0.330711    20A     -0.326634    21A     -0.244919
      22A     -0.231904    23A     -0.219090

  @DF-RHF Final Energy:  -375.96954144730336

   => Energetics <=

    Nuclear Repulsion Energy =            218.1595660176478475
    One-Electron Energy =                -959.9307753974528623
    Two-Electron Energy =                 365.8016679325016298
    Total Energy =                       -375.9695414473033566
  Basis Set: (AUG-CC-PVTZ AUX)
    Blend: AUG-CC-PVTZ-RI
    Molecular point group: c1

    Geometry (in Angstrom), charge = -1, multiplicity = 1:

       Center              X                  Y                   Z               Mass
    ------------   -----------------  -----------------  -----------------  -----------------
         O            1.431295171382     1.024004030544     0.000175514058    15.994914619570
         O            1.315755271382    -1.194472369456     0.000229914058    15.994914619570
         O           -1.495030728618    -1.046615369456    -0.000306085942    15.994914619570
         O           -1.258056728618     1.241643630544    -0.000213085942    15.994914619570
         C            0.689885271382    -0.140202369456    -0.000181085942    12.000000000000
         C           -0.876616728618     0.045436630544     0.000316914058    12.000000000000
         H            2.319191271382     0.738575630544     0.000187914058     1.007825032230

  Basis Set: AUG-CC-PVTZ
    Blend: AUG-CC-PVTZ
  Basis Set: (AUG-CC-PVTZ AUX)
    Blend: AUG-CC-PVTZ-JKFIT
	 Reference Energy          =    -375.9695414473033566 [Eh]
	 Singles Energy            =      -0.0000000000000000 [Eh]
	 Same-Spin Energy          =      -0.3578769477210554 [Eh]
	 Opposite-Spin Energy      =      -1.0156074739468965 [Eh]
	 Correlation Energy        =      -1.3734844216679520 [Eh]
	 Total Energy              =    -377.3430258689713241 [Eh]

	 ================> DF-SCS-MP2 Energies <==================
	-----------------------------------------------------------
	 SCS Same-Spin Scale       =       0.3333333333333333 [-]
	 SCS Opposite-Spin Scale   =       1.2000000000000000 [-]
	 SCS Same-Spin Energy      =      -0.1192923159070185 [Eh]
	 SCS Opposite-Spin Energy  =      -1.2187289687362759 [Eh]
	 SCS Correlation Energy    =      -1.3380212846432944 [Eh]
	 SCS Total Energy          =    -377.3075627319466321 [Eh]
	-----------------------------------------------------------

  Dipole Moment: [D]
     X:     4.9795      Y:     0.7319      Z:     0.0006     Total:     5.0330

*** Psi4 exiting successfully. Buy a developer a beer!
