                               Psi4 1.3.2 release

  ==> Input File <==

--------------------------------------------------------------------------
#psi4
#
memory 32 gb

molecule  {
-1 1
  O        1.3719500     1.0365520     0.0001530
  O        1.2974920    -1.2070900     0.0002320
  O       -1.5132940    -1.0592330    -0.0003040
  O       -1.2763200     1.2290260    -0.0002110
  C        0.6716220    -0.1528200    -0.0001790
  C       -0.7955749     0.0210508     0.0002874
  H        2.3009280     0.7259580     0.0001900
units angstrom
no_reorient  #important for SAPT in psi4, default
symmetry c1  #important for SAPT in psi4, default
}

set PROPERTIES_ORIGIN ["COM"]
properties('MP2/aug-cc-pvtz', properties = ['dipole'])
--------------------------------------------------------------------------

    Molecular point group: c1
  Charge       = -1
  Multiplicity = 1
  Basis Set: AUG-CC-PVTZ
    Blend: AUG-CC-PVTZ
  Basis Set: (AUG-CC-PVTZ AUX)
    Blend: AUG-CC-PVTZ-JKFIT

    Orbital Energies [Eh]
    ---------------------

    Doubly Occupied:

       1A    -20.470031     2A    -20.413672     3A    -20.324919
       4A    -20.323173     5A    -11.242776     6A    -11.177998
       7A     -1.313163     8A     -1.206633     9A     -1.168770
      10A     -1.069343    11A     -0.772562    12A     -0.595150
      13A     -0.557763    14A     -0.493832    15A     -0.481824
      16A     -0.444644    17A     -0.403084    18A     -0.361631
      19A     -0.335601    20A     -0.331062    21A     -0.245963
      22A     -0.228873    23A     -0.203240

  @DF-RHF Final Energy:  -375.95041991958618

   => Energetics <=

    Nuclear Repulsion Energy =            218.3945760083974506
    One-Electron Energy =                -960.3585716176555707
    Two-Electron Energy =                 366.0135756896718817
    Total Energy =                       -375.9504199195861815
  Basis Set: (AUG-CC-PVTZ AUX)
    Blend: AUG-CC-PVTZ-RI
    Molecular point group: c1

    Geometry (in Angstrom), charge = -1, multiplicity = 1:

       Center              X                  Y                   Z               Mass
    ------------   -----------------  -----------------  -----------------  -----------------
         O            1.384206137615     1.046233226310     0.000159597019    15.994914619570
         O            1.309748137615    -1.197408773690     0.000238597019    15.994914619570
         O           -1.501037862385    -1.049551773690    -0.000297402981    15.994914619570
         O           -1.264063862385     1.238707226310    -0.000204402981    15.994914619570
         C            0.683878137615    -0.143138773690    -0.000172402981    12.000000000000
         C           -0.783318762385     0.030732026310     0.000293997019    12.000000000000
         H            2.313184137615     0.735639226310     0.000196597019     1.007825032230

  Basis Set: AUG-CC-PVTZ
    Blend: AUG-CC-PVTZ
  Basis Set: (AUG-CC-PVTZ AUX)
    Blend: AUG-CC-PVTZ-JKFIT
	 Reference Energy          =    -375.9504199195861815 [Eh]
	 Singles Energy            =      -0.0000000000000000 [Eh]
	 Same-Spin Energy          =      -0.3613183409224731 [Eh]
	 Opposite-Spin Energy      =      -1.0237251118674582 [Eh]
	 Correlation Energy        =      -1.3850434527899314 [Eh]
	 Total Energy              =    -377.3354633723761253 [Eh]

	 ================> DF-SCS-MP2 Energies <==================
	-----------------------------------------------------------
	 SCS Same-Spin Scale       =       0.3333333333333333 [-]
	 SCS Opposite-Spin Scale   =       1.2000000000000000 [-]
	 SCS Same-Spin Energy      =      -0.1204394469741577 [Eh]
	 SCS Opposite-Spin Energy  =      -1.2284701342409499 [Eh]
	 SCS Correlation Energy    =      -1.3489095812151075 [Eh]
	 SCS Total Energy          =    -377.2993295008012637 [Eh]
	-----------------------------------------------------------

  Dipole Moment: [D]
     X:     5.5652      Y:     0.6985      Z:     0.0005     Total:     5.6089

*** Psi4 exiting successfully. Buy a developer a beer!
