                               Psi4 1.3.2 release

  ==> Input File <==

--------------------------------------------------------------------------
#psi4
#
memory 32 gb

molecule  {
-1 1
  O        1.3719500     1.0365520     0.0001530
  O        1.2974920    -1.2070900     0.0002320
  O       -1.5132940    -1.0592330    -0.0003040
  O       -1.2763200     1.2290260    -0.0002110
  C        0.5701429    -0.3251627    -0.0002271
  C       -0.8948800     0.0328190     0.0003190
  H        2.3009280     0.7259580     0.0001900
units angstrom
no_reorient  #important for SAPT in psi4, default
symmetry c1  #important for SAPT in psi4, default
}

set PROPERTIES_ORIGIN ["COM"]
properties('MP2/aug-cc-pvtz', properties = ['dipole'])
--------------------------------------------------------------------------

    Molecular point group: c1
  Charge       = -1
  Multiplicity = 1
  Basis Set: AUG-CC-PVTZ
    Blend: AUG-CC-PVTZ
  Basis Set: (AUG-CC-PVTZ AUX)
    Blend: AUG-CC-PVTZ-JKFIT

    Orbital Energies [Eh]
    ---------------------

    Doubly Occupied:

       1A    -20.436220     2A    -20.400477     3A    -20.335456
       4A    -20.335422     5A    -11.237191     6A    -11.187490
       7A     -1.328788     8A     -1.208460     9A     -1.148561
      10A     -1.110972    11A     -0.743692    12A     -0.578911
      13A     -0.522674    14A     -0.501995    15A     -0.472066
      16A     -0.444173    17A     -0.428485    18A     -0.380132
      19A     -0.326613    20A     -0.321016    21A     -0.253252
      22A     -0.236262    23A     -0.225589

  @DF-RHF Final Energy:  -375.93350150051702

   => Energetics <=

    Nuclear Repulsion Energy =            218.3796797287520803
    One-Electron Energy =                -960.2985685324979386
    Two-Electron Energy =                 365.9853873032288334
    Total Energy =                       -375.9335015005170249
  Basis Set: (AUG-CC-PVTZ AUX)
    Blend: AUG-CC-PVTZ-RI
    Molecular point group: c1

    Geometry (in Angstrom), charge = -1, multiplicity = 1:

       Center              X                  Y                   Z               Mass
    ------------   -----------------  -----------------  -----------------  -----------------
         O            1.411281972383     1.067886765932     0.000161822051    15.994914619570
         O            1.336823972383    -1.175755234068     0.000240822051    15.994914619570
         O           -1.473962027617    -1.027898234068    -0.000295177949    15.994914619570
         O           -1.236988027617     1.260360765932    -0.000202177949    15.994914619570
         C            0.609474872383    -0.293827934068    -0.000218277949    12.000000000000
         C           -0.855548027617     0.064153765932     0.000327822051    12.000000000000
         H            2.340259972383     0.757292765932     0.000198822051     1.007825032230

  Basis Set: AUG-CC-PVTZ
    Blend: AUG-CC-PVTZ
  Basis Set: (AUG-CC-PVTZ AUX)
    Blend: AUG-CC-PVTZ-JKFIT
	 Reference Energy          =    -375.9335015005170249 [Eh]
	 Singles Energy            =      -0.0000000000000000 [Eh]
	 Same-Spin Energy          =      -0.3599848080283270 [Eh]
	 Opposite-Spin Energy      =      -1.0211037335328303 [Eh]
	 Correlation Energy        =      -1.3810885415611573 [Eh]
	 Total Energy              =    -377.3145900420781800 [Eh]

	 ================> DF-SCS-MP2 Energies <==================
	-----------------------------------------------------------
	 SCS Same-Spin Scale       =       0.3333333333333333 [-]
	 SCS Opposite-Spin Scale   =       1.2000000000000000 [-]
	 SCS Same-Spin Energy      =      -0.1199949360094423 [Eh]
	 SCS Opposite-Spin Energy  =      -1.2253244802393963 [Eh]
	 SCS Correlation Energy    =      -1.3453194162488387 [Eh]
	 SCS Total Energy          =    -377.2788209167658806 [Eh]
	-----------------------------------------------------------

  Dipole Moment: [D]
     X:     4.0946      Y:    -0.9237      Z:     0.0004     Total:     4.1974

*** Psi4 exiting successfully. Buy a developer a beer!
