                               Psi4 1.3.2 release

  ==> Input File <==

--------------------------------------------------------------------------
#psi4
#
memory 32 gb

molecule  {
-1 1
  O        1.3719500     1.0365520     0.0001530
  O        1.3339042    -1.1846052     0.0002037
  O       -1.5132940    -1.0592330    -0.0003040
  O       -1.2763200     1.2290260    -0.0002110
  C        0.6716220    -0.1528200    -0.0001790
  C       -0.8948800     0.0328190     0.0003190
  H        2.3009280     0.7259580     0.0001900
units angstrom
no_reorient  #important for SAPT in psi4, default
symmetry c1  #important for SAPT in psi4, default
}

set PROPERTIES_ORIGIN ["COM"]
properties('MP2/aug-cc-pvtz', properties = ['dipole'])
--------------------------------------------------------------------------

    Molecular point group: c1
  Charge       = -1
  Multiplicity = 1
  Basis Set: AUG-CC-PVTZ
    Blend: AUG-CC-PVTZ
  Basis Set: (AUG-CC-PVTZ AUX)
    Blend: AUG-CC-PVTZ-JKFIT

    Orbital Energies [Eh]
    ---------------------

    Doubly Occupied:

       1A    -20.458189     2A    -20.402105     3A    -20.328311
       4A    -20.326272     5A    -11.229575     6A    -11.180631
       7A     -1.302776     8A     -1.196617     9A     -1.191411
      10A     -1.102506    11A     -0.733540    12A     -0.577971
      13A     -0.546445    14A     -0.495729    15A     -0.469887
      16A     -0.443324    17A     -0.423708    18A     -0.377598
      19A     -0.332283    20A     -0.327148    21A     -0.244922
      22A     -0.231807    23A     -0.219265

  @DF-RHF Final Energy:  -375.96800070682781

   => Energetics <=

    Nuclear Repulsion Energy =            218.0789328415923194
    One-Electron Energy =                -959.8098273533164502
    Two-Electron Energy =                 365.7628938048963505
    Total Energy =                       -375.9680007068278087
  Basis Set: (AUG-CC-PVTZ AUX)
    Blend: AUG-CC-PVTZ-RI
    Molecular point group: c1

    Geometry (in Angstrom), charge = -1, multiplicity = 1:

       Center              X                  Y                   Z               Mass
    ------------   -----------------  -----------------  -----------------  -----------------
         O            1.391052619231     1.040604784686     0.000160422485    15.994914619570
         O            1.353006819231    -1.180552415314     0.000211122485    15.994914619570
         O           -1.494191380769    -1.055180215314    -0.000296577515    15.994914619570
         O           -1.257217380769     1.233078784686    -0.000203577515    15.994914619570
         C            0.690724619231    -0.148767215314    -0.000171577515    12.000000000000
         C           -0.875777380769     0.036871784686     0.000326422485    12.000000000000
         H            2.320030619231     0.730010784686     0.000197422485     1.007825032230

  Basis Set: AUG-CC-PVTZ
    Blend: AUG-CC-PVTZ
  Basis Set: (AUG-CC-PVTZ AUX)
    Blend: AUG-CC-PVTZ-JKFIT
	 Reference Energy          =    -375.9680007068278087 [Eh]
	 Singles Energy            =      -0.0000000000000000 [Eh]
	 Same-Spin Energy          =      -0.3587458914393902 [Eh]
	 Opposite-Spin Energy      =      -1.0173997852130126 [Eh]
	 Correlation Energy        =      -1.3761456766524027 [Eh]
	 Total Energy              =    -377.3441463834802221 [Eh]

	 ================> DF-SCS-MP2 Energies <==================
	-----------------------------------------------------------
	 SCS Same-Spin Scale       =       0.3333333333333333 [-]
	 SCS Opposite-Spin Scale   =       1.2000000000000000 [-]
	 SCS Same-Spin Energy      =      -0.1195819638131300 [Eh]
	 SCS Opposite-Spin Energy  =      -1.2208797422556150 [Eh]
	 SCS Correlation Energy    =      -1.3404617060687452 [Eh]
	 SCS Total Energy          =    -377.3084624128965743 [Eh]
	-----------------------------------------------------------

  Dipole Moment: [D]
     X:     4.9340      Y:     0.7365      Z:     0.0007     Total:     4.9887

*** Psi4 exiting successfully. Buy a developer a beer!
