                               Psi4 1.3.2 release

  ==> Input File <==

--------------------------------------------------------------------------
#psi4
#
memory 32 gb

molecule  {
-1 1
  O        1.3719500     1.0365520     0.0001530
  O        1.2974920    -1.2070900     0.0002320
  O       -1.5132940    -1.0592330    -0.0003040
  O       -1.2763200     1.2290260    -0.0002110
  C        0.5903616    -0.1010703    -0.0001770
  C       -0.8948800     0.0328190     0.0003190
  H        2.3009280     0.7259580     0.0001900
units angstrom
no_reorient  #important for SAPT in psi4, default
symmetry c1  #important for SAPT in psi4, default
}

set PROPERTIES_ORIGIN ["COM"]
properties('MP2/aug-cc-pvtz', properties = ['dipole'])
--------------------------------------------------------------------------

    Molecular point group: c1
  Charge       = -1
  Multiplicity = 1
  Basis Set: AUG-CC-PVTZ
    Blend: AUG-CC-PVTZ
  Basis Set: (AUG-CC-PVTZ AUX)
    Blend: AUG-CC-PVTZ-JKFIT

    Orbital Energies [Eh]
    ---------------------

    Doubly Occupied:

       1A    -20.467030     2A    -20.394886     3A    -20.332263
       4A    -20.329665     5A    -11.243964     6A    -11.179769
       7A     -1.291895     8A     -1.202946     9A     -1.152080
      10A     -1.106236    11A     -0.764451    12A     -0.595589
      13A     -0.538593    14A     -0.490216    15A     -0.465854
      16A     -0.440541    17A     -0.418614    18A     -0.382364
      19A     -0.315426    20A     -0.302947    21A     -0.250222
      22A     -0.243975    23A     -0.221344

  @DF-RHF Final Energy:  -375.94533919832162

   => Energetics <=

    Nuclear Repulsion Energy =            218.1314278109900613
    One-Electron Energy =                -959.8917951081365345
    Two-Electron Energy =                 365.8150280988248255
    Total Energy =                       -375.9453391983216193
  Basis Set: (AUG-CC-PVTZ AUX)
    Blend: AUG-CC-PVTZ-RI
    Molecular point group: c1

    Geometry (in Angstrom), charge = -1, multiplicity = 1:

       Center              X                  Y                   Z               Mass
    ------------   -----------------  -----------------  -----------------  -----------------
         O            1.408555472089     1.037667810479     0.000155066045    15.994914619570
         O            1.334097472089    -1.205974189521     0.000234066045    15.994914619570
         O           -1.476688527911    -1.058117189521    -0.000301933955    15.994914619570
         O           -1.239714527911     1.230141810479    -0.000208933955    15.994914619570
         C            0.626967072089    -0.099954489521    -0.000174933955    12.000000000000
         C           -0.858274527911     0.033934810479     0.000321066045    12.000000000000
         H            2.337533472089     0.727073810479     0.000192066045     1.007825032230

  Basis Set: AUG-CC-PVTZ
    Blend: AUG-CC-PVTZ
  Basis Set: (AUG-CC-PVTZ AUX)
    Blend: AUG-CC-PVTZ-JKFIT
	 Reference Energy          =    -375.9453391983216193 [Eh]
	 Singles Energy            =      -0.0000000000000000 [Eh]
	 Same-Spin Energy          =      -0.3611874541215263 [Eh]
	 Opposite-Spin Energy      =      -1.0230550928409214 [Eh]
	 Correlation Energy        =      -1.3842425469624478 [Eh]
	 Total Energy              =    -377.3295817452840879 [Eh]

	 ================> DF-SCS-MP2 Energies <==================
	-----------------------------------------------------------
	 SCS Same-Spin Scale       =       0.3333333333333333 [-]
	 SCS Opposite-Spin Scale   =       1.2000000000000000 [-]
	 SCS Same-Spin Energy      =      -0.1203958180405088 [Eh]
	 SCS Opposite-Spin Energy  =      -1.2276661114091056 [Eh]
	 SCS Correlation Energy    =      -1.3480619294496143 [Eh]
	 SCS Total Energy          =    -377.2934011277712330 [Eh]
	-----------------------------------------------------------

  Dipole Moment: [D]
     X:     4.7340      Y:     1.0847      Z:     0.0007     Total:     4.8567

*** Psi4 exiting successfully. Buy a developer a beer!
