                               Psi4 1.3.2 release

  ==> Input File <==

--------------------------------------------------------------------------
#psi4
#
memory 32 gb

molecule  {
-1 1
  O        1.2437903     1.1032407     0.0002162
  O        1.2974920    -1.2070900     0.0002320
  O       -1.5132940    -1.0592330    -0.0003040
  O       -1.2763200     1.2290260    -0.0002110
  C        0.6716220    -0.1528200    -0.0001790
  C       -0.8948800     0.0328190     0.0003190
  H        2.3009280     0.7259580     0.0001900
units angstrom
no_reorient  #important for SAPT in psi4, default
symmetry c1  #important for SAPT in psi4, default
}

set PROPERTIES_ORIGIN ["COM"]
properties('MP2/aug-cc-pvtz', properties = ['dipole'])
--------------------------------------------------------------------------

    Molecular point group: c1
  Charge       = -1
  Multiplicity = 1
  Basis Set: AUG-CC-PVTZ
    Blend: AUG-CC-PVTZ
  Basis Set: (AUG-CC-PVTZ AUX)
    Blend: AUG-CC-PVTZ-JKFIT

    Orbital Energies [Eh]
    ---------------------

    Doubly Occupied:

       1A    -20.478173     2A    -20.409236     3A    -20.322240
       4A    -20.320203     5A    -11.230660     6A    -11.171590
       7A     -1.290759     8A     -1.195590     9A     -1.188207
      10A     -1.096621    11A     -0.718235    12A     -0.567983
      13A     -0.531150    14A     -0.496128    15A     -0.471021
      16A     -0.431775    17A     -0.417761    18A     -0.371469
      19A     -0.339193    20A     -0.333528    21A     -0.238142
      22A     -0.224214    23A     -0.214243

  @DF-RHF Final Energy:  -375.93994550287209

   => Energetics <=

    Nuclear Repulsion Energy =            218.3778853354427270
    One-Electron Energy =                -960.5194202849345402
    Two-Electron Energy =                 366.2015894466197778
    Total Energy =                       -375.9399455028720922
  Basis Set: (AUG-CC-PVTZ AUX)
    Blend: AUG-CC-PVTZ-RI
    Molecular point group: c1

    Geometry (in Angstrom), charge = -1, multiplicity = 1:

       Center              X                  Y                   Z               Mass
    ------------   -----------------  -----------------  -----------------  -----------------
         O            1.292473635365     1.099348124524     0.000207175962    15.994914619570
         O            1.346175335365    -1.210982575476     0.000222975962    15.994914619570
         O           -1.464610664635    -1.063125575476    -0.000313024038    15.994914619570
         O           -1.227636664635     1.225133424524    -0.000220024038    15.994914619570
         C            0.720305335365    -0.156712575476    -0.000188024038    12.000000000000
         C           -0.846196664635     0.028926424524     0.000309975962    12.000000000000
         H            2.349611335365     0.722065424524     0.000180975962     1.007825032230

  Basis Set: AUG-CC-PVTZ
    Blend: AUG-CC-PVTZ
  Basis Set: (AUG-CC-PVTZ AUX)
    Blend: AUG-CC-PVTZ-JKFIT
	 Reference Energy          =    -375.9399455028720922 [Eh]
	 Singles Energy            =      -0.0000000000000000 [Eh]
	 Same-Spin Energy          =      -0.3619241472564716 [Eh]
	 Opposite-Spin Energy      =      -1.0244438469332278 [Eh]
	 Correlation Energy        =      -1.3863679941896994 [Eh]
	 Total Energy              =    -377.3263134970617898 [Eh]

	 ================> DF-SCS-MP2 Energies <==================
	-----------------------------------------------------------
	 SCS Same-Spin Scale       =       0.3333333333333333 [-]
	 SCS Opposite-Spin Scale   =       1.2000000000000000 [-]
	 SCS Same-Spin Energy      =      -0.1206413824188239 [Eh]
	 SCS Opposite-Spin Energy  =      -1.2293326163198732 [Eh]
	 SCS Correlation Energy    =      -1.3499739987386972 [Eh]
	 SCS Total Energy          =    -377.2899195016107683 [Eh]
	-----------------------------------------------------------

  Dipole Moment: [D]
     X:     5.1330      Y:     0.7958      Z:     0.0006     Total:     5.1943

*** Psi4 exiting successfully. Buy a developer a beer!
