                               Psi4 1.4a3.dev225

  ==> Input File <==

--------------------------------------------------------------------------
#psi4
#
memory 32 gb

molecule  {
0 1
  C        0.0000050    -0.0010510     1.5142370
  C       -1.2934580    -0.0636872     0.6410742
  C        1.2520490     0.0607460     0.6690880
  C       -1.4240560    -1.1040230    -0.2532470
  C        1.4240080     1.1043180    -0.2518010
  C       -2.2519720     0.9105530     0.7796940
  C        2.2520300    -0.9115710     0.7784920
  C       -2.5726140    -1.1747650    -1.0400080
  C        2.5725550     1.1761430    -1.0384820
  C       -3.4033600     0.8449620    -0.0099780
  C        3.4034060    -0.8448920    -0.0111060
  C       -3.5670250    -0.1989710    -0.9208610
  C        3.5670250     0.2002580    -0.9206030
  H       -0.0499850     0.8761900     2.1725100
  H        0.0500080    -0.8791980     2.1713010
  H       -0.6441500    -1.8566960    -0.3590190
  H        0.6440540     1.8570770    -0.3565980
  H       -2.1304810     1.7254050     1.4919990
  H        2.1305710    -1.7273750     1.4897110
  H       -2.6925720    -1.9901910    -1.7497850
  H        2.6924780     1.9925180    -1.7471720
  H       -4.1706330     1.6097110     0.0875230
  H        4.1707290    -1.6097160     0.0854040
  H       -4.4617180    -0.2525870    -1.5364500
  H        4.4617050     0.2547150    -1.5361360
units angstrom
no_reorient  #important for SAPT in psi4, default
symmetry c1  #important for SAPT in psi4, default
}

set PROPERTIES_ORIGIN ["COM"]
properties('MP2/aug-cc-pvtz', properties = ['dipole'])
--------------------------------------------------------------------------

    Molecular point group: c1
  Charge       = 0
  Multiplicity = 1
  Basis Set: AUG-CC-PVTZ
    Blend: AUG-CC-PVTZ
  Basis Set: (AUG-CC-PVTZ AUX)
    Blend: AUG-CC-PVTZ-JKFIT

    Orbital Energies [Eh]
    ---------------------

    Doubly Occupied:

       1A    -11.241937     2A    -11.239837     3A    -11.238493
       4A    -11.236530     5A    -11.236073     6A    -11.235801
       7A    -11.235313     8A    -11.232327     9A    -11.232259
      10A    -11.232025    11A    -11.230449    12A    -11.230281
      13A    -11.228645    14A     -1.162907    15A     -1.146907
      16A     -1.062012    17A     -1.015028    18A     -1.011313
      19A     -1.007663    20A     -0.923339    21A     -0.830662
      22A     -0.824284    23A     -0.812884    24A     -0.783880
      25A     -0.698595    26A     -0.688108    27A     -0.641539
      28A     -0.635470    29A     -0.632167    30A     -0.617609
      31A     -0.588514    32A     -0.583415    33A     -0.570426
      34A     -0.567994    35A     -0.543101    36A     -0.509332
      37A     -0.498817    38A     -0.496020    39A     -0.484047
      40A     -0.482684    41A     -0.468307    42A     -0.341152
      43A     -0.336433    44A     -0.334122    45A     -0.316331

  @DF-RHF Final Energy:  -499.44276258935599

   => Energetics <=

    Nuclear Repulsion Energy =            693.4046686256837120
    One-Electron Energy =               -2050.3647971441678237
    Two-Electron Energy =                 857.5173659291280046
    Total Energy =                       -499.4427625893559934
  Basis Set: (AUG-CC-PVTZ AUX)
    Blend: AUG-CC-PVTZ-RI
    Molecular point group: c1

    Geometry (in Angstrom), charge = 0, multiplicity = 1:

       Center              X                  Y                   Z               Mass
    ------------   -----------------  -----------------  -----------------  -----------------
         C            0.002960954689    -0.000908754801     1.517491446552    12.000000000000
         C           -1.290502045311    -0.063544954801     0.644328646552    12.000000000000
         C            1.255004954689     0.060888245199     0.672342446552    12.000000000000
         C           -1.421100045311    -1.103880754801    -0.249992553448    12.000000000000
         C            1.426963954689     1.104460245199    -0.248546553448    12.000000000000
         C           -2.249016045311     0.910695245199     0.782948446552    12.000000000000
         C            2.254985954689    -0.911428754801     0.781746446552    12.000000000000
         C           -2.569658045311    -1.174622754801    -1.036753553448    12.000000000000
         C            2.575510954689     1.176285245199    -1.035227553448    12.000000000000
         C           -3.400404045311     0.845104245199    -0.006723553448    12.000000000000
         C            3.406361954689    -0.844749754801    -0.007851553448    12.000000000000
         C           -3.564069045311    -0.198828754801    -0.917606553448    12.000000000000
         C            3.569980954689     0.200400245199    -0.917348553448    12.000000000000
         H           -0.047029045311     0.876332245199     2.175764446552     1.007825032230
         H            0.052963954689    -0.879055754801     2.174555446552     1.007825032230
         H           -0.641194045311    -1.856553754801    -0.355764553448     1.007825032230
         H            0.647009954689     1.857219245199    -0.353343553448     1.007825032230
         H           -2.127525045311     1.725547245199     1.495253446552     1.007825032230
         H            2.133526954689    -1.727232754801     1.492965446552     1.007825032230
         H           -2.689616045311    -1.990048754801    -1.746530553448     1.007825032230
         H            2.695433954689     1.992660245199    -1.743917553448     1.007825032230
         H           -4.167677045311     1.609853245199     0.090777446552     1.007825032230
         H            4.173684954689    -1.609573754801     0.088658446552     1.007825032230
         H           -4.458762045311    -0.252444754801    -1.533195553448     1.007825032230
         H            4.464660954689     0.254857245199    -1.532881553448     1.007825032230

  Basis Set: AUG-CC-PVTZ
    Blend: AUG-CC-PVTZ
  Basis Set: (AUG-CC-PVTZ AUX)
    Blend: AUG-CC-PVTZ-JKFIT
	 Reference Energy          =    -499.4427625893559934 [Eh]
	 Singles Energy            =      -0.0000000000000000 [Eh]
	 Same-Spin Energy          =      -0.5637697171336176 [Eh]
	 Opposite-Spin Energy      =      -1.7779628753376588 [Eh]
	 Correlation Energy        =      -2.3417325924712764 [Eh]
	 Total Energy              =    -501.7844951818272534 [Eh]

	 ================> DF-SCS-MP2 Energies <==================
	-----------------------------------------------------------
	 SCS Same-Spin Scale       =       0.3333333333333333 [-]
	 SCS Opposite-Spin Scale   =       1.2000000000000000 [-]
	 SCS Same-Spin Energy      =      -0.1879232390445392 [Eh]
	 SCS Opposite-Spin Energy  =      -2.1335554504051903 [Eh]
	 SCS Correlation Energy    =      -2.3214786894497297 [Eh]
	 SCS Total Energy          =    -501.7642412788057413 [Eh]
	-----------------------------------------------------------

  Dipole Moment: [D]
     X:    -0.0772      Y:     0.0015      Z:     0.0538     Total:     0.0941

*** Psi4 exiting successfully. Buy a developer a beer!
