                               Psi4 1.3.2 release

  ==> Input File <==

--------------------------------------------------------------------------
#psi4
#
memory 32 gb

molecule  {
0 1
  C        0.0000050    -0.0010510     1.5142370
  C       -1.3334298    -0.0657544     0.8046859
  C        1.2520490     0.0607460     0.6690880
  C       -1.4240560    -1.1040230    -0.2532470
  C        1.4240080     1.1043180    -0.2518010
  C       -2.2519720     0.9105530     0.7796940
  C        2.2520300    -0.9115710     0.7784920
  C       -2.5726140    -1.1747650    -1.0400080
  C        2.5725550     1.1761430    -1.0384820
  C       -3.4033600     0.8449620    -0.0099780
  C        3.4034060    -0.8448920    -0.0111060
  C       -3.5670250    -0.1989710    -0.9208610
  C        3.5670250     0.2002580    -0.9206030
  H       -0.0499850     0.8761900     2.1725100
  H        0.0500080    -0.8791980     2.1713010
  H       -0.6441500    -1.8566960    -0.3590190
  H        0.6440540     1.8570770    -0.3565980
  H       -2.1304810     1.7254050     1.4919990
  H        2.1305710    -1.7273750     1.4897110
  H       -2.6925720    -1.9901910    -1.7497850
  H        2.6924780     1.9925180    -1.7471720
  H       -4.1706330     1.6097110     0.0875230
  H        4.1707290    -1.6097160     0.0854040
  H       -4.4617180    -0.2525870    -1.5364500
  H        4.4617050     0.2547150    -1.5361360
units angstrom
no_reorient  #important for SAPT in psi4, default
symmetry c1  #important for SAPT in psi4, default
}

set PROPERTIES_ORIGIN ["COM"]
properties('MP2/aug-cc-pvtz', properties = ['dipole'])
--------------------------------------------------------------------------

    Molecular point group: c1
  Charge       = 0
  Multiplicity = 1
  Basis Set: AUG-CC-PVTZ
    Blend: AUG-CC-PVTZ
  Basis Set: (AUG-CC-PVTZ AUX)
    Blend: AUG-CC-PVTZ-JKFIT

    Orbital Energies [Eh]
    ---------------------

    Doubly Occupied:

       1A    -11.244856     2A    -11.243803     3A    -11.239442
       4A    -11.237663     5A    -11.237144     6A    -11.236435
       7A    -11.236047     8A    -11.234687     9A    -11.234419
      10A    -11.233683    11A    -11.233555    12A    -11.232000
      13A    -11.227524    14A     -1.160871    15A     -1.145343
      16A     -1.066171    17A     -1.018580    18A     -1.012255
      19A     -1.001539    20A     -0.926420    21A     -0.831165
      22A     -0.824160    23A     -0.811313    24A     -0.782698
      25A     -0.699589    26A     -0.687486    27A     -0.641743
      28A     -0.636694    29A     -0.634153    30A     -0.618506
      31A     -0.585391    32A     -0.583779    33A     -0.574385
      34A     -0.564796    35A     -0.544242    36A     -0.510811
      37A     -0.496572    38A     -0.495253    39A     -0.485608
      40A     -0.480694    41A     -0.466992    42A     -0.342996
      43A     -0.337118    44A     -0.333800    45A     -0.312548

  @DF-RHF Final Energy:  -499.43001924893616

   => Energetics <=

    Nuclear Repulsion Energy =            692.0878004607588991
    One-Electron Energy =               -2047.6657773377855847
    Two-Electron Energy =                 856.1479576280905803
    Total Energy =                       -499.4300192489361052
  Basis Set: (AUG-CC-PVTZ AUX)
    Blend: AUG-CC-PVTZ-RI
    Molecular point group: c1

    Geometry (in Angstrom), charge = 0, multiplicity = 1:

       Center              X                  Y                   Z               Mass
    ------------   -----------------  -----------------  -----------------  -----------------
         C            0.005814488332    -0.000761180142     1.505811424877    12.000000000000
         C           -1.327620311668    -0.065464580142     0.796260324877    12.000000000000
         C            1.257858488332     0.061035819858     0.660662424877    12.000000000000
         C           -1.418246511668    -1.103733180142    -0.261672575123    12.000000000000
         C            1.429817488332     1.104607819858    -0.260226575123    12.000000000000
         C           -2.246162511668     0.910842819858     0.771268424877    12.000000000000
         C            2.257839488332    -0.911281180142     0.770066424877    12.000000000000
         C           -2.566804511668    -1.174475180142    -1.048433575123    12.000000000000
         C            2.578364488332     1.176432819858    -1.046907575123    12.000000000000
         C           -3.397550511668     0.845251819858    -0.018403575123    12.000000000000
         C            3.409215488332    -0.844602180142    -0.019531575123    12.000000000000
         C           -3.561215511668    -0.198681180142    -0.929286575123    12.000000000000
         C            3.572834488332     0.200547819858    -0.929028575123    12.000000000000
         H           -0.044175511668     0.876479819858     2.164084424877     1.007825032230
         H            0.055817488332    -0.878908180142     2.162875424877     1.007825032230
         H           -0.638340511668    -1.856406180142    -0.367444575123     1.007825032230
         H            0.649863488332     1.857366819858    -0.365023575123     1.007825032230
         H           -2.124671511668     1.725694819858     1.483573424877     1.007825032230
         H            2.136380488332    -1.727085180142     1.481285424877     1.007825032230
         H           -2.686762511668    -1.989901180142    -1.758210575123     1.007825032230
         H            2.698287488332     1.992807819858    -1.755597575123     1.007825032230
         H           -4.164823511668     1.610000819858     0.079097424877     1.007825032230
         H            4.176538488332    -1.609426180142     0.076978424877     1.007825032230
         H           -4.455908511668    -0.252297180142    -1.544875575123     1.007825032230
         H            4.467514488332     0.255004819858    -1.544561575123     1.007825032230

  Basis Set: AUG-CC-PVTZ
    Blend: AUG-CC-PVTZ
  Basis Set: (AUG-CC-PVTZ AUX)
    Blend: AUG-CC-PVTZ-JKFIT
	 Reference Energy          =    -499.4300192489361621 [Eh]
	 Singles Energy            =      -0.0000000000000000 [Eh]
	 Same-Spin Energy          =      -0.5639186042783541 [Eh]
	 Opposite-Spin Energy      =      -1.7794313009535816 [Eh]
	 Correlation Energy        =      -2.3433499052319355 [Eh]
	 Total Energy              =    -501.7733691541681083 [Eh]

	 ================> DF-SCS-MP2 Energies <==================
	-----------------------------------------------------------
	 SCS Same-Spin Scale       =       0.3333333333333333 [-]
	 SCS Opposite-Spin Scale   =       1.2000000000000000 [-]
	 SCS Same-Spin Energy      =      -0.1879728680927847 [Eh]
	 SCS Opposite-Spin Energy  =      -2.1353175611442978 [Eh]
	 SCS Correlation Energy    =      -2.3232904292370824 [Eh]
	 SCS Total Energy          =    -501.7533096781732525 [Eh]
	-----------------------------------------------------------

  Dipole Moment: [D]
     X:     0.0579      Y:     0.0052      Z:    -0.0320     Total:     0.0663

*** Psi4 exiting successfully. Buy a developer a beer!
