                               Psi4 1.3.2 release

  ==> Input File <==

--------------------------------------------------------------------------
#psi4
#
memory 32 gb

molecule  {
0 1
  C       -0.0090351     0.0209615     1.5256376
  C       -1.2520500    -0.0616820     0.6690270
  C        1.2520490     0.0607460     0.6690880
  C       -1.4240560    -1.1040230    -0.2532470
  C        1.4240080     1.1043180    -0.2518010
  C       -2.2519720     0.9105530     0.7796940
  C        2.2520300    -0.9115710     0.7784920
  C       -2.5726140    -1.1747650    -1.0400080
  C        2.5725550     1.1761430    -1.0384820
  C       -3.4033600     0.8449620    -0.0099780
  C        3.4034060    -0.8448920    -0.0111060
  C       -3.5670250    -0.1989710    -0.9208610
  C        3.5670250     0.2002580    -0.9206030
  H       -0.0499850     0.8761900     2.1725100
  H        0.0500080    -0.8791980     2.1713010
  H       -0.6441500    -1.8566960    -0.3590190
  H        0.6440540     1.8570770    -0.3565980
  H       -2.1304810     1.7254050     1.4919990
  H        2.1305710    -1.7273750     1.4897110
  H       -2.6925720    -1.9901910    -1.7497850
  H        2.6924780     1.9925180    -1.7471720
  H       -4.1706330     1.6097110     0.0875230
  H        4.1707290    -1.6097160     0.0854040
  H       -4.4617180    -0.2525870    -1.5364500
  H        4.4617050     0.2547150    -1.5361360
units angstrom
no_reorient  #important for SAPT in psi4, default
symmetry c1  #important for SAPT in psi4, default
}

set PROPERTIES_ORIGIN ["COM"]
properties('MP2/aug-cc-pvtz', properties = ['dipole'])
--------------------------------------------------------------------------

    Molecular point group: c1
  Charge       = 0
  Multiplicity = 1
  Basis Set: AUG-CC-PVTZ
    Blend: AUG-CC-PVTZ
  Basis Set: (AUG-CC-PVTZ AUX)
    Blend: AUG-CC-PVTZ-JKFIT

    Orbital Energies [Eh]
    ---------------------

    Doubly Occupied:

       1A    -11.243294     2A    -11.242929     3A    -11.237550
       4A    -11.236330     5A    -11.236151     6A    -11.235917
       7A    -11.235632     8A    -11.233181     9A    -11.232580
      10A    -11.232573    11A    -11.232366    12A    -11.231200
      13A    -11.230710    14A     -1.161222    15A     -1.144745
      16A     -1.066141    17A     -1.012570    18A     -1.011077
      19A     -1.006423    20A     -0.926403    21A     -0.828976
      22A     -0.823409    23A     -0.813576    24A     -0.783716
      25A     -0.697862    26A     -0.688275    27A     -0.643398
      28A     -0.636849    29A     -0.633424    30A     -0.616054
      31A     -0.584536    32A     -0.583624    33A     -0.573262
      34A     -0.569869    35A     -0.546306    36A     -0.509003
      37A     -0.496620    38A     -0.495233    39A     -0.484089
      40A     -0.480536    41A     -0.474432    42A     -0.340585
      43A     -0.335356    44A     -0.333985    45A     -0.314416

  @DF-RHF Final Energy:  -499.44379290609299

   => Energetics <=

    Nuclear Repulsion Energy =            693.0821226958944408
    One-Electron Energy =               -2049.6990583299552782
    Two-Electron Energy =                 857.1731427279678428
    Total Energy =                       -499.4437929060929946
  Basis Set: (AUG-CC-PVTZ AUX)
    Blend: AUG-CC-PVTZ-RI
    Molecular point group: c1

    Geometry (in Angstrom), charge = 0, multiplicity = 1:

       Center              X                  Y                   Z               Mass
    ------------   -----------------  -----------------  -----------------  -----------------
         C           -0.008389846646     0.019389153537     1.526082659662    12.000000000000
         C           -1.251404746646    -0.063254346463     0.669472059662    12.000000000000
         C            1.252694253354     0.059173653537     0.669533059662    12.000000000000
         C           -1.423410746646    -1.105595346463    -0.252801940338    12.000000000000
         C            1.424653253354     1.102745653537    -0.251355940338    12.000000000000
         C           -2.251326746646     0.908980653537     0.780139059662    12.000000000000
         C            2.252675253354    -0.913143346463     0.778937059662    12.000000000000
         C           -2.571968746646    -1.176337346463    -1.039562940338    12.000000000000
         C            2.573200253354     1.174570653537    -1.038036940338    12.000000000000
         C           -3.402714746646     0.843389653537    -0.009532940338    12.000000000000
         C            3.404051253354    -0.846464346463    -0.010660940338    12.000000000000
         C           -3.566379746646    -0.200543346463    -0.920415940338    12.000000000000
         C            3.567670253354     0.198685653537    -0.920157940338    12.000000000000
         H           -0.049339746646     0.874617653537     2.172955059662     1.007825032230
         H            0.050653253354    -0.880770346463     2.171746059662     1.007825032230
         H           -0.643504746646    -1.858268346463    -0.358573940338     1.007825032230
         H            0.644699253354     1.855504653537    -0.356152940338     1.007825032230
         H           -2.129835746646     1.723832653537     1.492444059662     1.007825032230
         H            2.131216253354    -1.728947346463     1.490156059662     1.007825032230
         H           -2.691926746646    -1.991763346463    -1.749339940338     1.007825032230
         H            2.693123253354     1.990945653537    -1.746726940338     1.007825032230
         H           -4.169987746646     1.608138653537     0.087968059662     1.007825032230
         H            4.171374253354    -1.611288346463     0.085849059662     1.007825032230
         H           -4.461072746646    -0.254159346463    -1.536004940338     1.007825032230
         H            4.462350253354     0.253142653537    -1.535690940338     1.007825032230

  Basis Set: AUG-CC-PVTZ
    Blend: AUG-CC-PVTZ
  Basis Set: (AUG-CC-PVTZ AUX)
    Blend: AUG-CC-PVTZ-JKFIT
	 Reference Energy          =    -499.4437929060929946 [Eh]
	 Singles Energy            =      -0.0000000000000000 [Eh]
	 Same-Spin Energy          =      -0.5640421321606446 [Eh]
	 Opposite-Spin Energy      =      -1.7784820249639965 [Eh]
	 Correlation Energy        =      -2.3425241571246413 [Eh]
	 Total Energy              =    -501.7863170632176093 [Eh]

	 ================> DF-SCS-MP2 Energies <==================
	-----------------------------------------------------------
	 SCS Same-Spin Scale       =       0.3333333333333333 [-]
	 SCS Opposite-Spin Scale   =       1.2000000000000000 [-]
	 SCS Same-Spin Energy      =      -0.1880140440535482 [Eh]
	 SCS Opposite-Spin Energy  =      -2.1341784299567959 [Eh]
	 SCS Correlation Energy    =      -2.3221924740103441 [Eh]
	 SCS Total Energy          =    -501.7659853801033591 [Eh]
	-----------------------------------------------------------

  Dipole Moment: [D]
     X:     0.0105      Y:     0.0148      Z:     0.0795     Total:     0.0816

*** Psi4 exiting successfully. Buy a developer a beer!
