                               Psi4 1.3.2 release

  ==> Input File <==

--------------------------------------------------------------------------
#psi4
#
memory 32 gb

molecule  {
0 1
  C        0.0461481    -0.1332787     1.4405537
  C       -1.2520500    -0.0616820     0.6690270
  C        1.2520490     0.0607460     0.6690880
  C       -1.4240560    -1.1040230    -0.2532470
  C        1.4240080     1.1043180    -0.2518010
  C       -2.2519720     0.9105530     0.7796940
  C        2.2520300    -0.9115710     0.7784920
  C       -2.5726140    -1.1747650    -1.0400080
  C        2.5725550     1.1761430    -1.0384820
  C       -3.4033600     0.8449620    -0.0099780
  C        3.4034060    -0.8448920    -0.0111060
  C       -3.5670250    -0.1989710    -0.9208610
  C        3.5670250     0.2002580    -0.9206030
  H       -0.0499850     0.8761900     2.1725100
  H        0.0500080    -0.8791980     2.1713010
  H       -0.6441500    -1.8566960    -0.3590190
  H        0.6440540     1.8570770    -0.3565980
  H       -2.1304810     1.7254050     1.4919990
  H        2.1305710    -1.7273750     1.4897110
  H       -2.6925720    -1.9901910    -1.7497850
  H        2.6924780     1.9925180    -1.7471720
  H       -4.1706330     1.6097110     0.0875230
  H        4.1707290    -1.6097160     0.0854040
  H       -4.4617180    -0.2525870    -1.5364500
  H        4.4617050     0.2547150    -1.5361360
units angstrom
no_reorient  #important for SAPT in psi4, default
symmetry c1  #important for SAPT in psi4, default
}

set PROPERTIES_ORIGIN ["COM"]
properties('MP2/aug-cc-pvtz', properties = ['dipole'])
--------------------------------------------------------------------------

    Molecular point group: c1
  Charge       = 0
  Multiplicity = 1
  Basis Set: AUG-CC-PVTZ
    Blend: AUG-CC-PVTZ
  Basis Set: (AUG-CC-PVTZ AUX)
    Blend: AUG-CC-PVTZ-JKFIT

    Orbital Energies [Eh]
    ---------------------

    Doubly Occupied:

       1A    -11.243959     2A    -11.243183     3A    -11.241212
       4A    -11.237619     5A    -11.236993     6A    -11.236189
       7A    -11.235907     8A    -11.235402     9A    -11.233723
      10A    -11.232661    11A    -11.232414    12A    -11.231857
      13A    -11.230005    14A     -1.165608    15A     -1.146090
      16A     -1.072301    17A     -1.013800    18A     -1.011956
      19A     -1.009021    20A     -0.925693    21A     -0.830681
      22A     -0.824835    23A     -0.817402    24A     -0.781942
      25A     -0.700943    26A     -0.689011    27A     -0.648031
      28A     -0.640930    29A     -0.632847    30A     -0.617021
      31A     -0.587901    32A     -0.584605    33A     -0.582037
      34A     -0.571262    35A     -0.526909    36A     -0.511652
      37A     -0.498221    38A     -0.495346    39A     -0.489709
      40A     -0.478758    41A     -0.461001    42A     -0.340196
      43A     -0.335994    44A     -0.333383    45A     -0.313554

  @DF-RHF Final Energy:  -499.41974346963673

   => Energetics <=

    Nuclear Repulsion Energy =            694.4306047355355531
    One-Electron Energy =               -2052.2811624339728951
    Two-Electron Energy =                 858.4308142288006138
    Total Energy =                       -499.4197434696367282
  Basis Set: (AUG-CC-PVTZ AUX)
    Blend: AUG-CC-PVTZ-RI
    Molecular point group: c1

    Geometry (in Angstrom), charge = 0, multiplicity = 1:

       Center              X                  Y                   Z               Mass
    ------------   -----------------  -----------------  -----------------  -----------------
         C            0.042853898095    -0.123840043710     1.447072786130    12.000000000000
         C           -1.255344201905    -0.052243343710     0.675546086130    12.000000000000
         C            1.248754798095     0.070184656290     0.675607086130    12.000000000000
         C           -1.427350201905    -1.094584343710    -0.246727913870    12.000000000000
         C            1.420713798095     1.113756656290    -0.245281913870    12.000000000000
         C           -2.255266201905     0.919991656290     0.786213086130    12.000000000000
         C            2.248735798095    -0.902132343710     0.785011086130    12.000000000000
         C           -2.575908201905    -1.165326343710    -1.033488913870    12.000000000000
         C            2.569260798095     1.185581656290    -1.031962913870    12.000000000000
         C           -3.406654201905     0.854400656290    -0.003458913870    12.000000000000
         C            3.400111798095    -0.835453343710    -0.004586913870    12.000000000000
         C           -3.570319201905    -0.189532343710    -0.914341913870    12.000000000000
         C            3.563730798095     0.209696656290    -0.914083913870    12.000000000000
         H           -0.053279201905     0.885628656290     2.179029086130     1.007825032230
         H            0.046713798095    -0.869759343710     2.177820086130     1.007825032230
         H           -0.647444201905    -1.847257343710    -0.352499913870     1.007825032230
         H            0.640759798095     1.866515656290    -0.350078913870     1.007825032230
         H           -2.133775201905     1.734843656290     1.498518086130     1.007825032230
         H            2.127276798095    -1.717936343710     1.496230086130     1.007825032230
         H           -2.695866201905    -1.980752343710    -1.743265913870     1.007825032230
         H            2.689183798095     2.001956656290    -1.740652913870     1.007825032230
         H           -4.173927201905     1.619149656290     0.094042086130     1.007825032230
         H            4.167434798095    -1.600277343710     0.091923086130     1.007825032230
         H           -4.465012201905    -0.243148343710    -1.529930913870     1.007825032230
         H            4.458410798095     0.264153656290    -1.529616913870     1.007825032230

  Basis Set: AUG-CC-PVTZ
    Blend: AUG-CC-PVTZ
  Basis Set: (AUG-CC-PVTZ AUX)
    Blend: AUG-CC-PVTZ-JKFIT
	 Reference Energy          =    -499.4197434696367282 [Eh]
	 Singles Energy            =      -0.0000000000000000 [Eh]
	 Same-Spin Energy          =      -0.5654550863896242 [Eh]
	 Opposite-Spin Energy      =      -1.7808638244048152 [Eh]
	 Correlation Energy        =      -2.3463189107944391 [Eh]
	 Total Energy              =    -501.7660623804311513 [Eh]

	 ================> DF-SCS-MP2 Energies <==================
	-----------------------------------------------------------
	 SCS Same-Spin Scale       =       0.3333333333333333 [-]
	 SCS Opposite-Spin Scale   =       1.2000000000000000 [-]
	 SCS Same-Spin Energy      =      -0.1884850287965414 [Eh]
	 SCS Opposite-Spin Energy  =      -2.1370365892857781 [Eh]
	 SCS Correlation Energy    =      -2.3255216180823197 [Eh]
	 SCS Total Energy          =    -501.7452650877190763 [Eh]
	-----------------------------------------------------------

  Dipole Moment: [D]
     X:    -0.0741      Y:    -0.1053      Z:    -0.0193     Total:     0.1302

*** Psi4 exiting successfully. Buy a developer a beer!
