                               Psi4 1.3.2 release

  ==> Input File <==

--------------------------------------------------------------------------
#psi4
#
memory 32 gb

molecule  {
0 1
  C        0.0000050    -0.0010510     1.5142370
  C       -1.2807480    -0.0631156     0.7132892
  C        1.2520490     0.0607460     0.6690880
  C       -1.4240560    -1.1040230    -0.2532470
  C        1.4240080     1.1043180    -0.2518010
  C       -2.2519720     0.9105530     0.7796940
  C        2.2520300    -0.9115710     0.7784920
  C       -2.5726140    -1.1747650    -1.0400080
  C        2.5725550     1.1761430    -1.0384820
  C       -3.4033600     0.8449620    -0.0099780
  C        3.4034060    -0.8448920    -0.0111060
  C       -3.5670250    -0.1989710    -0.9208610
  C        3.5670250     0.2002580    -0.9206030
  H       -0.0499850     0.8761900     2.1725100
  H        0.0500080    -0.8791980     2.1713010
  H       -0.6441500    -1.8566960    -0.3590190
  H        0.6440540     1.8570770    -0.3565980
  H       -2.1304810     1.7254050     1.4919990
  H        2.1305710    -1.7273750     1.4897110
  H       -2.6925720    -1.9901910    -1.7497850
  H        2.6924780     1.9925180    -1.7471720
  H       -4.1706330     1.6097110     0.0875230
  H        4.1707290    -1.6097160     0.0854040
  H       -4.4617180    -0.2525870    -1.5364500
  H        4.4617050     0.2547150    -1.5361360
units angstrom
no_reorient  #important for SAPT in psi4, default
symmetry c1  #important for SAPT in psi4, default
}

set PROPERTIES_ORIGIN ["COM"]
properties('MP2/aug-cc-pvtz', properties = ['dipole'])
--------------------------------------------------------------------------

    Molecular point group: c1
  Charge       = 0
  Multiplicity = 1
  Basis Set: AUG-CC-PVTZ
    Blend: AUG-CC-PVTZ
  Basis Set: (AUG-CC-PVTZ AUX)
    Blend: AUG-CC-PVTZ-JKFIT

    Orbital Energies [Eh]
    ---------------------

    Doubly Occupied:

       1A    -11.243446     2A    -11.242880     3A    -11.237666
       4A    -11.236573     5A    -11.236219     6A    -11.236003
       7A    -11.235559     8A    -11.233505     9A    -11.233472
      10A    -11.232959    11A    -11.232740    12A    -11.231293
      13A    -11.230736    14A     -1.161440    15A     -1.145096
      16A     -1.066518    17A     -1.014323    18A     -1.011519
      19A     -1.005440    20A     -0.926132    21A     -0.829707
      22A     -0.823456    23A     -0.813581    24A     -0.783451
      25A     -0.698721    26A     -0.687741    27A     -0.642546
      28A     -0.636339    29A     -0.634710    30A     -0.617076
      31A     -0.584678    32A     -0.583209    33A     -0.573728
      34A     -0.569257    35A     -0.544364    36A     -0.509644
      37A     -0.495934    38A     -0.495820    39A     -0.481736
      40A     -0.479781    41A     -0.477811    42A     -0.338923
      43A     -0.337207    44A     -0.334662    45A     -0.314298

  @DF-RHF Final Energy:  -499.44295086737890

   => Energetics <=

    Nuclear Repulsion Energy =            692.9247047315748205
    One-Electron Energy =               -2049.3715064503580834
    Two-Electron Energy =                 857.0038508514044224
    Total Energy =                       -499.4429508673788405
  Basis Set: (AUG-CC-PVTZ AUX)
    Blend: AUG-CC-PVTZ-RI
    Molecular point group: c1

    Geometry (in Angstrom), charge = 0, multiplicity = 1:

       Center              X                  Y                   Z               Mass
    ------------   -----------------  -----------------  -----------------  -----------------
         C            0.002053604692    -0.000949560565     1.512336113741    12.000000000000
         C           -1.278699395308    -0.063014160565     0.711388313741    12.000000000000
         C            1.254097604692     0.060847439435     0.667187113741    12.000000000000
         C           -1.422007395308    -1.103921560565    -0.255147886259    12.000000000000
         C            1.426056604692     1.104419439435    -0.253701886259    12.000000000000
         C           -2.249923395308     0.910654439435     0.777793113741    12.000000000000
         C            2.254078604692    -0.911469560565     0.776591113741    12.000000000000
         C           -2.570565395308    -1.174663560565    -1.041908886259    12.000000000000
         C            2.574603604692     1.176244439435    -1.040382886259    12.000000000000
         C           -3.401311395308     0.845063439435    -0.011878886259    12.000000000000
         C            3.405454604692    -0.844790560565    -0.013006886259    12.000000000000
         C           -3.564976395308    -0.198869560565    -0.922761886259    12.000000000000
         C            3.569073604692     0.200359439435    -0.922503886259    12.000000000000
         H           -0.047936395308     0.876291439435     2.170609113741     1.007825032230
         H            0.052056604692    -0.879096560565     2.169400113741     1.007825032230
         H           -0.642101395308    -1.856594560565    -0.360919886259     1.007825032230
         H            0.646102604692     1.857178439435    -0.358498886259     1.007825032230
         H           -2.128432395308     1.725506439435     1.490098113741     1.007825032230
         H            2.132619604692    -1.727273560565     1.487810113741     1.007825032230
         H           -2.690523395308    -1.990089560565    -1.751685886259     1.007825032230
         H            2.694526604692     1.992619439435    -1.749072886259     1.007825032230
         H           -4.168584395308     1.609812439435     0.085622113741     1.007825032230
         H            4.172777604692    -1.609614560565     0.083503113741     1.007825032230
         H           -4.459669395308    -0.252485560565    -1.538350886259     1.007825032230
         H            4.463753604692     0.254816439435    -1.538036886259     1.007825032230

  Basis Set: AUG-CC-PVTZ
    Blend: AUG-CC-PVTZ
  Basis Set: (AUG-CC-PVTZ AUX)
    Blend: AUG-CC-PVTZ-JKFIT
	 Reference Energy          =    -499.4429508673788973 [Eh]
	 Singles Energy            =      -0.0000000000000000 [Eh]
	 Same-Spin Energy          =      -0.5640028569896012 [Eh]
	 Opposite-Spin Energy      =      -1.7785505900884027 [Eh]
	 Correlation Energy        =      -2.3425534470780036 [Eh]
	 Total Energy              =    -501.7855043144568867 [Eh]

	 ================> DF-SCS-MP2 Energies <==================
	-----------------------------------------------------------
	 SCS Same-Spin Scale       =       0.3333333333333333 [-]
	 SCS Opposite-Spin Scale   =       1.2000000000000000 [-]
	 SCS Same-Spin Energy      =      -0.1880009523298670 [Eh]
	 SCS Opposite-Spin Energy  =      -2.1342607081060829 [Eh]
	 SCS Correlation Energy    =      -2.3222616604359501 [Eh]
	 SCS Total Energy          =    -501.7652125278148674 [Eh]
	-----------------------------------------------------------

  Dipole Moment: [D]
     X:     0.0248      Y:     0.0011      Z:     0.0405     Total:     0.0475

*** Psi4 exiting successfully. Buy a developer a beer!
