                               Psi4 1.3.2 release

  ==> Input File <==

--------------------------------------------------------------------------
#psi4
#
memory 32 gb

molecule  {
0 1
  C        0.0169383    -0.0451246     1.4906670
  C       -1.2520500    -0.0616820     0.6690270
  C        1.2520490     0.0607460     0.6690880
  C       -1.4240560    -1.1040230    -0.2532470
  C        1.4240080     1.1043180    -0.2518010
  C       -2.2519720     0.9105530     0.7796940
  C        2.2520300    -0.9115710     0.7784920
  C       -2.5726140    -1.1747650    -1.0400080
  C        2.5725550     1.1761430    -1.0384820
  C       -3.4033600     0.8449620    -0.0099780
  C        3.4034060    -0.8448920    -0.0111060
  C       -3.5670250    -0.1989710    -0.9208610
  C        3.5670250     0.2002580    -0.9206030
  H       -0.0499850     0.8761900     2.1725100
  H        0.0500080    -0.8791980     2.1713010
  H       -0.6441500    -1.8566960    -0.3590190
  H        0.6440540     1.8570770    -0.3565980
  H       -2.1304810     1.7254050     1.4919990
  H        2.1305710    -1.7273750     1.4897110
  H       -2.6925720    -1.9901910    -1.7497850
  H        2.6924780     1.9925180    -1.7471720
  H       -4.1706330     1.6097110     0.0875230
  H        4.1707290    -1.6097160     0.0854040
  H       -4.4617180    -0.2525870    -1.5364500
  H        4.4617050     0.2547150    -1.5361360
units angstrom
no_reorient  #important for SAPT in psi4, default
symmetry c1  #important for SAPT in psi4, default
}

set PROPERTIES_ORIGIN ["COM"]
properties('MP2/aug-cc-pvtz', properties = ['dipole'])
--------------------------------------------------------------------------

    Molecular point group: c1
  Charge       = 0
  Multiplicity = 1
  Basis Set: AUG-CC-PVTZ
    Blend: AUG-CC-PVTZ
  Basis Set: (AUG-CC-PVTZ AUX)
    Blend: AUG-CC-PVTZ-JKFIT

    Orbital Energies [Eh]
    ---------------------

    Doubly Occupied:

       1A    -11.242821     2A    -11.242031     3A    -11.238800
       4A    -11.236653     5A    -11.236277     6A    -11.236088
       7A    -11.235569     8A    -11.233895     9A    -11.232918
      10A    -11.232669    11A    -11.232454    12A    -11.231403
      13A    -11.230489    14A     -1.162807    15A     -1.145198
      16A     -1.068496    17A     -1.012920    18A     -1.011301
      19A     -1.007519    20A     -0.925605    21A     -0.829495
      22A     -0.823826    23A     -0.815196    24A     -0.782414
      25A     -0.699048    26A     -0.687912    27A     -0.643352
      28A     -0.638121    29A     -0.634106    30A     -0.616313
      31A     -0.584687    32A     -0.583911    33A     -0.576387
      34A     -0.570582    35A     -0.538645    36A     -0.510002
      37A     -0.496916    38A     -0.495437    39A     -0.484927
      40A     -0.477920    41A     -0.476033    42A     -0.340321
      43A     -0.335542    44A     -0.333864    45A     -0.314619

  @DF-RHF Final Energy:  -499.44106228138264

   => Energetics <=

    Nuclear Repulsion Energy =            693.6693074741474447
    One-Electron Energy =               -2050.8497647257468088
    Two-Electron Energy =                 857.7393949702167220
    Total Energy =                       -499.4410622813826421
  Basis Set: (AUG-CC-PVTZ AUX)
    Blend: AUG-CC-PVTZ-RI
    Molecular point group: c1

    Geometry (in Angstrom), charge = 0, multiplicity = 1:

       Center              X                  Y                   Z               Mass
    ------------   -----------------  -----------------  -----------------  -----------------
         C            0.015729346870    -0.041979147672     1.493608564289    12.000000000000
         C           -1.253258953130    -0.058536547672     0.671968564289    12.000000000000
         C            1.250840046870     0.063891452328     0.672029564289    12.000000000000
         C           -1.425264953130    -1.100877547672    -0.250305435711    12.000000000000
         C            1.422799046870     1.107463452328    -0.248859435711    12.000000000000
         C           -2.253180953130     0.913698452328     0.782635564289    12.000000000000
         C            2.250821046870    -0.908425547672     0.781433564289    12.000000000000
         C           -2.573822953130    -1.171619547672    -1.037066435711    12.000000000000
         C            2.571346046870     1.179288452328    -1.035540435711    12.000000000000
         C           -3.404568953130     0.848107452328    -0.007036435711    12.000000000000
         C            3.402197046870    -0.841746547672    -0.008164435711    12.000000000000
         C           -3.568233953130    -0.195825547672    -0.917919435711    12.000000000000
         C            3.565816046870     0.203403452328    -0.917661435711    12.000000000000
         H           -0.051193953130     0.879335452328     2.175451564289     1.007825032230
         H            0.048799046870    -0.876052547672     2.174242564289     1.007825032230
         H           -0.645358953130    -1.853550547672    -0.356077435711     1.007825032230
         H            0.642845046870     1.860222452328    -0.353656435711     1.007825032230
         H           -2.131689953130     1.728550452328     1.494940564289     1.007825032230
         H            2.129362046870    -1.724229547672     1.492652564289     1.007825032230
         H           -2.693780953130    -1.987045547672    -1.746843435711     1.007825032230
         H            2.691269046870     1.995663452328    -1.744230435711     1.007825032230
         H           -4.171841953130     1.612856452328     0.090464564289     1.007825032230
         H            4.169520046870    -1.606570547672     0.088345564289     1.007825032230
         H           -4.462926953130    -0.249441547672    -1.533508435711     1.007825032230
         H            4.460496046870     0.257860452328    -1.533194435711     1.007825032230

  Basis Set: AUG-CC-PVTZ
    Blend: AUG-CC-PVTZ
  Basis Set: (AUG-CC-PVTZ AUX)
    Blend: AUG-CC-PVTZ-JKFIT
	 Reference Energy          =    -499.4410622813826421 [Eh]
	 Singles Energy            =      -0.0000000000000000 [Eh]
	 Same-Spin Energy          =      -0.5644254940965219 [Eh]
	 Opposite-Spin Energy      =      -1.7789799404102782 [Eh]
	 Correlation Energy        =      -2.3434054345068001 [Eh]
	 Total Energy              =    -501.7844677158894342 [Eh]

	 ================> DF-SCS-MP2 Energies <==================
	-----------------------------------------------------------
	 SCS Same-Spin Scale       =       0.3333333333333333 [-]
	 SCS Opposite-Spin Scale   =       1.2000000000000000 [-]
	 SCS Same-Spin Energy      =      -0.1881418313655073 [Eh]
	 SCS Opposite-Spin Energy  =      -2.1347759284923336 [Eh]
	 SCS Correlation Energy    =      -2.3229177598578410 [Eh]
	 SCS Total Energy          =    -501.7639800412404725 [Eh]
	-----------------------------------------------------------

  Dipole Moment: [D]
     X:    -0.0228      Y:    -0.0322      Z:     0.0496     Total:     0.0634

*** Psi4 exiting successfully. Buy a developer a beer!
