                               Psi4 1.3.2 release

  ==> Input File <==

--------------------------------------------------------------------------
#psi4
#
memory 32 gb

molecule  {
0 1
  C        0.0000050    -0.0010510     1.5142370
  C       -1.3078857    -0.0644736     0.7585271
  C        1.2520490     0.0607460     0.6690880
  C       -1.4240560    -1.1040230    -0.2532470
  C        1.4240080     1.1043180    -0.2518010
  C       -2.2519720     0.9105530     0.7796940
  C        2.2520300    -0.9115710     0.7784920
  C       -2.5726140    -1.1747650    -1.0400080
  C        2.5725550     1.1761430    -1.0384820
  C       -3.4033600     0.8449620    -0.0099780
  C        3.4034060    -0.8448920    -0.0111060
  C       -3.5670250    -0.1989710    -0.9208610
  C        3.5670250     0.2002580    -0.9206030
  H       -0.0499850     0.8761900     2.1725100
  H        0.0500080    -0.8791980     2.1713010
  H       -0.6441500    -1.8566960    -0.3590190
  H        0.6440540     1.8570770    -0.3565980
  H       -2.1304810     1.7254050     1.4919990
  H        2.1305710    -1.7273750     1.4897110
  H       -2.6925720    -1.9901910    -1.7497850
  H        2.6924780     1.9925180    -1.7471720
  H       -4.1706330     1.6097110     0.0875230
  H        4.1707290    -1.6097160     0.0854040
  H       -4.4617180    -0.2525870    -1.5364500
  H        4.4617050     0.2547150    -1.5361360
units angstrom
no_reorient  #important for SAPT in psi4, default
symmetry c1  #important for SAPT in psi4, default
}

set PROPERTIES_ORIGIN ["COM"]
properties('MP2/aug-cc-pvtz', properties = ['dipole'])
--------------------------------------------------------------------------

    Molecular point group: c1
  Charge       = 0
  Multiplicity = 1
  Basis Set: AUG-CC-PVTZ
    Blend: AUG-CC-PVTZ
  Basis Set: (AUG-CC-PVTZ AUX)
    Blend: AUG-CC-PVTZ-JKFIT

    Orbital Energies [Eh]
    ---------------------

    Doubly Occupied:

       1A    -11.244134     2A    -11.243209     3A    -11.237627
       4A    -11.236860     5A    -11.236696     6A    -11.236219
       7A    -11.236127     8A    -11.234801     9A    -11.233958
      10A    -11.233333    11A    -11.233129    12A    -11.231651
      13A    -11.228894    14A     -1.161165    15A     -1.145256
      16A     -1.066288    17A     -1.016434    18A     -1.011917
      19A     -1.003532    20A     -0.926266    21A     -0.830401
      22A     -0.823729    23A     -0.812548    24A     -0.783309
      25A     -0.699174    26A     -0.687561    27A     -0.642158
      28A     -0.636001    29A     -0.634975    30A     -0.617873
      31A     -0.585004    32A     -0.583292    33A     -0.574218
      34A     -0.567142    35A     -0.544311    36A     -0.510151
      37A     -0.496225    38A     -0.495498    39A     -0.483112
      40A     -0.481048    41A     -0.473009    42A     -0.340268
      43A     -0.337507    44A     -0.334415    45A     -0.313594

  @DF-RHF Final Energy:  -499.43810875935185

   => Energetics <=

    Nuclear Repulsion Energy =            692.5281179994285594
    One-Electron Energy =               -2048.5644142264227412
    Two-Electron Energy =                 856.5981874676423331
    Total Energy =                       -499.4381087593518487
  Basis Set: (AUG-CC-PVTZ AUX)
    Blend: AUG-CC-PVTZ-RI
    Molecular point group: c1

    Geometry (in Angstrom), charge = 0, multiplicity = 1:

       Center              X                  Y                   Z               Mass
    ------------   -----------------  -----------------  -----------------  -----------------
         C            0.003990929005    -0.000852614751     1.509106640222    12.000000000000
         C           -1.303899770995    -0.064275214751     0.753396740222    12.000000000000
         C            1.256034929005     0.060944385249     0.663957640222    12.000000000000
         C           -1.420070070995    -1.103824614751    -0.258377359778    12.000000000000
         C            1.427993929005     1.104516385249    -0.256931359778    12.000000000000
         C           -2.247986070995     0.910751385249     0.774563640222    12.000000000000
         C            2.256015929005    -0.911372614751     0.773361640222    12.000000000000
         C           -2.568628070995    -1.174566614751    -1.045138359778    12.000000000000
         C            2.576540929005     1.176341385249    -1.043612359778    12.000000000000
         C           -3.399374070995     0.845160385249    -0.015108359778    12.000000000000
         C            3.407391929005    -0.844693614751    -0.016236359778    12.000000000000
         C           -3.563039070995    -0.198772614751    -0.925991359778    12.000000000000
         C            3.571010929005     0.200456385249    -0.925733359778    12.000000000000
         H           -0.045999070995     0.876388385249     2.167379640222     1.007825032230
         H            0.053993929005    -0.878999614751     2.166170640222     1.007825032230
         H           -0.640164070995    -1.856497614751    -0.364149359778     1.007825032230
         H            0.648039929005     1.857275385249    -0.361728359778     1.007825032230
         H           -2.126495070995     1.725603385249     1.486868640222     1.007825032230
         H            2.134556929005    -1.727176614751     1.484580640222     1.007825032230
         H           -2.688586070995    -1.989992614751    -1.754915359778     1.007825032230
         H            2.696463929005     1.992716385249    -1.752302359778     1.007825032230
         H           -4.166647070995     1.609909385249     0.082392640222     1.007825032230
         H            4.174714929005    -1.609517614751     0.080273640222     1.007825032230
         H           -4.457732070995    -0.252388614751    -1.541580359778     1.007825032230
         H            4.465690929005     0.254913385249    -1.541266359778     1.007825032230

  Basis Set: AUG-CC-PVTZ
    Blend: AUG-CC-PVTZ
  Basis Set: (AUG-CC-PVTZ AUX)
    Blend: AUG-CC-PVTZ-JKFIT
	 Reference Energy          =    -499.4381087593518487 [Eh]
	 Singles Energy            =      -0.0000000000000000 [Eh]
	 Same-Spin Energy          =      -0.5639287592768801 [Eh]
	 Opposite-Spin Energy      =      -1.7788443905960070 [Eh]
	 Correlation Energy        =      -2.3427731498728872 [Eh]
	 Total Energy              =    -501.7808819092247177 [Eh]

	 ================> DF-SCS-MP2 Energies <==================
	-----------------------------------------------------------
	 SCS Same-Spin Scale       =       0.3333333333333333 [-]
	 SCS Opposite-Spin Scale   =       1.2000000000000000 [-]
	 SCS Same-Spin Energy      =      -0.1879762530922934 [Eh]
	 SCS Opposite-Spin Energy  =      -2.1346132687152082 [Eh]
	 SCS Correlation Energy    =      -2.3225895218075014 [Eh]
	 SCS Total Energy          =    -501.7606982811593639 [Eh]
	-----------------------------------------------------------

  Dipole Moment: [D]
     X:     0.0444      Y:     0.0027      Z:     0.0057     Total:     0.0448

*** Psi4 exiting successfully. Buy a developer a beer!
