                               Psi4 1.4a3.dev225

  ==> Input File <==

--------------------------------------------------------------------------
#psi4
#
memory 32 gb

molecule  {
0 1
  C        0.0000050    -0.0010510     1.5142370
  C       -1.2354868    -0.0608799     0.6802081
  C        1.2520490     0.0607460     0.6690880
  C       -1.4240560    -1.1040230    -0.2532470
  C        1.4240080     1.1043180    -0.2518010
  C       -2.2519720     0.9105530     0.7796940
  C        2.2520300    -0.9115710     0.7784920
  C       -2.5726140    -1.1747650    -1.0400080
  C        2.5725550     1.1761430    -1.0384820
  C       -3.4033600     0.8449620    -0.0099780
  C        3.4034060    -0.8448920    -0.0111060
  C       -3.5670250    -0.1989710    -0.9208610
  C        3.5670250     0.2002580    -0.9206030
  H       -0.0499850     0.8761900     2.1725100
  H        0.0500080    -0.8791980     2.1713010
  H       -0.6441500    -1.8566960    -0.3590190
  H        0.6440540     1.8570770    -0.3565980
  H       -2.1304810     1.7254050     1.4919990
  H        2.1305710    -1.7273750     1.4897110
  H       -2.6925720    -1.9901910    -1.7497850
  H        2.6924780     1.9925180    -1.7471720
  H       -4.1706330     1.6097110     0.0875230
  H        4.1707290    -1.6097160     0.0854040
  H       -4.4617180    -0.2525870    -1.5364500
  H        4.4617050     0.2547150    -1.5361360
units angstrom
no_reorient  #important for SAPT in psi4, default
symmetry c1  #important for SAPT in psi4, default
}

set PROPERTIES_ORIGIN ["COM"]
properties('MP2/aug-cc-pvtz', properties = ['dipole'])
--------------------------------------------------------------------------

    Molecular point group: c1
  Charge       = 0
  Multiplicity = 1
  Basis Set: AUG-CC-PVTZ
    Blend: AUG-CC-PVTZ
  Basis Set: (AUG-CC-PVTZ AUX)
    Blend: AUG-CC-PVTZ-JKFIT

    Orbital Energies [Eh]
    ---------------------

    Doubly Occupied:

       1A    -11.244116     2A    -11.243171     3A    -11.237355
       4A    -11.236483     5A    -11.236249     6A    -11.235984
       7A    -11.235720     8A    -11.233962     9A    -11.233230
      10A    -11.232783    11A    -11.232714    12A    -11.231882
      13A    -11.231195    14A     -1.161642    15A     -1.143892
      16A     -1.069010    17A     -1.012466    18A     -1.010475
      19A     -1.006410    20A     -0.927036    21A     -0.828895
      22A     -0.822890    23A     -0.814565    24A     -0.782811
      25A     -0.698233    26A     -0.687902    27A     -0.643568
      28A     -0.637980    29A     -0.634810    30A     -0.615617
      31A     -0.584368    32A     -0.582377    33A     -0.574130
      34A     -0.571865    35A     -0.544907    36A     -0.509617
      37A     -0.496572    38A     -0.494987    39A     -0.483116
      40A     -0.480777    41A     -0.475838    42A     -0.340305
      43A     -0.335356    44A     -0.333613    45A     -0.313585

  @DF-RHF Final Energy:  -499.44328074892360

   => Energetics <=

    Nuclear Repulsion Energy =            693.2376412199914739
    One-Electron Energy =               -2049.9929279691468764
    Two-Electron Energy =                 857.3120060002318041
    Total Energy =                       -499.4432807489235984
  Basis Set: (AUG-CC-PVTZ AUX)
    Blend: AUG-CC-PVTZ-RI
    Molecular point group: c1

    Geometry (in Angstrom), charge = 0, multiplicity = 1:

       Center              X                  Y                   Z               Mass
    ------------   -----------------  -----------------  -----------------  -----------------
         C           -0.001177532183    -0.001109164215     1.514697729475    12.000000000000
         C           -1.236669332183    -0.060938064215     0.680668829475    12.000000000000
         C            1.250866467817     0.060687835785     0.669548729475    12.000000000000
         C           -1.425238532183    -1.104081164215    -0.252786270525    12.000000000000
         C            1.422825467817     1.104259835785    -0.251340270525    12.000000000000
         C           -2.253154532183     0.910494835785     0.780154729475    12.000000000000
         C            2.250847467817    -0.911629164215     0.778952729475    12.000000000000
         C           -2.573796532183    -1.174823164215    -1.039547270525    12.000000000000
         C            2.571372467817     1.176084835785    -1.038021270525    12.000000000000
         C           -3.404542532183     0.844903835785    -0.009517270525    12.000000000000
         C            3.402223467817    -0.844950164215    -0.010645270525    12.000000000000
         C           -3.568207532183    -0.199029164215    -0.920400270525    12.000000000000
         C            3.565842467817     0.200199835785    -0.920142270525    12.000000000000
         H           -0.051167532183     0.876131835785     2.172970729475     1.007825032230
         H            0.048825467817    -0.879256164215     2.171761729475     1.007825032230
         H           -0.645332532183    -1.856754164215    -0.358558270525     1.007825032230
         H            0.642871467817     1.857018835785    -0.356137270525     1.007825032230
         H           -2.131663532183     1.725346835785     1.492459729475     1.007825032230
         H            2.129388467817    -1.727433164215     1.490171729475     1.007825032230
         H           -2.693754532183    -1.990249164215    -1.749324270525     1.007825032230
         H            2.691295467817     1.992459835785    -1.746711270525     1.007825032230
         H           -4.171815532183     1.609652835785     0.087983729475     1.007825032230
         H            4.169546467817    -1.609774164215     0.085864729475     1.007825032230
         H           -4.462900532183    -0.252645164215    -1.535989270525     1.007825032230
         H            4.460522467817     0.254656835785    -1.535675270525     1.007825032230

  Basis Set: AUG-CC-PVTZ
    Blend: AUG-CC-PVTZ
  Basis Set: (AUG-CC-PVTZ AUX)
    Blend: AUG-CC-PVTZ-JKFIT
	 Reference Energy          =    -499.4432807489235984 [Eh]
	 Singles Energy            =      -0.0000000000000000 [Eh]
	 Same-Spin Energy          =      -0.5643588724158830 [Eh]
	 Opposite-Spin Energy      =      -1.7789293575083973 [Eh]
	 Correlation Energy        =      -2.3432882299242803 [Eh]
	 Total Energy              =    -501.7865689788478676 [Eh]

	 ================> DF-SCS-MP2 Energies <==================
	-----------------------------------------------------------
	 SCS Same-Spin Scale       =       0.3333333333333333 [-]
	 SCS Opposite-Spin Scale   =       1.2000000000000000 [-]
	 SCS Same-Spin Energy      =      -0.1881196241386277 [Eh]
	 SCS Opposite-Spin Energy  =      -2.1347152290100766 [Eh]
	 SCS Correlation Energy    =      -2.3228348531487044 [Eh]
	 SCS Total Energy          =    -501.7661156020723183 [Eh]
	-----------------------------------------------------------

  Dipole Moment: [D]
     X:     0.0314      Y:    -0.0009      Z:     0.0789     Total:     0.0850

*** Psi4 exiting successfully. Buy a developer a beer!
