                               Psi4 1.3.2 release

  ==> Input File <==

--------------------------------------------------------------------------
#psi4
#
memory 32 gb

molecule  {
0 1
  C        0.0000050    -0.0010510     1.5142370
  C       -1.2520500    -0.0616820     0.6690270
  C        1.2520490     0.0607460     0.6690880
  C       -1.4240560    -1.1040230    -0.2532470
  C        1.4240080     1.1043180    -0.2518010
  C       -2.2519720     0.9105530     0.7796940
  C        2.2520300    -0.9115710     0.7784920
  C       -2.5726140    -1.1747650    -1.0400080
  C        2.5725550     1.1761430    -1.0384820
  C       -3.4033600     0.8449620    -0.0099780
  C        3.4034060    -0.8448920    -0.0111060
  C       -3.5670250    -0.1989710    -0.9208610
  C        3.5670250     0.2002580    -0.9206030
  H       -0.0499850     0.8761900     2.1725100
  H        0.0454536    -0.7992135     2.1114534
  H       -0.6441500    -1.8566960    -0.3590190
  H        0.6440540     1.8570770    -0.3565980
  H       -2.1304810     1.7254050     1.4919990
  H        2.1305710    -1.7273750     1.4897110
  H       -2.6925720    -1.9901910    -1.7497850
  H        2.6924780     1.9925180    -1.7471720
  H       -4.1706330     1.6097110     0.0875230
  H        4.1707290    -1.6097160     0.0854040
  H       -4.4617180    -0.2525870    -1.5364500
  H        4.4617050     0.2547150    -1.5361360
units angstrom
no_reorient  #important for SAPT in psi4, default
symmetry c1  #important for SAPT in psi4, default
}

set PROPERTIES_ORIGIN ["COM"]
properties('MP2/aug-cc-pvtz', properties = ['dipole'])
--------------------------------------------------------------------------

    Molecular point group: c1
  Charge       = 0
  Multiplicity = 1
  Basis Set: AUG-CC-PVTZ
    Blend: AUG-CC-PVTZ
  Basis Set: (AUG-CC-PVTZ AUX)
    Blend: AUG-CC-PVTZ-JKFIT

    Orbital Energies [Eh]
    ---------------------

    Doubly Occupied:

       1A    -11.242264     2A    -11.242141     3A    -11.236265
       4A    -11.236080     5A    -11.235668     6A    -11.235539
       7A    -11.232977     8A    -11.232581     9A    -11.232390
      10A    -11.232318    11A    -11.230790    12A    -11.230384
      13A    -11.225611    14A     -1.162229    15A     -1.144645
      16A     -1.069737    17A     -1.012501    18A     -1.010966
      19A     -1.006494    20A     -0.932190    21A     -0.829257
      22A     -0.823564    23A     -0.813844    24A     -0.786392
      25A     -0.698006    26A     -0.690154    27A     -0.647025
      28A     -0.637920    29A     -0.634028    30A     -0.616038
      31A     -0.584523    32A     -0.583645    33A     -0.575262
      34A     -0.572044    35A     -0.551262    36A     -0.509001
      37A     -0.496666    38A     -0.495384    39A     -0.483741
      40A     -0.481715    41A     -0.475444    42A     -0.340453
      43A     -0.335261    44A     -0.333907    45A     -0.314545

  @DF-RHF Final Energy:  -499.43899526690257

   => Energetics <=

    Nuclear Repulsion Energy =            693.8264134973460386
    One-Electron Energy =               -2051.1451206624906263
    Two-Electron Energy =                 857.8797118982420216
    Total Energy =                       -499.4389952669025661
  Basis Set: (AUG-CC-PVTZ AUX)
    Blend: AUG-CC-PVTZ-RI
    Molecular point group: c1

    Geometry (in Angstrom), charge = 0, multiplicity = 1:

       Center              X                  Y                   Z               Mass
    ------------   -----------------  -----------------  -----------------  -----------------
         C            0.000032199032    -0.001531459022     1.515854756048    12.000000000000
         C           -1.252022800968    -0.062162459022     0.670644756048    12.000000000000
         C            1.252076199032     0.060265540978     0.670705756048    12.000000000000
         C           -1.424028800968    -1.104503459022    -0.251629243952    12.000000000000
         C            1.424035199032     1.103837540978    -0.250183243952    12.000000000000
         C           -2.251944800968     0.910072540978     0.781311756048    12.000000000000
         C            2.252057199032    -0.912051459022     0.780109756048    12.000000000000
         C           -2.572586800968    -1.175245459022    -1.038390243952    12.000000000000
         C            2.572582199032     1.175662540978    -1.036864243952    12.000000000000
         C           -3.403332800968     0.844481540978    -0.008360243952    12.000000000000
         C            3.403433199032    -0.845372459022    -0.009488243952    12.000000000000
         C           -3.566997800968    -0.199451459022    -0.919243243952    12.000000000000
         C            3.567052199032     0.199777540978    -0.918985243952    12.000000000000
         H           -0.049957800968     0.875709540978     2.174127756048     1.007825032230
         H            0.045480799032    -0.799693959022     2.113071156048     1.007825032230
         H           -0.644122800968    -1.857176459022    -0.357401243952     1.007825032230
         H            0.644081199032     1.856596540978    -0.354980243952     1.007825032230
         H           -2.130453800968     1.724924540978     1.493616756048     1.007825032230
         H            2.130598199032    -1.727855459022     1.491328756048     1.007825032230
         H           -2.692544800968    -1.990671459022    -1.748167243952     1.007825032230
         H            2.692505199032     1.992037540978    -1.745554243952     1.007825032230
         H           -4.170605800968     1.609230540978     0.089140756048     1.007825032230
         H            4.170756199032    -1.610196459022     0.087021756048     1.007825032230
         H           -4.461690800968    -0.253067459022    -1.534832243952     1.007825032230
         H            4.461732199032     0.254234540978    -1.534518243952     1.007825032230

  Basis Set: AUG-CC-PVTZ
    Blend: AUG-CC-PVTZ
  Basis Set: (AUG-CC-PVTZ AUX)
    Blend: AUG-CC-PVTZ-JKFIT
	 Reference Energy          =    -499.4389952669025661 [Eh]
	 Singles Energy            =      -0.0000000000000000 [Eh]
	 Same-Spin Energy          =      -0.5639906145530151 [Eh]
	 Opposite-Spin Energy      =      -1.7778727867913870 [Eh]
	 Correlation Energy        =      -2.3418634013444022 [Eh]
	 Total Energy              =    -501.7808586682469922 [Eh]

	 ================> DF-SCS-MP2 Energies <==================
	-----------------------------------------------------------
	 SCS Same-Spin Scale       =       0.3333333333333333 [-]
	 SCS Opposite-Spin Scale   =       1.2000000000000000 [-]
	 SCS Same-Spin Energy      =      -0.1879968715176717 [Eh]
	 SCS Opposite-Spin Energy  =      -2.1334473441496642 [Eh]
	 SCS Correlation Energy    =      -2.3214442156673361 [Eh]
	 SCS Total Energy          =    -501.7604394825698932 [Eh]
	-----------------------------------------------------------

  Dipole Moment: [D]
     X:     0.0047      Y:    -0.0198      Z:     0.1099     Total:     0.1118

*** Psi4 exiting successfully. Buy a developer a beer!
