                               Psi4 1.3.2 release

  ==> Input File <==

--------------------------------------------------------------------------
#psi4
#
memory 32 gb

molecule  {
0 1
  C        0.0000050    -0.0010510     1.5142370
  C       -1.2452313    -0.0388468     0.6576999
  C        1.2520490     0.0607460     0.6690880
  C       -1.4240560    -1.1040230    -0.2532470
  C        1.4240080     1.1043180    -0.2518010
  C       -2.2519720     0.9105530     0.7796940
  C        2.2520300    -0.9115710     0.7784920
  C       -2.5726140    -1.1747650    -1.0400080
  C        2.5725550     1.1761430    -1.0384820
  C       -3.4033600     0.8449620    -0.0099780
  C        3.4034060    -0.8448920    -0.0111060
  C       -3.5670250    -0.1989710    -0.9208610
  C        3.5670250     0.2002580    -0.9206030
  H       -0.0499850     0.8761900     2.1725100
  H        0.0500080    -0.8791980     2.1713010
  H       -0.6441500    -1.8566960    -0.3590190
  H        0.6440540     1.8570770    -0.3565980
  H       -2.1304810     1.7254050     1.4919990
  H        2.1305710    -1.7273750     1.4897110
  H       -2.6925720    -1.9901910    -1.7497850
  H        2.6924780     1.9925180    -1.7471720
  H       -4.1706330     1.6097110     0.0875230
  H        4.1707290    -1.6097160     0.0854040
  H       -4.4617180    -0.2525870    -1.5364500
  H        4.4617050     0.2547150    -1.5361360
units angstrom
no_reorient  #important for SAPT in psi4, default
symmetry c1  #important for SAPT in psi4, default
}

set PROPERTIES_ORIGIN ["COM"]
properties('MP2/aug-cc-pvtz', properties = ['dipole'])
--------------------------------------------------------------------------

    Molecular point group: c1
  Charge       = 0
  Multiplicity = 1
  Basis Set: AUG-CC-PVTZ
    Blend: AUG-CC-PVTZ
  Basis Set: (AUG-CC-PVTZ AUX)
    Blend: AUG-CC-PVTZ-JKFIT

    Orbital Energies [Eh]
    ---------------------

    Doubly Occupied:

       1A    -11.242801     2A    -11.242666     3A    -11.237892
       4A    -11.236298     5A    -11.236236     6A    -11.235743
       7A    -11.235715     8A    -11.232861     9A    -11.232722
      10A    -11.232462    11A    -11.232067    12A    -11.231961
      13A    -11.230826    14A     -1.161733    15A     -1.144835
      16A     -1.066951    17A     -1.013234    18A     -1.011154
      19A     -1.006064    20A     -0.926005    21A     -0.829394
      22A     -0.823462    23A     -0.813526    24A     -0.783346
      25A     -0.698135    26A     -0.688069    27A     -0.642917
      28A     -0.637552    29A     -0.633672    30A     -0.616408
      31A     -0.584436    32A     -0.583419    33A     -0.572394
      34A     -0.571143    35A     -0.544524    36A     -0.509082
      37A     -0.496585    38A     -0.495790    39A     -0.482662
      40A     -0.480541    41A     -0.476157    42A     -0.339923
      43A     -0.336109    44A     -0.334309    45A     -0.314003

  @DF-RHF Final Energy:  -499.44390186066772

   => Energetics <=

    Nuclear Repulsion Energy =            693.3666230665733110
    One-Electron Energy =               -2050.2654863411930819
    Two-Electron Energy =                 857.4549614139521054
    Total Energy =                       -499.4439018606676655
  Basis Set: (AUG-CC-PVTZ AUX)
    Blend: AUG-CC-PVTZ-RI
    Molecular point group: c1

    Geometry (in Angstrom), charge = 0, multiplicity = 1:

       Center              X                  Y                   Z               Mass
    ------------   -----------------  -----------------  -----------------  -----------------
         C           -0.000481885287    -0.002682077922     1.516304559940    12.000000000000
         C           -1.245718185287    -0.040477877922     0.659767459940    12.000000000000
         C            1.251562114713     0.059114922078     0.671155559940    12.000000000000
         C           -1.424542885287    -1.105654077922    -0.251179440060    12.000000000000
         C            1.423521114713     1.102686922078    -0.249733440060    12.000000000000
         C           -2.252458885287     0.908921922078     0.781761559940    12.000000000000
         C            2.251543114713    -0.913202077922     0.780559559940    12.000000000000
         C           -2.573100885287    -1.176396077922    -1.037940440060    12.000000000000
         C            2.572068114713     1.174511922078    -1.036414440060    12.000000000000
         C           -3.403846885287     0.843330922078    -0.007910440060    12.000000000000
         C            3.402919114713    -0.846523077922    -0.009038440060    12.000000000000
         C           -3.567511885287    -0.200602077922    -0.918793440060    12.000000000000
         C            3.566538114713     0.198626922078    -0.918535440060    12.000000000000
         H           -0.050471885287     0.874558922078     2.174577559940     1.007825032230
         H            0.049521114713    -0.880829077922     2.173368559940     1.007825032230
         H           -0.644636885287    -1.858327077922    -0.356951440060     1.007825032230
         H            0.643567114713     1.855445922078    -0.354530440060     1.007825032230
         H           -2.130967885287     1.723773922078     1.494066559940     1.007825032230
         H            2.130084114713    -1.729006077922     1.491778559940     1.007825032230
         H           -2.693058885287    -1.991822077922    -1.747717440060     1.007825032230
         H            2.691991114713     1.990886922078    -1.745104440060     1.007825032230
         H           -4.171119885287     1.608079922078     0.089590559940     1.007825032230
         H            4.170242114713    -1.611347077922     0.087471559940     1.007825032230
         H           -4.462204885287    -0.254218077922    -1.534382440060     1.007825032230
         H            4.461218114713     0.253083922078    -1.534068440060     1.007825032230

  Basis Set: AUG-CC-PVTZ
    Blend: AUG-CC-PVTZ
  Basis Set: (AUG-CC-PVTZ AUX)
    Blend: AUG-CC-PVTZ-JKFIT
	 Reference Energy          =    -499.4439018606677223 [Eh]
	 Singles Energy            =      -0.0000000000000000 [Eh]
	 Same-Spin Energy          =      -0.5641582886725607 [Eh]
	 Opposite-Spin Energy      =      -1.7786450619629486 [Eh]
	 Correlation Energy        =      -2.3428033506355090 [Eh]
	 Total Energy              =    -501.7867052113032287 [Eh]

	 ================> DF-SCS-MP2 Energies <==================
	-----------------------------------------------------------
	 SCS Same-Spin Scale       =       0.3333333333333333 [-]
	 SCS Opposite-Spin Scale   =       1.2000000000000000 [-]
	 SCS Same-Spin Energy      =      -0.1880527628908535 [Eh]
	 SCS Opposite-Spin Energy  =      -2.1343740743555384 [Eh]
	 SCS Correlation Energy    =      -2.3224268372463919 [Eh]
	 SCS Total Energy          =    -501.7663286979141049 [Eh]
	-----------------------------------------------------------

  Dipole Moment: [D]
     X:    -0.0117      Y:    -0.0072      Z:     0.0776     Total:     0.0788

*** Psi4 exiting successfully. Buy a developer a beer!
