                               Psi4 1.4a3.dev225

  ==> Input File <==

--------------------------------------------------------------------------
#psi4
#
memory 32 gb

molecule  {
0 1
  C        0.0000050    -0.0010510     1.5142370
  C       -1.2520500    -0.0616820     0.6690270
  C        1.2520490     0.0607460     0.6690880
  C       -1.4240560    -1.1040230    -0.2532470
  C        1.4240080     1.1043180    -0.2518010
  C       -2.2519720     0.9105530     0.7796940
  C        2.2520300    -0.9115710     0.7784920
  C       -2.5726140    -1.1747650    -1.0400080
  C        2.5725550     1.1761430    -1.0384820
  C       -3.4033600     0.8449620    -0.0099780
  C        3.4034060    -0.8448920    -0.0111060
  C       -3.5670250    -0.1989710    -0.9208610
  C        3.5670250     0.2002580    -0.9206030
  H       -0.0499850     0.8761900     2.1725100
  H        0.0477308    -0.8392057     2.1413772
  H       -0.6441500    -1.8566960    -0.3590190
  H        0.6440540     1.8570770    -0.3565980
  H       -2.1304810     1.7254050     1.4919990
  H        2.1305710    -1.7273750     1.4897110
  H       -2.6925720    -1.9901910    -1.7497850
  H        2.6924780     1.9925180    -1.7471720
  H       -4.1706330     1.6097110     0.0875230
  H        4.1707290    -1.6097160     0.0854040
  H       -4.4617180    -0.2525870    -1.5364500
  H        4.4617050     0.2547150    -1.5361360
units angstrom
no_reorient  #important for SAPT in psi4, default
symmetry c1  #important for SAPT in psi4, default
}

set PROPERTIES_ORIGIN ["COM"]
properties('MP2/aug-cc-pvtz', properties = ['dipole'])
--------------------------------------------------------------------------

    Molecular point group: c1
  Charge       = 0
  Multiplicity = 1
  Basis Set: AUG-CC-PVTZ
    Blend: AUG-CC-PVTZ
  Basis Set: (AUG-CC-PVTZ AUX)
    Blend: AUG-CC-PVTZ-JKFIT

    Orbital Energies [Eh]
    ---------------------

    Doubly Occupied:

       1A    -11.242509     2A    -11.242444     3A    -11.236271
       4A    -11.236171     5A    -11.235719     6A    -11.235657
       7A    -11.232967     8A    -11.232750     9A    -11.232471
      10A    -11.232425    11A    -11.231764    12A    -11.230841
      13A    -11.230639    14A     -1.161907    15A     -1.144748
      16A     -1.068130    17A     -1.012568    18A     -1.011038
      19A     -1.006621    20A     -0.928842    21A     -0.829161
      22A     -0.823530    23A     -0.813956    24A     -0.784662
      25A     -0.698107    26A     -0.688938    27A     -0.644654
      28A     -0.637626    29A     -0.634051    30A     -0.616065
      31A     -0.584460    32A     -0.583644    33A     -0.573367
      34A     -0.571940    35A     -0.548242    36A     -0.509143
      37A     -0.496621    38A     -0.495384    39A     -0.483085
      40A     -0.481739    41A     -0.475549    42A     -0.340461
      43A     -0.335324    44A     -0.333926    45A     -0.314539

  @DF-RHF Final Energy:  -499.44366782212728

   => Energetics <=

    Nuclear Repulsion Energy =            693.5447814607756527
    One-Electron Energy =               -2050.6075933775114208
    Two-Electron Energy =                 857.6191440946086004
    Total Energy =                       -499.4436678221272814
  Basis Set: (AUG-CC-PVTZ AUX)
    Blend: AUG-CC-PVTZ-RI
    Molecular point group: c1

    Geometry (in Angstrom), charge = 0, multiplicity = 1:

       Center              X                  Y                   Z               Mass
    ------------   -----------------  -----------------  -----------------  -----------------
         C            0.000018545835    -0.001291681492     1.515675344691    12.000000000000
         C           -1.252036454165    -0.061922681492     0.670465344691    12.000000000000
         C            1.252062545835     0.060505318508     0.670526344691    12.000000000000
         C           -1.424042454165    -1.104263681492    -0.251808655309    12.000000000000
         C            1.424021545835     1.104077318508    -0.250362655309    12.000000000000
         C           -2.251958454165     0.910312318508     0.781132344691    12.000000000000
         C            2.252043545835    -0.911811681492     0.779930344691    12.000000000000
         C           -2.572600454165    -1.175005681492    -1.038569655309    12.000000000000
         C            2.572568545835     1.175902318508    -1.037043655309    12.000000000000
         C           -3.403346454165     0.844721318508    -0.008539655309    12.000000000000
         C            3.403419545835    -0.845132681492    -0.009667655309    12.000000000000
         C           -3.567011454165    -0.199211681492    -0.919422655309    12.000000000000
         C            3.567038545835     0.200017318508    -0.919164655309    12.000000000000
         H           -0.049971454165     0.875949318508     2.173948344691     1.007825032230
         H            0.047744345835    -0.839446381492     2.142815544691     1.007825032230
         H           -0.644136454165    -1.856936681492    -0.357580655309     1.007825032230
         H            0.644067545835     1.856836318508    -0.355159655309     1.007825032230
         H           -2.130467454165     1.725164318508     1.493437344691     1.007825032230
         H            2.130584545835    -1.727615681492     1.491149344691     1.007825032230
         H           -2.692558454165    -1.990431681492    -1.748346655309     1.007825032230
         H            2.692491545835     1.992277318508    -1.745733655309     1.007825032230
         H           -4.170619454165     1.609470318508     0.088961344691     1.007825032230
         H            4.170742545835    -1.609956681492     0.086842344691     1.007825032230
         H           -4.461704454165    -0.252827681492    -1.535011655309     1.007825032230
         H            4.461718545835     0.254474318508    -1.534697655309     1.007825032230

  Basis Set: AUG-CC-PVTZ
    Blend: AUG-CC-PVTZ
  Basis Set: (AUG-CC-PVTZ AUX)
    Blend: AUG-CC-PVTZ-JKFIT
	 Reference Energy          =    -499.4436678221272814 [Eh]
	 Singles Energy            =      -0.0000000000000000 [Eh]
	 Same-Spin Energy          =      -0.5640544393916309 [Eh]
	 Opposite-Spin Energy      =      -1.7781772214098748 [Eh]
	 Correlation Energy        =      -2.3422316608015059 [Eh]
	 Total Energy              =    -501.7858994829288122 [Eh]

	 ================> DF-SCS-MP2 Energies <==================
	-----------------------------------------------------------
	 SCS Same-Spin Scale       =       0.3333333333333333 [-]
	 SCS Opposite-Spin Scale   =       1.2000000000000000 [-]
	 SCS Same-Spin Energy      =      -0.1880181464638770 [Eh]
	 SCS Opposite-Spin Energy  =      -2.1338126656918495 [Eh]
	 SCS Correlation Energy    =      -2.3218308121557265 [Eh]
	 SCS Total Energy          =    -501.7654986342830057 [Eh]
	-----------------------------------------------------------

  Dipole Moment: [D]
     X:     0.0029      Y:    -0.0112      Z:     0.0929     Total:     0.0936

*** Psi4 exiting successfully. Buy a developer a beer!
