                               Psi4 1.3.2 release

  ==> Input File <==

--------------------------------------------------------------------------
#psi4
#
memory 32 gb

molecule  {
0 1
  C        0.0000050    -0.0010510     1.5142370
  C       -1.4176819    -0.0697028     0.5572158
  C        1.2520490     0.0607460     0.6690880
  C       -1.4240560    -1.1040230    -0.2532470
  C        1.4240080     1.1043180    -0.2518010
  C       -2.2519720     0.9105530     0.7796940
  C        2.2520300    -0.9115710     0.7784920
  C       -2.5726140    -1.1747650    -1.0400080
  C        2.5725550     1.1761430    -1.0384820
  C       -3.4033600     0.8449620    -0.0099780
  C        3.4034060    -0.8448920    -0.0111060
  C       -3.5670250    -0.1989710    -0.9208610
  C        3.5670250     0.2002580    -0.9206030
  H       -0.0499850     0.8761900     2.1725100
  H        0.0500080    -0.8791980     2.1713010
  H       -0.6441500    -1.8566960    -0.3590190
  H        0.6440540     1.8570770    -0.3565980
  H       -2.1304810     1.7254050     1.4919990
  H        2.1305710    -1.7273750     1.4897110
  H       -2.6925720    -1.9901910    -1.7497850
  H        2.6924780     1.9925180    -1.7471720
  H       -4.1706330     1.6097110     0.0875230
  H        4.1707290    -1.6097160     0.0854040
  H       -4.4617180    -0.2525870    -1.5364500
  H        4.4617050     0.2547150    -1.5361360
units angstrom
no_reorient  #important for SAPT in psi4, default
symmetry c1  #important for SAPT in psi4, default
}

set PROPERTIES_ORIGIN ["COM"]
properties('MP2/aug-cc-pvtz', properties = ['dipole'])
--------------------------------------------------------------------------

    Molecular point group: c1
  Charge       = 0
  Multiplicity = 1
  Basis Set: AUG-CC-PVTZ
    Blend: AUG-CC-PVTZ
  Basis Set: (AUG-CC-PVTZ AUX)
    Blend: AUG-CC-PVTZ-JKFIT

    Orbital Energies [Eh]
    ---------------------

    Doubly Occupied:

       1A    -11.239373     2A    -11.238383     3A    -11.237982
       4A    -11.237280     5A    -11.234551     6A    -11.234189
       7A    -11.233738     8A    -11.231437     9A    -11.230320
      10A    -11.230072    11A    -11.228176    12A    -11.224963
      13A    -11.223847    14A     -1.175743    15A     -1.148091
      16A     -1.050978    17A     -1.027487    18A     -1.011404
      19A     -1.008585    20A     -0.914907    21A     -0.839329
      22A     -0.822880    23A     -0.809740    24A     -0.784750
      25A     -0.702501    26A     -0.687018    27A     -0.643464
      28A     -0.632349    29A     -0.629388    30A     -0.623798
      31A     -0.598810    32A     -0.581618    33A     -0.565910
      34A     -0.559473    35A     -0.539196    36A     -0.516402
      37A     -0.511090    38A     -0.495922    39A     -0.483893
      40A     -0.482638    41A     -0.430014    42A     -0.345405
      43A     -0.341814    44A     -0.332861    45A     -0.316603

  @DF-RHF Final Energy:  -499.40509229414681

   => Energetics <=

    Nuclear Repulsion Energy =            693.9576906666954983
    One-Electron Energy =               -2051.4488278740723217
    Two-Electron Energy =                 858.0860449132300118
    Total Energy =                       -499.4050922941468116
  Basis Set: (AUG-CC-PVTZ AUX)
    Blend: AUG-CC-PVTZ-RI
    Molecular point group: c1

    Geometry (in Angstrom), charge = 0, multiplicity = 1:

       Center              X                  Y                   Z               Mass
    ------------   -----------------  -----------------  -----------------  -----------------
         C            0.011829133704    -0.000479309117     1.523477986204    12.000000000000
         C           -1.405857766296    -0.069131109117     0.566456786204    12.000000000000
         C            1.263873133704     0.061317690883     0.678328986204    12.000000000000
         C           -1.412231866296    -1.103451309117    -0.244006013796    12.000000000000
         C            1.435832133704     1.104889690883    -0.242560013796    12.000000000000
         C           -2.240147866296     0.911124690883     0.788934986204    12.000000000000
         C            2.263854133704    -0.910999309117     0.787732986204    12.000000000000
         C           -2.560789866296    -1.174193309117    -1.030767013796    12.000000000000
         C            2.584379133704     1.176714690883    -1.029241013796    12.000000000000
         C           -3.391535866296     0.845533690883    -0.000737013796    12.000000000000
         C            3.415230133704    -0.844320309117    -0.001865013796    12.000000000000
         C           -3.555200866296    -0.198399309117    -0.911620013796    12.000000000000
         C            3.578849133704     0.200829690883    -0.911362013796    12.000000000000
         H           -0.038160866296     0.876761690883     2.181750986204     1.007825032230
         H            0.061832133704    -0.878626309117     2.180541986204     1.007825032230
         H           -0.632325866296    -1.856124309117    -0.349778013796     1.007825032230
         H            0.655878133704     1.857648690883    -0.347357013796     1.007825032230
         H           -2.118656866296     1.725976690883     1.501239986204     1.007825032230
         H            2.142395133704    -1.726803309117     1.498951986204     1.007825032230
         H           -2.680747866296    -1.989619309117    -1.740544013796     1.007825032230
         H            2.704302133704     1.993089690883    -1.737931013796     1.007825032230
         H           -4.158808866296     1.610282690883     0.096763986204     1.007825032230
         H            4.182553133704    -1.609144309117     0.094644986204     1.007825032230
         H           -4.449893866296    -0.252015309117    -1.527209013796     1.007825032230
         H            4.473529133704     0.255286690883    -1.526895013796     1.007825032230

  Basis Set: AUG-CC-PVTZ
    Blend: AUG-CC-PVTZ
  Basis Set: (AUG-CC-PVTZ AUX)
    Blend: AUG-CC-PVTZ-JKFIT
	 Reference Energy          =    -499.4050922941468116 [Eh]
	 Singles Energy            =      -0.0000000000000000 [Eh]
	 Same-Spin Energy          =      -0.5643752344080131 [Eh]
	 Opposite-Spin Energy      =      -1.7789653282319895 [Eh]
	 Correlation Energy        =      -2.3433405626400026 [Eh]
	 Total Energy              =    -501.7484328567867919 [Eh]

	 ================> DF-SCS-MP2 Energies <==================
	-----------------------------------------------------------
	 SCS Same-Spin Scale       =       0.3333333333333333 [-]
	 SCS Opposite-Spin Scale   =       1.2000000000000000 [-]
	 SCS Same-Spin Energy      =      -0.1881250781360043 [Eh]
	 SCS Opposite-Spin Energy  =      -2.1347583938783874 [Eh]
	 SCS Correlation Energy    =      -2.3228834720143916 [Eh]
	 SCS Total Energy          =    -501.7279757661611939 [Eh]
	-----------------------------------------------------------

  Dipole Moment: [D]
     X:    -0.3324      Y:     0.0011      Z:    -0.0176     Total:     0.3328

*** Psi4 exiting successfully. Buy a developer a beer!
