                               Psi4 1.3.2 release

  ==> Input File <==

--------------------------------------------------------------------------
#psi4
#
memory 32 gb

molecule  {
0 1
  C        0.0000050    -0.0010510     1.5142370
  C       -1.2054937     0.0753628     0.6050441
  C        1.2520490     0.0607460     0.6690880
  C       -1.4240560    -1.1040230    -0.2532470
  C        1.4240080     1.1043180    -0.2518010
  C       -2.2519720     0.9105530     0.7796940
  C        2.2520300    -0.9115710     0.7784920
  C       -2.5726140    -1.1747650    -1.0400080
  C        2.5725550     1.1761430    -1.0384820
  C       -3.4033600     0.8449620    -0.0099780
  C        3.4034060    -0.8448920    -0.0111060
  C       -3.5670250    -0.1989710    -0.9208610
  C        3.5670250     0.2002580    -0.9206030
  H       -0.0499850     0.8761900     2.1725100
  H        0.0500080    -0.8791980     2.1713010
  H       -0.6441500    -1.8566960    -0.3590190
  H        0.6440540     1.8570770    -0.3565980
  H       -2.1304810     1.7254050     1.4919990
  H        2.1305710    -1.7273750     1.4897110
  H       -2.6925720    -1.9901910    -1.7497850
  H        2.6924780     1.9925180    -1.7471720
  H       -4.1706330     1.6097110     0.0875230
  H        4.1707290    -1.6097160     0.0854040
  H       -4.4617180    -0.2525870    -1.5364500
  H        4.4617050     0.2547150    -1.5361360
units angstrom
no_reorient  #important for SAPT in psi4, default
symmetry c1  #important for SAPT in psi4, default
}

set PROPERTIES_ORIGIN ["COM"]
properties('MP2/aug-cc-pvtz', properties = ['dipole'])
--------------------------------------------------------------------------

    Molecular point group: c1
  Charge       = 0
  Multiplicity = 1
  Basis Set: AUG-CC-PVTZ
    Blend: AUG-CC-PVTZ
  Basis Set: (AUG-CC-PVTZ AUX)
    Blend: AUG-CC-PVTZ-JKFIT

    Orbital Energies [Eh]
    ---------------------

    Doubly Occupied:

       1A    -11.243933     2A    -11.241869     3A    -11.238945
       4A    -11.238631     5A    -11.236329     6A    -11.235891
       7A    -11.235422     8A    -11.235053     9A    -11.233885
      10A    -11.232186    11A    -11.231833    12A    -11.230189
      13A    -11.228922    14A     -1.161553    15A     -1.144269
      16A     -1.067654    17A     -1.017169    18A     -1.010991
      19A     -1.001010    20A     -0.925845    21A     -0.830957
      22A     -0.823403    23A     -0.809363    24A     -0.783120
      25A     -0.697476    26A     -0.688496    27A     -0.643706
      28A     -0.639086    29A     -0.631903    30A     -0.617322
      31A     -0.584970    32A     -0.582739    33A     -0.571481
      34A     -0.568770    35A     -0.544909    36A     -0.508842
      37A     -0.500497    38A     -0.493785    39A     -0.484335
      40A     -0.478340    41A     -0.468731    42A     -0.342947
      43A     -0.336850    44A     -0.333253    45A     -0.310559

  @DF-RHF Final Energy:  -499.43015835431589

   => Energetics <=

    Nuclear Repulsion Energy =            693.6069206994031902
    One-Electron Energy =               -2050.7393184000529800
    Two-Electron Energy =                 857.7022393463339540
    Total Energy =                       -499.4301583543158358
  Basis Set: (AUG-CC-PVTZ AUX)
    Blend: AUG-CC-PVTZ-RI
    Molecular point group: c1

    Geometry (in Angstrom), charge = 0, multiplicity = 1:

       Center              X                  Y                   Z               Mass
    ------------   -----------------  -----------------  -----------------  -----------------
         C           -0.003318699704    -0.010835349378     1.520063587474    12.000000000000
         C           -1.208817399704     0.065578450622     0.610870687474    12.000000000000
         C            1.248725300296     0.050961650622     0.674914587474    12.000000000000
         C           -1.427379699704    -1.113807349378    -0.247420412526    12.000000000000
         C            1.420684300296     1.094533650622    -0.245974412526    12.000000000000
         C           -2.255295699704     0.900768650622     0.785520587474    12.000000000000
         C            2.248706300296    -0.921355349378     0.784318587474    12.000000000000
         C           -2.575937699704    -1.184549349378    -1.034181412526    12.000000000000
         C            2.569231300296     1.166358650622    -1.032655412526    12.000000000000
         C           -3.406683699704     0.835177650622    -0.004151412526    12.000000000000
         C            3.400082300296    -0.854676349378    -0.005279412526    12.000000000000
         C           -3.570348699704    -0.208755349378    -0.915034412526    12.000000000000
         C            3.563701300296     0.190473650622    -0.914776412526    12.000000000000
         H           -0.053308699704     0.866405650622     2.178336587474     1.007825032230
         H            0.046684300296    -0.888982349378     2.177127587474     1.007825032230
         H           -0.647473699704    -1.866480349378    -0.353192412526     1.007825032230
         H            0.640730300296     1.847292650622    -0.350771412526     1.007825032230
         H           -2.133804699704     1.715620650622     1.497825587474     1.007825032230
         H            2.127247300296    -1.737159349378     1.495537587474     1.007825032230
         H           -2.695895699704    -1.999975349378    -1.743958412526     1.007825032230
         H            2.689154300296     1.982733650622    -1.741345412526     1.007825032230
         H           -4.173956699704     1.599926650622     0.093349587474     1.007825032230
         H            4.167405300296    -1.619500349378     0.091230587474     1.007825032230
         H           -4.465041699704    -0.262371349378    -1.530623412526     1.007825032230
         H            4.458381300296     0.244930650622    -1.530309412526     1.007825032230

  Basis Set: AUG-CC-PVTZ
    Blend: AUG-CC-PVTZ
  Basis Set: (AUG-CC-PVTZ AUX)
    Blend: AUG-CC-PVTZ-JKFIT
	 Reference Energy          =    -499.4301583543158927 [Eh]
	 Singles Energy            =      -0.0000000000000000 [Eh]
	 Same-Spin Energy          =      -0.5645426951098802 [Eh]
	 Opposite-Spin Energy      =      -1.7802302640258625 [Eh]
	 Correlation Energy        =      -2.3447729591357427 [Eh]
	 Total Energy              =    -501.7749313134516456 [Eh]

	 ================> DF-SCS-MP2 Energies <==================
	-----------------------------------------------------------
	 SCS Same-Spin Scale       =       0.3333333333333333 [-]
	 SCS Opposite-Spin Scale   =       1.2000000000000000 [-]
	 SCS Same-Spin Energy      =      -0.1881808983699600 [Eh]
	 SCS Opposite-Spin Energy  =      -2.1362763168310348 [Eh]
	 SCS Correlation Energy    =      -2.3244572152009950 [Eh]
	 SCS Total Energy          =    -501.7546155695168864 [Eh]
	-----------------------------------------------------------

  Dipole Moment: [D]
     X:    -0.0955      Y:    -0.0440      Z:     0.0926     Total:     0.1401

*** Psi4 exiting successfully. Buy a developer a beer!
