                               Psi4 1.4a3.dev225

  ==> Input File <==

--------------------------------------------------------------------------
#psi4
#
memory 32 gb

molecule  {
0 1
  C        0.0000050    -0.0010510     1.5142370
  C       -1.2520500    -0.0616820     0.6690270
  C        1.2520490     0.0607460     0.6690880
  C       -1.4240560    -1.1040230    -0.2532470
  C        1.4240080     1.1043180    -0.2518010
  C       -2.2519720     0.9105530     0.7796940
  C        2.2520300    -0.9115710     0.7784920
  C       -2.5726140    -1.1747650    -1.0400080
  C        2.5725550     1.1761430    -1.0384820
  C       -3.4033600     0.8449620    -0.0099780
  C        3.4034060    -0.8448920    -0.0111060
  C       -3.5670250    -0.1989710    -0.9208610
  C        3.5670250     0.2002580    -0.9206030
  H       -0.0499850     0.8761900     2.1725100
  H        0.0522852    -0.9191903     2.2012248
  H       -0.6441500    -1.8566960    -0.3590190
  H        0.6440540     1.8570770    -0.3565980
  H       -2.1304810     1.7254050     1.4919990
  H        2.1305710    -1.7273750     1.4897110
  H       -2.6925720    -1.9901910    -1.7497850
  H        2.6924780     1.9925180    -1.7471720
  H       -4.1706330     1.6097110     0.0875230
  H        4.1707290    -1.6097160     0.0854040
  H       -4.4617180    -0.2525870    -1.5364500
  H        4.4617050     0.2547150    -1.5361360
units angstrom
no_reorient  #important for SAPT in psi4, default
symmetry c1  #important for SAPT in psi4, default
}

set PROPERTIES_ORIGIN ["COM"]
properties('MP2/aug-cc-pvtz', properties = ['dipole'])
--------------------------------------------------------------------------

    Molecular point group: c1
  Charge       = 0
  Multiplicity = 1
  Basis Set: AUG-CC-PVTZ
    Blend: AUG-CC-PVTZ
  Basis Set: (AUG-CC-PVTZ AUX)
    Blend: AUG-CC-PVTZ-JKFIT

    Orbital Energies [Eh]
    ---------------------

    Doubly Occupied:

       1A    -11.243954     2A    -11.243146     3A    -11.242872
       4A    -11.236430     5A    -11.236315     6A    -11.235940
       7A    -11.235886     8A    -11.233241     9A    -11.232988
      10A    -11.232748    11A    -11.232673    12A    -11.231258
      13A    -11.231061    14A     -1.161590    15A     -1.145032
      16A     -1.065886    17A     -1.012778    18A     -1.011251
      19A     -1.006958    20A     -0.923691    21A     -0.829113
      22A     -0.823555    23A     -0.814271    24A     -0.781902
      25A     -0.698389    26A     -0.687323    27A     -0.641850
      28A     -0.636408    29A     -0.633775    30A     -0.616182
      31A     -0.584564    32A     -0.583754    33A     -0.573026
      34A     -0.569814    35A     -0.539907    36A     -0.509496
      37A     -0.496681    38A     -0.495313    39A     -0.482595
      40A     -0.480500    41A     -0.475620    42A     -0.340541
      43A     -0.335509    44A     -0.334012    45A     -0.314582

  @DF-RHF Final Energy:  -499.44209482647881

   => Energetics <=

    Nuclear Repulsion Energy =            693.0242941640015033
    One-Electron Energy =               -2049.5840192732434843
    Two-Electron Energy =                 857.1176302827631162
    Total Energy =                       -499.4420948264788649
  Basis Set: (AUG-CC-PVTZ AUX)
    Blend: AUG-CC-PVTZ-RI
    Molecular point group: c1

    Geometry (in Angstrom), charge = 0, multiplicity = 1:

       Center              X                  Y                   Z               Mass
    ------------   -----------------  -----------------  -----------------  -----------------
         C           -0.000008760559    -0.000812125233     1.515316521978    12.000000000000
         C           -1.252063760559    -0.061443125233     0.670106521978    12.000000000000
         C            1.252035239441     0.060984874767     0.670167521978    12.000000000000
         C           -1.424069760559    -1.103784125233    -0.252167478022    12.000000000000
         C            1.423994239441     1.104556874767    -0.250721478022    12.000000000000
         C           -2.251985760559     0.910791874767     0.780773521978    12.000000000000
         C            2.252016239441    -0.911332125233     0.779571521978    12.000000000000
         C           -2.572627760559    -1.174526125233    -1.038928478022    12.000000000000
         C            2.572541239441     1.176381874767    -1.037402478022    12.000000000000
         C           -3.403373760559     0.845200874767    -0.008898478022    12.000000000000
         C            3.403392239441    -0.844653125233    -0.010026478022    12.000000000000
         C           -3.567038760559    -0.198732125233    -0.919781478022    12.000000000000
         C            3.567011239441     0.200496874767    -0.919523478022    12.000000000000
         H           -0.049998760559     0.876428874767     2.173589521978     1.007825032230
         H            0.052271439441    -0.918951425233     2.202304321978     1.007825032230
         H           -0.644163760559    -1.856457125233    -0.357939478022     1.007825032230
         H            0.644040239441     1.857315874767    -0.355518478022     1.007825032230
         H           -2.130494760559     1.725643874767     1.493078521978     1.007825032230
         H            2.130557239441    -1.727136125233     1.490790521978     1.007825032230
         H           -2.692585760559    -1.989952125233    -1.748705478022     1.007825032230
         H            2.692464239441     1.992756874767    -1.746092478022     1.007825032230
         H           -4.170646760559     1.609949874767     0.088602521978     1.007825032230
         H            4.170715239441    -1.609477125233     0.086483521978     1.007825032230
         H           -4.461731760559    -0.252348125233    -1.535370478022     1.007825032230
         H            4.461691239441     0.254953874767    -1.535056478022     1.007825032230

  Basis Set: AUG-CC-PVTZ
    Blend: AUG-CC-PVTZ
  Basis Set: (AUG-CC-PVTZ AUX)
    Blend: AUG-CC-PVTZ-JKFIT
	 Reference Energy          =    -499.4420948264788080 [Eh]
	 Singles Energy            =      -0.0000000000000000 [Eh]
	 Same-Spin Energy          =      -0.5642160033205054 [Eh]
	 Opposite-Spin Energy      =      -1.7789916235745133 [Eh]
	 Correlation Energy        =      -2.3432076268950186 [Eh]
	 Total Energy              =    -501.7853024533738449 [Eh]

	 ================> DF-SCS-MP2 Energies <==================
	-----------------------------------------------------------
	 SCS Same-Spin Scale       =       0.3333333333333333 [-]
	 SCS Opposite-Spin Scale   =       1.2000000000000000 [-]
	 SCS Same-Spin Energy      =      -0.1880720011068351 [Eh]
	 SCS Opposite-Spin Energy  =      -2.1347899482894159 [Eh]
	 SCS Correlation Energy    =      -2.3228619493962510 [Eh]
	 SCS Total Energy          =    -501.7649567758750777 [Eh]
	-----------------------------------------------------------

  Dipole Moment: [D]
     X:    -0.0041      Y:     0.0136      Z:     0.0468     Total:     0.0489

*** Psi4 exiting successfully. Buy a developer a beer!
