                               Psi4 1.3.2 release

  ==> Input File <==

--------------------------------------------------------------------------
#psi4
#
memory 32 gb

molecule  {
0 1
  C       -0.0184538     0.0429488     1.5367773
  C       -1.2520500    -0.0616820     0.6690270
  C        1.2520490     0.0607460     0.6690880
  C       -1.4240560    -1.1040230    -0.2532470
  C        1.4240080     1.1043180    -0.2518010
  C       -2.2519720     0.9105530     0.7796940
  C        2.2520300    -0.9115710     0.7784920
  C       -2.5726140    -1.1747650    -1.0400080
  C        2.5725550     1.1761430    -1.0384820
  C       -3.4033600     0.8449620    -0.0099780
  C        3.4034060    -0.8448920    -0.0111060
  C       -3.5670250    -0.1989710    -0.9208610
  C        3.5670250     0.2002580    -0.9206030
  H       -0.0499850     0.8761900     2.1725100
  H        0.0500080    -0.8791980     2.1713010
  H       -0.6441500    -1.8566960    -0.3590190
  H        0.6440540     1.8570770    -0.3565980
  H       -2.1304810     1.7254050     1.4919990
  H        2.1305710    -1.7273750     1.4897110
  H       -2.6925720    -1.9901910    -1.7497850
  H        2.6924780     1.9925180    -1.7471720
  H       -4.1706330     1.6097110     0.0875230
  H        4.1707290    -1.6097160     0.0854040
  H       -4.4617180    -0.2525870    -1.5364500
  H        4.4617050     0.2547150    -1.5361360
units angstrom
no_reorient  #important for SAPT in psi4, default
symmetry c1  #important for SAPT in psi4, default
}

set PROPERTIES_ORIGIN ["COM"]
properties('MP2/aug-cc-pvtz', properties = ['dipole'])
--------------------------------------------------------------------------

    Molecular point group: c1
  Charge       = 0
  Multiplicity = 1
  Basis Set: AUG-CC-PVTZ
    Blend: AUG-CC-PVTZ
  Basis Set: (AUG-CC-PVTZ AUX)
    Blend: AUG-CC-PVTZ-JKFIT

    Orbital Energies [Eh]
    ---------------------

    Doubly Occupied:

       1A    -11.243847     2A    -11.243150     3A    -11.237502
       4A    -11.236385     5A    -11.236177     6A    -11.235922
       7A    -11.235481     8A    -11.233408     9A    -11.232592
      10A    -11.232352    11A    -11.232026    12A    -11.231498
      13A    -11.230501    14A     -1.160798    15A     -1.144634
      16A     -1.065493    17A     -1.012507    18A     -1.011035
      19A     -1.006088    20A     -0.926919    21A     -0.828874
      22A     -0.823304    23A     -0.813082    24A     -0.784400
      25A     -0.697515    26A     -0.688716    27A     -0.644404
      28A     -0.636644    29A     -0.632616    30A     -0.616027
      31A     -0.584735    32A     -0.583594    33A     -0.575034
      34A     -0.568206    35A     -0.547248    36A     -0.508729
      37A     -0.496686    38A     -0.495066    39A     -0.485757
      40A     -0.479138    41A     -0.472900    42A     -0.340682
      43A     -0.335316    44A     -0.333998    45A     -0.314224

  @DF-RHF Final Energy:  -499.44156341807934

   => Energetics <=

    Nuclear Repulsion Energy =            692.8870145265243536
    One-Electron Energy =               -2049.3067371708480096
    Two-Electron Energy =                 856.9781592262443155
    Total Energy =                       -499.4415634180793404
  Basis Set: (AUG-CC-PVTZ AUX)
    Blend: AUG-CC-PVTZ-RI
    Molecular point group: c1

    Geometry (in Angstrom), charge = 0, multiplicity = 1:

       Center              X                  Y                   Z               Mass
    ------------   -----------------  -----------------  -----------------  -----------------
         C           -0.017136158179     0.039806809431     1.536427111294    12.000000000000
         C           -1.250732358179    -0.064823990569     0.668676811294    12.000000000000
         C            1.253366641821     0.057604009431     0.668737811294    12.000000000000
         C           -1.422738358179    -1.107164990569    -0.253597188706    12.000000000000
         C            1.425325641821     1.101176009431    -0.252151188706    12.000000000000
         C           -2.250654358179     0.907411009431     0.779343811294    12.000000000000
         C            2.253347641821    -0.914712990569     0.778141811294    12.000000000000
         C           -2.571296358179    -1.177906990569    -1.040358188706    12.000000000000
         C            2.573872641821     1.173001009431    -1.038832188706    12.000000000000
         C           -3.402042358179     0.841820009431    -0.010328188706    12.000000000000
         C            3.404723641821    -0.848033990569    -0.011456188706    12.000000000000
         C           -3.565707358179    -0.202112990569    -0.921211188706    12.000000000000
         C            3.568342641821     0.197116009431    -0.920953188706    12.000000000000
         H           -0.048667358179     0.873048009431     2.172159811294     1.007825032230
         H            0.051325641821    -0.882339990569     2.170950811294     1.007825032230
         H           -0.642832358179    -1.859837990569    -0.359369188706     1.007825032230
         H            0.645371641821     1.853935009431    -0.356948188706     1.007825032230
         H           -2.129163358179     1.722263009431     1.491648811294     1.007825032230
         H            2.131888641821    -1.730516990569     1.489360811294     1.007825032230
         H           -2.691254358179    -1.993332990569    -1.750135188706     1.007825032230
         H            2.693795641821     1.989376009431    -1.747522188706     1.007825032230
         H           -4.169315358179     1.606569009431     0.087172811294     1.007825032230
         H            4.172046641821    -1.612857990569     0.085053811294     1.007825032230
         H           -4.460400358179    -0.255728990569    -1.536800188706     1.007825032230
         H            4.463022641821     0.251573009431    -1.536486188706     1.007825032230

  Basis Set: AUG-CC-PVTZ
    Blend: AUG-CC-PVTZ
  Basis Set: (AUG-CC-PVTZ AUX)
    Blend: AUG-CC-PVTZ-JKFIT
	 Reference Energy          =    -499.4415634180793404 [Eh]
	 Singles Energy            =      -0.0000000000000000 [Eh]
	 Same-Spin Energy          =      -0.5639934423972481 [Eh]
	 Opposite-Spin Energy      =      -1.7785049209474975 [Eh]
	 Correlation Energy        =      -2.3424983633447454 [Eh]
	 Total Energy              =    -501.7840617814241000 [Eh]

	 ================> DF-SCS-MP2 Energies <==================
	-----------------------------------------------------------
	 SCS Same-Spin Scale       =       0.3333333333333333 [-]
	 SCS Opposite-Spin Scale   =       1.2000000000000000 [-]
	 SCS Same-Spin Energy      =      -0.1879978141324160 [Eh]
	 SCS Opposite-Spin Energy  =      -2.1342059051369970 [Eh]
	 SCS Correlation Energy    =      -2.3222037192694129 [Eh]
	 SCS Total Energy          =    -501.7637671373487365 [Eh]
	-----------------------------------------------------------

  Dipole Moment: [D]
     X:     0.0204      Y:     0.0288      Z:     0.0847     Total:     0.0918

*** Psi4 exiting successfully. Buy a developer a beer!
