                               Psi4 1.3.2 release

  ==> Input File <==

--------------------------------------------------------------------------
#psi4
#
memory 32 gb

molecule  {
0 1
  C        0.0000050    -0.0010510     1.5142370
  C       -1.2520500    -0.0616820     0.6690270
  C        1.2520490     0.0607460     0.6690880
  C       -1.4240560    -1.1040230    -0.2532470
  C        1.4240080     1.1043180    -0.2518010
  C       -2.2519720     0.9105530     0.7796940
  C        2.2520300    -0.9115710     0.7784920
  C       -2.5726140    -1.1747650    -1.0400080
  C        2.5725550     1.1761430    -1.0384820
  C       -3.4033600     0.8449620    -0.0099780
  C        3.4034060    -0.8448920    -0.0111060
  C       -3.5670250    -0.1989710    -0.9208610
  C        3.5670250     0.2002580    -0.9206030
  H       -0.0499850     0.8761900     2.1725100
  H        0.0500080    -0.8791980     2.1713010
  H       -0.6441500    -1.8566960    -0.3590190
  H        0.6440540     1.8570770    -0.3565980
  H       -2.1304810     1.7254050     1.4919990
  H        2.1305710    -1.7273750     1.4897110
  H       -2.6925720    -1.9901910    -1.7497850
  H        2.6924780     1.9925180    -1.7471720
  H       -4.1706330     1.6097110     0.0875230
  H        4.1707290    -1.6097160     0.0854040
  H       -4.4617180    -0.2525870    -1.5364500
  H        4.4617050     0.2547150    -1.5361360
units angstrom
no_reorient  #important for SAPT in psi4, default
symmetry c1  #important for SAPT in psi4, default
}

set PROPERTIES_ORIGIN ["COM"]
properties('MP2/aug-cc-pvtz', properties = ['dipole'])
--------------------------------------------------------------------------

    Molecular point group: c1
  Charge       = 0
  Multiplicity = 1
  Basis Set: AUG-CC-PVTZ
    Blend: AUG-CC-PVTZ
  Basis Set: (AUG-CC-PVTZ AUX)
    Blend: AUG-CC-PVTZ-JKFIT

    Orbital Energies [Eh]
    ---------------------

    Doubly Occupied:

       1A    -11.242820     2A    -11.242785     3A    -11.237783
       4A    -11.236286     5A    -11.236286     6A    -11.235791
       7A    -11.235791     8A    -11.232969     9A    -11.232968
      10A    -11.232566    11A    -11.232566    12A    -11.230931
      13A    -11.230930    14A     -1.161699    15A     -1.144876
      16A     -1.066862    17A     -1.012660    18A     -1.011133
      19A     -1.006776    20A     -0.926024    21A     -0.829113
      22A     -0.823527    23A     -0.814098    24A     -0.783166
      25A     -0.698234    26A     -0.688009    27A     -0.642884
      28A     -0.637099    29A     -0.634013    30A     -0.616112
      31A     -0.584484    32A     -0.583682    33A     -0.572858
      34A     -0.570936    35A     -0.544402    36A     -0.509308
      37A     -0.496622    38A     -0.495363    39A     -0.482608
      40A     -0.481431    41A     -0.475637    42A     -0.340490
      43A     -0.335406    44A     -0.333961    45A     -0.314551

  @DF-RHF Final Energy:  -499.44437555091054

   => Energetics <=

    Nuclear Repulsion Energy =            693.2779900324401297
    One-Electron Energy =               -2050.0877312027064363
    Two-Electron Energy =                 857.3653656193557708
    Total Energy =                       -499.4443755509105358
  Basis Set: (AUG-CC-PVTZ AUX)
    Blend: AUG-CC-PVTZ-RI
    Molecular point group: c1

    Geometry (in Angstrom), charge = 0, multiplicity = 1:

       Center              X                  Y                   Z               Mass
    ------------   -----------------  -----------------  -----------------  -----------------
         C            0.000004892638    -0.001051903362     1.515495933335    12.000000000000
         C           -1.252050107362    -0.061682903362     0.670285933335    12.000000000000
         C            1.252048892638     0.060745096638     0.670346933335    12.000000000000
         C           -1.424056107362    -1.104023903362    -0.251988066665    12.000000000000
         C            1.424007892638     1.104317096638    -0.250542066665    12.000000000000
         C           -2.251972107362     0.910552096638     0.780952933335    12.000000000000
         C            2.252029892638    -0.911571903362     0.779750933335    12.000000000000
         C           -2.572614107362    -1.174765903362    -1.038749066665    12.000000000000
         C            2.572554892638     1.176142096638    -1.037223066665    12.000000000000
         C           -3.403360107362     0.844961096638    -0.008719066665    12.000000000000
         C            3.403405892638    -0.844892903362    -0.009847066665    12.000000000000
         C           -3.567025107362    -0.198971903362    -0.919602066665    12.000000000000
         C            3.567024892638     0.200257096638    -0.919344066665    12.000000000000
         H           -0.049985107362     0.876189096638     2.173768933335     1.007825032230
         H            0.050007892638    -0.879198903362     2.172559933335     1.007825032230
         H           -0.644150107362    -1.856696903362    -0.357760066665     1.007825032230
         H            0.644053892638     1.857076096638    -0.355339066665     1.007825032230
         H           -2.130481107362     1.725404096638     1.493257933335     1.007825032230
         H            2.130570892638    -1.727375903362     1.490969933335     1.007825032230
         H           -2.692572107362    -1.990191903362    -1.748526066665     1.007825032230
         H            2.692477892638     1.992517096638    -1.745913066665     1.007825032230
         H           -4.170633107362     1.609710096638     0.088781933335     1.007825032230
         H            4.170728892638    -1.609716903362     0.086662933335     1.007825032230
         H           -4.461718107362    -0.252587903362    -1.535191066665     1.007825032230
         H            4.461704892638     0.254714096638    -1.534877066665     1.007825032230

  Basis Set: AUG-CC-PVTZ
    Blend: AUG-CC-PVTZ
  Basis Set: (AUG-CC-PVTZ AUX)
    Blend: AUG-CC-PVTZ-JKFIT
	 Reference Energy          =    -499.4443755509105358 [Eh]
	 Singles Energy            =      -0.0000000000000000 [Eh]
	 Same-Spin Energy          =      -0.5641310308978502 [Eh]
	 Opposite-Spin Energy      =      -1.7785554791936606 [Eh]
	 Correlation Energy        =      -2.3426865100915109 [Eh]
	 Total Energy              =    -501.7870620610020751 [Eh]

	 ================> DF-SCS-MP2 Energies <==================
	-----------------------------------------------------------
	 SCS Same-Spin Scale       =       0.3333333333333333 [-]
	 SCS Opposite-Spin Scale   =       1.2000000000000000 [-]
	 SCS Same-Spin Energy      =      -0.1880436769659501 [Eh]
	 SCS Opposite-Spin Energy  =      -2.1342665750323926 [Eh]
	 SCS Correlation Energy    =      -2.3223102519983425 [Eh]
	 SCS Total Energy          =    -501.7666858029088530 [Eh]
	-----------------------------------------------------------

  Dipole Moment: [D]
     X:    -0.0000      Y:    -0.0001      Z:     0.0719     Total:     0.0719

*** Psi4 exiting successfully. Buy a developer a beer!
