                               Psi4 1.3.2 release

  ==> Input File <==

--------------------------------------------------------------------------
#psi4
#
memory 32 gb

molecule  {
0 1
  C       -0.0384155     0.0868211     1.5582603
  C       -1.2520500    -0.0616820     0.6690270
  C        1.2520490     0.0607460     0.6690880
  C       -1.4240560    -1.1040230    -0.2532470
  C        1.4240080     1.1043180    -0.2518010
  C       -2.2519720     0.9105530     0.7796940
  C        2.2520300    -0.9115710     0.7784920
  C       -2.5726140    -1.1747650    -1.0400080
  C        2.5725550     1.1761430    -1.0384820
  C       -3.4033600     0.8449620    -0.0099780
  C        3.4034060    -0.8448920    -0.0111060
  C       -3.5670250    -0.1989710    -0.9208610
  C        3.5670250     0.2002580    -0.9206030
  H       -0.0499850     0.8761900     2.1725100
  H        0.0500080    -0.8791980     2.1713010
  H       -0.6441500    -1.8566960    -0.3590190
  H        0.6440540     1.8570770    -0.3565980
  H       -2.1304810     1.7254050     1.4919990
  H        2.1305710    -1.7273750     1.4897110
  H       -2.6925720    -1.9901910    -1.7497850
  H        2.6924780     1.9925180    -1.7471720
  H       -4.1706330     1.6097110     0.0875230
  H        4.1707290    -1.6097160     0.0854040
  H       -4.4617180    -0.2525870    -1.5364500
  H        4.4617050     0.2547150    -1.5361360
units angstrom
no_reorient  #important for SAPT in psi4, default
symmetry c1  #important for SAPT in psi4, default
}

set PROPERTIES_ORIGIN ["COM"]
properties('MP2/aug-cc-pvtz', properties = ['dipole'])
--------------------------------------------------------------------------

    Molecular point group: c1
  Charge       = 0
  Multiplicity = 1
  Basis Set: AUG-CC-PVTZ
    Blend: AUG-CC-PVTZ
  Basis Set: (AUG-CC-PVTZ AUX)
    Blend: AUG-CC-PVTZ-JKFIT

    Orbital Energies [Eh]
    ---------------------

    Doubly Occupied:

       1A    -11.245115     2A    -11.243882     3A    -11.237954
       4A    -11.236574     5A    -11.236522     6A    -11.235712
       7A    -11.235205     8A    -11.233886     9A    -11.232620
      10A    -11.232257    11A    -11.232056    12A    -11.231233
      13A    -11.230129    14A     -1.160110    15A     -1.144465
      16A     -1.064449    17A     -1.012464    18A     -1.010981
      19A     -1.005473    20A     -0.928438    21A     -0.828775
      22A     -0.823120    23A     -0.812205    24A     -0.786219
      25A     -0.696908    26A     -0.690216    27A     -0.647541
      28A     -0.636187    29A     -0.630808    30A     -0.616067
      31A     -0.586189    32A     -0.583581    33A     -0.579460
      34A     -0.565093    35A     -0.546541    36A     -0.508280
      37A     -0.496907    38A     -0.494750    39A     -0.488359
      40A     -0.476239    41A     -0.468869    42A     -0.340873
      43A     -0.335260    44A     -0.334008    45A     -0.313697

  @DF-RHF Final Energy:  -499.43170619070730

   => Energetics <=

    Nuclear Repulsion Energy =            692.5016206760324167
    One-Electron Energy =               -2048.5153016843310070
    Two-Electron Energy =                 856.5819748175913446
    Total Energy =                       -499.4317061907072457
  Basis Set: (AUG-CC-PVTZ AUX)
    Blend: AUG-CC-PVTZ-RI
    Molecular point group: c1

    Geometry (in Angstrom), charge = 0, multiplicity = 1:

       Center              X                  Y                   Z               Mass
    ------------   -----------------  -----------------  -----------------  -----------------
         C           -0.035672818963     0.080547124280     1.556376468494    12.000000000000
         C           -1.249307318963    -0.067955975720     0.667143168494    12.000000000000
         C            1.254791681037     0.054472024280     0.667204168494    12.000000000000
         C           -1.421313318963    -1.110296975720    -0.255130831506    12.000000000000
         C            1.426750681037     1.098044024280    -0.253684831506    12.000000000000
         C           -2.249229318963     0.904279024280     0.777810168494    12.000000000000
         C            2.254772681037    -0.917844975720     0.776608168494    12.000000000000
         C           -2.569871318963    -1.181038975720    -1.041891831506    12.000000000000
         C            2.575297681037     1.169869024280    -1.040365831506    12.000000000000
         C           -3.400617318963     0.838688024280    -0.011861831506    12.000000000000
         C            3.406148681037    -0.851165975720    -0.012989831506    12.000000000000
         C           -3.564282318963    -0.205244975720    -0.922744831506    12.000000000000
         C            3.569767681037     0.193984024280    -0.922486831506    12.000000000000
         H           -0.047242318963     0.869916024280     2.170626168494     1.007825032230
         H            0.052750681037    -0.885471975720     2.169417168494     1.007825032230
         H           -0.641407318963    -1.862969975720    -0.360902831506     1.007825032230
         H            0.646796681037     1.850803024280    -0.358481831506     1.007825032230
         H           -2.127738318963     1.719131024280     1.490115168494     1.007825032230
         H            2.133313681037    -1.733648975720     1.487827168494     1.007825032230
         H           -2.689829318963    -1.996464975720    -1.751668831506     1.007825032230
         H            2.695220681037     1.986244024280    -1.749055831506     1.007825032230
         H           -4.167890318963     1.603437024280     0.085639168494     1.007825032230
         H            4.173471681037    -1.615989975720     0.083520168494     1.007825032230
         H           -4.458975318963    -0.258860975720    -1.538333831506     1.007825032230
         H            4.464447681037     0.248441024280    -1.538019831506     1.007825032230

  Basis Set: AUG-CC-PVTZ
    Blend: AUG-CC-PVTZ
  Basis Set: (AUG-CC-PVTZ AUX)
    Blend: AUG-CC-PVTZ-JKFIT
	 Reference Energy          =    -499.4317061907073025 [Eh]
	 Singles Energy            =      -0.0000000000000000 [Eh]
	 Same-Spin Energy          =      -0.5640206523314991 [Eh]
	 Opposite-Spin Energy      =      -1.7788511736676611 [Eh]
	 Correlation Energy        =      -2.3428718259991603 [Eh]
	 Total Energy              =    -501.7745780167064709 [Eh]

	 ================> DF-SCS-MP2 Energies <==================
	-----------------------------------------------------------
	 SCS Same-Spin Scale       =       0.3333333333333333 [-]
	 SCS Opposite-Spin Scale   =       1.2000000000000000 [-]
	 SCS Same-Spin Energy      =      -0.1880068841104997 [Eh]
	 SCS Opposite-Spin Energy  =      -2.1346214084011934 [Eh]
	 SCS Correlation Energy    =      -2.3226282925116930 [Eh]
	 SCS Total Energy          =    -501.7543344832189973 [Eh]
	-----------------------------------------------------------

  Dipole Moment: [D]
     X:     0.0382      Y:     0.0544      Z:     0.0877     Total:     0.1100

*** Psi4 exiting successfully. Buy a developer a beer!
