                               Psi4 1.3.2 release

  ==> Input File <==

--------------------------------------------------------------------------
#psi4
#
memory 32 gb

molecule  {
0 1
  C        0.0000050    -0.0010510     1.5142370
  C       -1.1569524    -0.0569453     0.5426284
  C        1.2520490     0.0607460     0.6690880
  C       -1.4240560    -1.1040230    -0.2532470
  C        1.4240080     1.1043180    -0.2518010
  C       -2.2519720     0.9105530     0.7796940
  C        2.2520300    -0.9115710     0.7784920
  C       -2.5726140    -1.1747650    -1.0400080
  C        2.5725550     1.1761430    -1.0384820
  C       -3.4033600     0.8449620    -0.0099780
  C        3.4034060    -0.8448920    -0.0111060
  C       -3.5670250    -0.1989710    -0.9208610
  C        3.5670250     0.2002580    -0.9206030
  H       -0.0499850     0.8761900     2.1725100
  H        0.0500080    -0.8791980     2.1713010
  H       -0.6441500    -1.8566960    -0.3590190
  H        0.6440540     1.8570770    -0.3565980
  H       -2.1304810     1.7254050     1.4919990
  H        2.1305710    -1.7273750     1.4897110
  H       -2.6925720    -1.9901910    -1.7497850
  H        2.6924780     1.9925180    -1.7471720
  H       -4.1706330     1.6097110     0.0875230
  H        4.1707290    -1.6097160     0.0854040
  H       -4.4617180    -0.2525870    -1.5364500
  H        4.4617050     0.2547150    -1.5361360
units angstrom
no_reorient  #important for SAPT in psi4, default
symmetry c1  #important for SAPT in psi4, default
}

set PROPERTIES_ORIGIN ["COM"]
properties('MP2/aug-cc-pvtz', properties = ['dipole'])
--------------------------------------------------------------------------

    Molecular point group: c1
  Charge       = 0
  Multiplicity = 1
  Basis Set: AUG-CC-PVTZ
    Blend: AUG-CC-PVTZ
  Basis Set: (AUG-CC-PVTZ AUX)
    Blend: AUG-CC-PVTZ-JKFIT

    Orbital Energies [Eh]
    ---------------------

    Doubly Occupied:

       1A    -11.244115     2A    -11.241270     3A    -11.241083
       4A    -11.238560     5A    -11.236466     6A    -11.235760
       7A    -11.235470     8A    -11.235192     9A    -11.233413
      10A    -11.231429    11A    -11.231247    12A    -11.229847
      13A    -11.224971    14A     -1.162378    15A     -1.143904
      16A     -1.068561    17A     -1.015027    18A     -1.010945
      19A     -1.001814    20A     -0.925858    21A     -0.828407
      22A     -0.825681    23A     -0.811702    24A     -0.780256
      25A     -0.696645    26A     -0.689099    27A     -0.644000
      28A     -0.639177    29A     -0.632084    30A     -0.612302
      31A     -0.589013    32A     -0.583246    33A     -0.573436
      34A     -0.568346    35A     -0.544406    36A     -0.509737
      37A     -0.500664    38A     -0.493392    39A     -0.488178
      40A     -0.480671    41A     -0.460480    42A     -0.347853
      43A     -0.334627    44A     -0.327930    45A     -0.312083

  @DF-RHF Final Energy:  -499.42796280225497

   => Energetics <=

    Nuclear Repulsion Energy =            694.0831513163286672
    One-Electron Energy =               -2051.7007790342790940
    Two-Electron Energy =                 858.1896649156954027
    Total Energy =                       -499.4279628022550241
  Basis Set: (AUG-CC-PVTZ AUX)
    Blend: AUG-CC-PVTZ-RI
    Molecular point group: c1

    Geometry (in Angstrom), charge = 0, multiplicity = 1:

       Center              X                  Y                   Z               Mass
    ------------   -----------------  -----------------  -----------------  -----------------
         C           -0.006783998556    -0.001390050076     1.524519361291    12.000000000000
         C           -1.163741398556    -0.057284350076     0.552910761291    12.000000000000
         C            1.245260001444     0.060406949924     0.679370361291    12.000000000000
         C           -1.430844998556    -1.104362050076    -0.242964638709    12.000000000000
         C            1.417219001444     1.103978949924    -0.241518638709    12.000000000000
         C           -2.258760998556     0.910213949924     0.789976361291    12.000000000000
         C            2.245241001444    -0.911910050076     0.788774361291    12.000000000000
         C           -2.579402998556    -1.175104050076    -1.029725638709    12.000000000000
         C            2.565766001444     1.175803949924    -1.028199638709    12.000000000000
         C           -3.410148998556     0.844622949924     0.000304361291    12.000000000000
         C            3.396617001444    -0.845231050076    -0.000823638709    12.000000000000
         C           -3.573813998556    -0.199310050076    -0.910578638709    12.000000000000
         C            3.560236001444     0.199918949924    -0.910320638709    12.000000000000
         H           -0.056773998556     0.875850949924     2.182792361291     1.007825032230
         H            0.043219001444    -0.879537050076     2.181583361291     1.007825032230
         H           -0.650938998556    -1.857035050076    -0.348736638709     1.007825032230
         H            0.637265001444     1.856737949924    -0.346315638709     1.007825032230
         H           -2.137269998556     1.725065949924     1.502281361291     1.007825032230
         H            2.123782001444    -1.727714050076     1.499993361291     1.007825032230
         H           -2.699360998556    -1.990530050076    -1.739502638709     1.007825032230
         H            2.685689001444     1.992178949924    -1.736889638709     1.007825032230
         H           -4.177421998556     1.609371949924     0.097805361291     1.007825032230
         H            4.163940001444    -1.610055050076     0.095686361291     1.007825032230
         H           -4.468506998556    -0.252926050076    -1.526167638709     1.007825032230
         H            4.454916001444     0.254375949924    -1.525853638709     1.007825032230

  Basis Set: AUG-CC-PVTZ
    Blend: AUG-CC-PVTZ
  Basis Set: (AUG-CC-PVTZ AUX)
    Blend: AUG-CC-PVTZ-JKFIT
	 Reference Energy          =    -499.4279628022549673 [Eh]
	 Singles Energy            =      -0.0000000000000000 [Eh]
	 Same-Spin Energy          =      -0.5648283653029282 [Eh]
	 Opposite-Spin Energy      =      -1.7804518335939594 [Eh]
	 Correlation Energy        =      -2.3452801988968877 [Eh]
	 Total Energy              =    -501.7732430011518545 [Eh]

	 ================> DF-SCS-MP2 Energies <==================
	-----------------------------------------------------------
	 SCS Same-Spin Scale       =       0.3333333333333333 [-]
	 SCS Opposite-Spin Scale   =       1.2000000000000000 [-]
	 SCS Same-Spin Energy      =      -0.1882761217676427 [Eh]
	 SCS Opposite-Spin Energy  =      -2.1365422003127512 [Eh]
	 SCS Correlation Energy    =      -2.3248183220803940 [Eh]
	 SCS Total Energy          =    -501.7527811243353426 [Eh]
	-----------------------------------------------------------

  Dipole Moment: [D]
     X:    -0.0964      Y:    -0.0063      Z:     0.1426     Total:     0.1723

*** Psi4 exiting successfully. Buy a developer a beer!
