                               Psi4 1.3.2 release

  ==> Input File <==

--------------------------------------------------------------------------
#psi4
#
memory 32 gb

molecule  {
0 1
  C        0.0000050    -0.0010510     1.5142370
  C       -1.2665919    -0.0624082     0.6910327
  C        1.2520490     0.0607460     0.6690880
  C       -1.4240560    -1.1040230    -0.2532470
  C        1.4240080     1.1043180    -0.2518010
  C       -2.2519720     0.9105530     0.7796940
  C        2.2520300    -0.9115710     0.7784920
  C       -2.5726140    -1.1747650    -1.0400080
  C        2.5725550     1.1761430    -1.0384820
  C       -3.4033600     0.8449620    -0.0099780
  C        3.4034060    -0.8448920    -0.0111060
  C       -3.5670250    -0.1989710    -0.9208610
  C        3.5670250     0.2002580    -0.9206030
  H       -0.0499850     0.8761900     2.1725100
  H        0.0500080    -0.8791980     2.1713010
  H       -0.6441500    -1.8566960    -0.3590190
  H        0.6440540     1.8570770    -0.3565980
  H       -2.1304810     1.7254050     1.4919990
  H        2.1305710    -1.7273750     1.4897110
  H       -2.6925720    -1.9901910    -1.7497850
  H        2.6924780     1.9925180    -1.7471720
  H       -4.1706330     1.6097110     0.0875230
  H        4.1707290    -1.6097160     0.0854040
  H       -4.4617180    -0.2525870    -1.5364500
  H        4.4617050     0.2547150    -1.5361360
units angstrom
no_reorient  #important for SAPT in psi4, default
symmetry c1  #important for SAPT in psi4, default
}

set PROPERTIES_ORIGIN ["COM"]
properties('MP2/aug-cc-pvtz', properties = ['dipole'])
--------------------------------------------------------------------------

    Molecular point group: c1
  Charge       = 0
  Multiplicity = 1
  Basis Set: AUG-CC-PVTZ
    Blend: AUG-CC-PVTZ
  Basis Set: (AUG-CC-PVTZ AUX)
    Blend: AUG-CC-PVTZ-JKFIT

    Orbital Energies [Eh]
    ---------------------

    Doubly Occupied:

       1A    -11.243118     2A    -11.242810     3A    -11.237715
       4A    -11.236429     5A    -11.236253     6A    -11.235896
       7A    -11.235657     8A    -11.233222     9A    -11.232765
      10A    -11.232689    11A    -11.232181    12A    -11.231790
      13A    -11.231112    14A     -1.161572    15A     -1.144993
      16A     -1.066676    17A     -1.013398    18A     -1.011298
      19A     -1.006244    20A     -0.926074    21A     -0.829396
      22A     -0.823437    23A     -0.813923    24A     -0.783359
      25A     -0.698482    26A     -0.687866    27A     -0.642722
      28A     -0.636713    29A     -0.634366    30A     -0.616615
      31A     -0.584545    32A     -0.583388    33A     -0.573338
      34A     -0.570164    35A     -0.544385    36A     -0.509453
      37A     -0.496227    38A     -0.495612    39A     -0.481790
      40A     -0.480477    41A     -0.477470    42A     -0.339595
      43A     -0.336131    44A     -0.334534    45A     -0.314487

  @DF-RHF Final Energy:  -499.44409716638904

   => Energetics <=

    Nuclear Repulsion Energy =            693.1067303955383068
    One-Electron Energy =               -2049.7409229418672112
    Two-Electron Energy =                 857.1900953799398621
    Total Energy =                       -499.4440971663890423
  Basis Set: (AUG-CC-PVTZ AUX)
    Blend: AUG-CC-PVTZ-RI
    Molecular point group: c1

    Geometry (in Angstrom), charge = 0, multiplicity = 1:

       Center              X                  Y                   Z               Mass
    ------------   -----------------  -----------------  -----------------  -----------------
         C            0.001043019539    -0.001000060910     1.513924975677    12.000000000000
         C           -1.265553880461    -0.062357260910     0.690720675677    12.000000000000
         C            1.253087019539     0.060796939090     0.668775975677    12.000000000000
         C           -1.423017980461    -1.103972060910    -0.253559024323    12.000000000000
         C            1.425046019539     1.104368939090    -0.252113024323    12.000000000000
         C           -2.250933980461     0.910603939090     0.779381975677    12.000000000000
         C            2.253068019539    -0.911520060910     0.778179975677    12.000000000000
         C           -2.571575980461    -1.174714060910    -1.040320024323    12.000000000000
         C            2.573593019539     1.176193939090    -1.038794024323    12.000000000000
         C           -3.402321980461     0.845012939090    -0.010290024323    12.000000000000
         C            3.404444019539    -0.844841060910    -0.011418024323    12.000000000000
         C           -3.565986980461    -0.198920060910    -0.921173024323    12.000000000000
         C            3.568063019539     0.200308939090    -0.920915024323    12.000000000000
         H           -0.048946980461     0.876240939090     2.172197975677     1.007825032230
         H            0.051046019539    -0.879147060910     2.170988975677     1.007825032230
         H           -0.643111980461    -1.856645060910    -0.359331024323     1.007825032230
         H            0.645092019539     1.857127939090    -0.356910024323     1.007825032230
         H           -2.129442980461     1.725455939090     1.491686975677     1.007825032230
         H            2.131609019539    -1.727324060910     1.489398975677     1.007825032230
         H           -2.691533980461    -1.990140060910    -1.750097024323     1.007825032230
         H            2.693516019539     1.992568939090    -1.747484024323     1.007825032230
         H           -4.169594980461     1.609761939090     0.087210975677     1.007825032230
         H            4.171767019539    -1.609665060910     0.085091975677     1.007825032230
         H           -4.460679980461    -0.252536060910    -1.536762024323     1.007825032230
         H            4.462743019539     0.254765939090    -1.536448024323     1.007825032230

  Basis Set: AUG-CC-PVTZ
    Blend: AUG-CC-PVTZ
  Basis Set: (AUG-CC-PVTZ AUX)
    Blend: AUG-CC-PVTZ-JKFIT
	 Reference Energy          =    -499.4440971663890423 [Eh]
	 Singles Energy            =      -0.0000000000000000 [Eh]
	 Same-Spin Energy          =      -0.5640606060378471 [Eh]
	 Opposite-Spin Energy      =      -1.7785154605927151 [Eh]
	 Correlation Energy        =      -2.3425760666305622 [Eh]
	 Total Energy              =    -501.7866732330195987 [Eh]

	 ================> DF-SCS-MP2 Energies <==================
	-----------------------------------------------------------
	 SCS Same-Spin Scale       =       0.3333333333333333 [-]
	 SCS Opposite-Spin Scale   =       1.2000000000000000 [-]
	 SCS Same-Spin Energy      =      -0.1880202020126157 [Eh]
	 SCS Opposite-Spin Energy  =      -2.1342185527112583 [Eh]
	 SCS Correlation Energy    =      -2.3222387547238741 [Eh]
	 SCS Total Energy          =    -501.7663359211128977 [Eh]
	-----------------------------------------------------------

  Dipole Moment: [D]
     X:     0.0130      Y:     0.0005      Z:     0.0566     Total:     0.0581

*** Psi4 exiting successfully. Buy a developer a beer!
