                               Psi4 1.3.2 release

  ==> Input File <==

--------------------------------------------------------------------------
#psi4
#
memory 32 gb

molecule  {
0 1
  C        0.0000050    -0.0010510     1.5142370
  C       -1.1901145    -0.0585950     0.5836446
  C        1.2520490     0.0607460     0.6690880
  C       -1.4240560    -1.1040230    -0.2532470
  C        1.4240080     1.1043180    -0.2518010
  C       -2.2519720     0.9105530     0.7796940
  C        2.2520300    -0.9115710     0.7784920
  C       -2.5726140    -1.1747650    -1.0400080
  C        2.5725550     1.1761430    -1.0384820
  C       -3.4033600     0.8449620    -0.0099780
  C        3.4034060    -0.8448920    -0.0111060
  C       -3.5670250    -0.1989710    -0.9208610
  C        3.5670250     0.2002580    -0.9206030
  H       -0.0499850     0.8761900     2.1725100
  H        0.0500080    -0.8791980     2.1713010
  H       -0.6441500    -1.8566960    -0.3590190
  H        0.6440540     1.8570770    -0.3565980
  H       -2.1304810     1.7254050     1.4919990
  H        2.1305710    -1.7273750     1.4897110
  H       -2.6925720    -1.9901910    -1.7497850
  H        2.6924780     1.9925180    -1.7471720
  H       -4.1706330     1.6097110     0.0875230
  H        4.1707290    -1.6097160     0.0854040
  H       -4.4617180    -0.2525870    -1.5364500
  H        4.4617050     0.2547150    -1.5361360
units angstrom
no_reorient  #important for SAPT in psi4, default
symmetry c1  #important for SAPT in psi4, default
}

set PROPERTIES_ORIGIN ["COM"]
properties('MP2/aug-cc-pvtz', properties = ['dipole'])
--------------------------------------------------------------------------

    Molecular point group: c1
  Charge       = 0
  Multiplicity = 1
  Basis Set: AUG-CC-PVTZ
    Blend: AUG-CC-PVTZ
  Basis Set: (AUG-CC-PVTZ AUX)
    Blend: AUG-CC-PVTZ-JKFIT

    Orbital Energies [Eh]
    ---------------------

    Doubly Occupied:

       1A    -11.243402     2A    -11.241702     3A    -11.238412
       4A    -11.238228     5A    -11.236312     6A    -11.235833
       7A    -11.235731     8A    -11.235383     9A    -11.232920
      10A    -11.231933    11A    -11.231716    12A    -11.230204
      13A    -11.226548    14A     -1.162167    15A     -1.144278
      16A     -1.067887    17A     -1.013265    18A     -1.011286
      19A     -1.004256    20A     -0.925890    21A     -0.828379
      22A     -0.824874    23A     -0.813018    24A     -0.781520
      25A     -0.697185    26A     -0.688712    27A     -0.643516
      28A     -0.638572    29A     -0.632685    30A     -0.613703
      31A     -0.587043    32A     -0.583564    33A     -0.573003
      34A     -0.569978    35A     -0.544427    36A     -0.509283
      37A     -0.499169    38A     -0.494111    39A     -0.487221
      40A     -0.481140    41A     -0.466222    42A     -0.345157
      43A     -0.334810    44A     -0.329711    45A     -0.313444

  @DF-RHF Final Energy:  -499.43679758660653

   => Energetics <=

    Nuclear Repulsion Energy =            693.8566597116366665
    One-Electron Energy =               -2051.2513153600334590
    Two-Electron Energy =                 857.9578580617902617
    Total Energy =                       -499.4367975866065308
  Basis Set: (AUG-CC-PVTZ AUX)
    Blend: AUG-CC-PVTZ-RI
    Molecular point group: c1

    Geometry (in Angstrom), charge = 0, multiplicity = 1:

       Center              X                  Y                   Z               Mass
    ------------   -----------------  -----------------  -----------------  -----------------
         C           -0.004416600339    -0.001272280187     1.521591269320    12.000000000000
         C           -1.194536100339    -0.058816280187     0.590998869320    12.000000000000
         C            1.247627399661     0.060524719813     0.676442269320    12.000000000000
         C           -1.428477600339    -1.104244280187    -0.245892730680    12.000000000000
         C            1.419586399661     1.104096719813    -0.244446730680    12.000000000000
         C           -2.256393600339     0.910331719813     0.787048269320    12.000000000000
         C            2.247608399661    -0.911792280187     0.785846269320    12.000000000000
         C           -2.577035600339    -1.174986280187    -1.032653730680    12.000000000000
         C            2.568133399661     1.175921719813    -1.031127730680    12.000000000000
         C           -3.407781600339     0.844740719813    -0.002623730680    12.000000000000
         C            3.398984399661    -0.845113280187    -0.003751730680    12.000000000000
         C           -3.571446600339    -0.199192280187    -0.913506730680    12.000000000000
         C            3.562603399661     0.200036719813    -0.913248730680    12.000000000000
         H           -0.054406600339     0.875968719813     2.179864269320     1.007825032230
         H            0.045586399661    -0.879419280187     2.178655269320     1.007825032230
         H           -0.648571600339    -1.856917280187    -0.351664730680     1.007825032230
         H            0.639632399661     1.856855719813    -0.349243730680     1.007825032230
         H           -2.134902600339     1.725183719813     1.499353269320     1.007825032230
         H            2.126149399661    -1.727596280187     1.497065269320     1.007825032230
         H           -2.696993600339    -1.990412280187    -1.742430730680     1.007825032230
         H            2.688056399661     1.992296719813    -1.739817730680     1.007825032230
         H           -4.175054600339     1.609489719813     0.094877269320     1.007825032230
         H            4.166307399661    -1.609937280187     0.092758269320     1.007825032230
         H           -4.466139600339    -0.252808280187    -1.529095730680     1.007825032230
         H            4.457283399661     0.254493719813    -1.528781730680     1.007825032230

  Basis Set: AUG-CC-PVTZ
    Blend: AUG-CC-PVTZ
  Basis Set: (AUG-CC-PVTZ AUX)
    Blend: AUG-CC-PVTZ-JKFIT
	 Reference Energy          =    -499.4367975866065308 [Eh]
	 Singles Energy            =      -0.0000000000000000 [Eh]
	 Same-Spin Energy          =      -0.5645368547031303 [Eh]
	 Opposite-Spin Energy      =      -1.7794976524047867 [Eh]
	 Correlation Energy        =      -2.3440345071079172 [Eh]
	 Total Energy              =    -501.7808320937144231 [Eh]

	 ================> DF-SCS-MP2 Energies <==================
	-----------------------------------------------------------
	 SCS Same-Spin Scale       =       0.3333333333333333 [-]
	 SCS Opposite-Spin Scale   =       1.2000000000000000 [-]
	 SCS Same-Spin Energy      =      -0.1881789515677101 [Eh]
	 SCS Opposite-Spin Energy  =      -2.1353971828857441 [Eh]
	 SCS Correlation Energy    =      -2.3235761344534542 [Eh]
	 SCS Total Energy          =    -501.7603737210599775 [Eh]
	-----------------------------------------------------------

  Dipole Moment: [D]
     X:    -0.0617      Y:    -0.0033      Z:     0.1233     Total:     0.1379

*** Psi4 exiting successfully. Buy a developer a beer!
