                               Psi4 1.3.2 release

  ==> Input File <==

--------------------------------------------------------------------------
#psi4
#
memory 32 gb

molecule  {
0 1
  C        0.0000050    -0.0010510     1.5142370
  C       -1.2380333    -0.0160000     0.6466337
  C        1.2520490     0.0607460     0.6690880
  C       -1.4240560    -1.1040230    -0.2532470
  C        1.4240080     1.1043180    -0.2518010
  C       -2.2519720     0.9105530     0.7796940
  C        2.2520300    -0.9115710     0.7784920
  C       -2.5726140    -1.1747650    -1.0400080
  C        2.5725550     1.1761430    -1.0384820
  C       -3.4033600     0.8449620    -0.0099780
  C        3.4034060    -0.8448920    -0.0111060
  C       -3.5670250    -0.1989710    -0.9208610
  C        3.5670250     0.2002580    -0.9206030
  H       -0.0499850     0.8761900     2.1725100
  H        0.0500080    -0.8791980     2.1713010
  H       -0.6441500    -1.8566960    -0.3590190
  H        0.6440540     1.8570770    -0.3565980
  H       -2.1304810     1.7254050     1.4919990
  H        2.1305710    -1.7273750     1.4897110
  H       -2.6925720    -1.9901910    -1.7497850
  H        2.6924780     1.9925180    -1.7471720
  H       -4.1706330     1.6097110     0.0875230
  H        4.1707290    -1.6097160     0.0854040
  H       -4.4617180    -0.2525870    -1.5364500
  H        4.4617050     0.2547150    -1.5361360
units angstrom
no_reorient  #important for SAPT in psi4, default
symmetry c1  #important for SAPT in psi4, default
}

set PROPERTIES_ORIGIN ["COM"]
properties('MP2/aug-cc-pvtz', properties = ['dipole'])
--------------------------------------------------------------------------

    Molecular point group: c1
  Charge       = 0
  Multiplicity = 1
  Basis Set: AUG-CC-PVTZ
    Blend: AUG-CC-PVTZ
  Basis Set: (AUG-CC-PVTZ AUX)
    Blend: AUG-CC-PVTZ-JKFIT

    Orbital Energies [Eh]
    ---------------------

    Doubly Occupied:

       1A    -11.242872     2A    -11.242524     3A    -11.238014
       4A    -11.236308     5A    -11.236180     6A    -11.235691
       7A    -11.235659     8A    -11.233276     9A    -11.232806
      10A    -11.232745    11A    -11.232352    12A    -11.231145
      13A    -11.230715    14A     -1.161744    15A     -1.144771
      16A     -1.067057    17A     -1.013954    18A     -1.011165
      19A     -1.005169    20A     -0.925982    21A     -0.829691
      22A     -0.823424    23A     -0.812848    24A     -0.783451
      25A     -0.698024    26A     -0.688140    27A     -0.642949
      28A     -0.637998    29A     -0.633330    30A     -0.616665
      31A     -0.584461    32A     -0.583192    33A     -0.571853
      34A     -0.571272    35A     -0.544632    36A     -0.508900
      37A     -0.497255    38A     -0.495542    39A     -0.482960
      40A     -0.479711    41A     -0.475927    42A     -0.339542
      43A     -0.337040    44A     -0.334279    45A     -0.313393

  @DF-RHF Final Energy:  -499.44265550152761

   => Energetics <=

    Nuclear Repulsion Energy =            693.4416529145100867
    One-Electron Energy =               -2050.4154021343233580
    Two-Electron Energy =                 857.5310937182856605
    Total Energy =                       -499.4426555015276108
  Basis Set: (AUG-CC-PVTZ AUX)
    Blend: AUG-CC-PVTZ-RI
    Molecular point group: c1

    Geometry (in Angstrom), charge = 0, multiplicity = 1:

       Center              X                  Y                   Z               Mass
    ------------   -----------------  -----------------  -----------------  -----------------
         C           -0.000995740934    -0.004313080590     1.517094561241    12.000000000000
         C           -1.239034040934    -0.019262080590     0.649491261241    12.000000000000
         C            1.251048259066     0.057483919410     0.671945561241    12.000000000000
         C           -1.425056740934    -1.107285080590    -0.250389438759    12.000000000000
         C            1.423007259066     1.101055919410    -0.248943438759    12.000000000000
         C           -2.252972740934     0.907290919410     0.782551561241    12.000000000000
         C            2.251029259066    -0.914833080590     0.781349561241    12.000000000000
         C           -2.573614740934    -1.178027080590    -1.037150438759    12.000000000000
         C            2.571554259066     1.172880919410    -1.035624438759    12.000000000000
         C           -3.404360740934     0.841699919410    -0.007120438759    12.000000000000
         C            3.402405259066    -0.848154080590    -0.008248438759    12.000000000000
         C           -3.568025740934    -0.202233080590    -0.918003438759    12.000000000000
         C            3.566024259066     0.196995919410    -0.917745438759    12.000000000000
         H           -0.050985740934     0.872927919410     2.175367561241     1.007825032230
         H            0.049007259066    -0.882460080590     2.174158561241     1.007825032230
         H           -0.645150740934    -1.859958080590    -0.356161438759     1.007825032230
         H            0.643053259066     1.853814919410    -0.353740438759     1.007825032230
         H           -2.131481740934     1.722142919410     1.494856561241     1.007825032230
         H            2.129570259066    -1.730637080590     1.492568561241     1.007825032230
         H           -2.693572740934    -1.993453080590    -1.746927438759     1.007825032230
         H            2.691477259066     1.989255919410    -1.744314438759     1.007825032230
         H           -4.171633740934     1.606448919410     0.090380561241     1.007825032230
         H            4.169728259066    -1.612978080590     0.088261561241     1.007825032230
         H           -4.462718740934    -0.255849080590    -1.533592438759     1.007825032230
         H            4.460704259066     0.251452919410    -1.533278438759     1.007825032230

  Basis Set: AUG-CC-PVTZ
    Blend: AUG-CC-PVTZ
  Basis Set: (AUG-CC-PVTZ AUX)
    Blend: AUG-CC-PVTZ-JKFIT
	 Reference Energy          =    -499.4426555015276108 [Eh]
	 Singles Energy            =      -0.0000000000000000 [Eh]
	 Same-Spin Energy          =      -0.5642009684198976 [Eh]
	 Opposite-Spin Energy      =      -1.7788097420425277 [Eh]
	 Correlation Energy        =      -2.3430107104624254 [Eh]
	 Total Energy              =    -501.7856662119900193 [Eh]

	 ================> DF-SCS-MP2 Energies <==================
	-----------------------------------------------------------
	 SCS Same-Spin Scale       =       0.3333333333333333 [-]
	 SCS Opposite-Spin Scale   =       1.2000000000000000 [-]
	 SCS Same-Spin Energy      =      -0.1880669894732992 [Eh]
	 SCS Opposite-Spin Energy  =      -2.1345716904510330 [Eh]
	 SCS Correlation Energy    =      -2.3226386799243324 [Eh]
	 SCS Total Energy          =    -501.7652941814519636 [Eh]
	-----------------------------------------------------------

  Dipole Moment: [D]
     X:    -0.0251      Y:    -0.0145      Z:     0.0823     Total:     0.0873

*** Psi4 exiting successfully. Buy a developer a beer!
