                               Psi4 1.3.2 release

  ==> Input File <==

--------------------------------------------------------------------------
#psi4
#
memory 32 gb

molecule  {
0 1
  C        0.0086637    -0.0230819     1.5025789
  C       -1.2520500    -0.0616820     0.6690270
  C        1.2520490     0.0607460     0.6690880
  C       -1.4240560    -1.1040230    -0.2532470
  C        1.4240080     1.1043180    -0.2518010
  C       -2.2519720     0.9105530     0.7796940
  C        2.2520300    -0.9115710     0.7784920
  C       -2.5726140    -1.1747650    -1.0400080
  C        2.5725550     1.1761430    -1.0384820
  C       -3.4033600     0.8449620    -0.0099780
  C        3.4034060    -0.8448920    -0.0111060
  C       -3.5670250    -0.1989710    -0.9208610
  C        3.5670250     0.2002580    -0.9206030
  H       -0.0499850     0.8761900     2.1725100
  H        0.0500080    -0.8791980     2.1713010
  H       -0.6441500    -1.8566960    -0.3590190
  H        0.6440540     1.8570770    -0.3565980
  H       -2.1304810     1.7254050     1.4919990
  H        2.1305710    -1.7273750     1.4897110
  H       -2.6925720    -1.9901910    -1.7497850
  H        2.6924780     1.9925180    -1.7471720
  H       -4.1706330     1.6097110     0.0875230
  H        4.1707290    -1.6097160     0.0854040
  H       -4.4617180    -0.2525870    -1.5364500
  H        4.4617050     0.2547150    -1.5361360
units angstrom
no_reorient  #important for SAPT in psi4, default
symmetry c1  #important for SAPT in psi4, default
}

set PROPERTIES_ORIGIN ["COM"]
properties('MP2/aug-cc-pvtz', properties = ['dipole'])
--------------------------------------------------------------------------

    Molecular point group: c1
  Charge       = 0
  Multiplicity = 1
  Basis Set: AUG-CC-PVTZ
    Blend: AUG-CC-PVTZ
  Basis Set: (AUG-CC-PVTZ AUX)
    Blend: AUG-CC-PVTZ-JKFIT

    Orbital Energies [Eh]
    ---------------------

    Doubly Occupied:

       1A    -11.242768     2A    -11.242378     3A    -11.238200
       4A    -11.236459     5A    -11.236260     6A    -11.235951
       7A    -11.235669     8A    -11.233422     9A    -11.232783
      10A    -11.232739    11A    -11.232538    12A    -11.231162
      13A    -11.230694    14A     -1.162227    15A     -1.145027
      16A     -1.067650    17A     -1.012776    18A     -1.011207
      19A     -1.007142    20A     -0.925764    21A     -0.829286
      22A     -0.823665    23A     -0.814640    24A     -0.782737
      25A     -0.698630    26A     -0.687894    27A     -0.642886
      28A     -0.637516    29A     -0.634235    30A     -0.616199
      31A     -0.584534    32A     -0.583777    33A     -0.574421
      34A     -0.570736    35A     -0.541739    36A     -0.509642
      37A     -0.496721    38A     -0.495431    39A     -0.483589
      40A     -0.479553    41A     -0.476481    42A     -0.340401
      43A     -0.335468    44A     -0.333922    45A     -0.314622

  @DF-RHF Final Energy:  -499.44342679870516

   => Energetics <=

    Nuclear Repulsion Energy =            693.4739488295276715
    One-Electron Energy =               -2050.4716726332435428
    Two-Electron Energy =                 857.5542970050107670
    Total Energy =                       -499.4434267987051044
  Basis Set: (AUG-CC-PVTZ AUX)
    Blend: AUG-CC-PVTZ-RI
    Molecular point group: c1

    Geometry (in Angstrom), charge = 0, multiplicity = 1:

       Center              X                  Y                   Z               Mass
    ------------   -----------------  -----------------  -----------------  -----------------
         C            0.008045459560    -0.021510046710     1.504670089589    12.000000000000
         C           -1.252668240440    -0.060110146710     0.671118189589    12.000000000000
         C            1.251430759560     0.062317853290     0.671179189589    12.000000000000
         C           -1.424674240440    -1.102451146710    -0.251155810411    12.000000000000
         C            1.423389759560     1.105889853290    -0.249709810411    12.000000000000
         C           -2.252590240440     0.912124853290     0.781785189589    12.000000000000
         C            2.251411759560    -0.909999146710     0.780583189589    12.000000000000
         C           -2.573232240440    -1.173193146710    -1.037916810411    12.000000000000
         C            2.571936759560     1.177714853290    -1.036390810411    12.000000000000
         C           -3.403978240440     0.846533853290    -0.007886810411    12.000000000000
         C            3.402787759560    -0.843320146710    -0.009014810411    12.000000000000
         C           -3.567643240440    -0.197399146710    -0.918769810411    12.000000000000
         C            3.566406759560     0.201829853290    -0.918511810411    12.000000000000
         H           -0.050603240440     0.877761853290     2.174601189589     1.007825032230
         H            0.049389759560    -0.877626146710     2.173392189589     1.007825032230
         H           -0.644768240440    -1.855124146710    -0.356927810411     1.007825032230
         H            0.643435759560     1.858648853290    -0.354506810411     1.007825032230
         H           -2.131099240440     1.726976853290     1.494090189589     1.007825032230
         H            2.129952759560    -1.725803146710     1.491802189589     1.007825032230
         H           -2.693190240440    -1.988619146710    -1.747693810411     1.007825032230
         H            2.691859759560     1.994089853290    -1.745080810411     1.007825032230
         H           -4.171251240440     1.611282853290     0.089614189589     1.007825032230
         H            4.170110759560    -1.608144146710     0.087495189589     1.007825032230
         H           -4.462336240440    -0.251015146710    -1.534358810411     1.007825032230
         H            4.461086759560     0.256286853290    -1.534044810411     1.007825032230

  Basis Set: AUG-CC-PVTZ
    Blend: AUG-CC-PVTZ
  Basis Set: (AUG-CC-PVTZ AUX)
    Blend: AUG-CC-PVTZ-JKFIT
	 Reference Energy          =    -499.4434267987051612 [Eh]
	 Singles Energy            =      -0.0000000000000000 [Eh]
	 Same-Spin Energy          =      -0.5642591434836253 [Eh]
	 Opposite-Spin Energy      =      -1.7787224023718273 [Eh]
	 Correlation Energy        =      -2.3429815458554524 [Eh]
	 Total Energy              =    -501.7864083445606411 [Eh]

	 ================> DF-SCS-MP2 Energies <==================
	-----------------------------------------------------------
	 SCS Same-Spin Scale       =       0.3333333333333333 [-]
	 SCS Opposite-Spin Scale   =       1.2000000000000000 [-]
	 SCS Same-Spin Energy      =      -0.1880863811612084 [Eh]
	 SCS Opposite-Spin Energy  =      -2.1344668828461928 [Eh]
	 SCS Correlation Energy    =      -2.3225532640074014 [Eh]
	 SCS Total Energy          =    -501.7659800627125719 [Eh]
	-----------------------------------------------------------

  Dipole Moment: [D]
     X:    -0.0111      Y:    -0.0157      Z:     0.0619     Total:     0.0648

*** Psi4 exiting successfully. Buy a developer a beer!
