                               Psi4 1.3.2 release

  ==> Input File <==

--------------------------------------------------------------------------
#psi4
#
memory 32 gb

molecule  {
0 1
  C        0.0000050    -0.0010510     1.5142370
  C       -1.2520500    -0.0616820     0.6690270
  C        1.2520490     0.0607460     0.6690880
  C       -1.4240560    -1.1040230    -0.2532470
  C        1.4240080     1.1043180    -0.2518010
  C       -2.2519720     0.9105530     0.7796940
  C        2.2520300    -0.9115710     0.7784920
  C       -2.5726140    -1.1747650    -1.0400080
  C        2.5725550     1.1761430    -1.0384820
  C       -3.4033600     0.8449620    -0.0099780
  C        3.4034060    -0.8448920    -0.0111060
  C       -3.5670250    -0.1989710    -0.9208610
  C        3.5670250     0.2002580    -0.9206030
  H       -0.0499850     0.8761900     2.1725100
  H        0.0408991    -0.7192289     2.0516059
  H       -0.6441500    -1.8566960    -0.3590190
  H        0.6440540     1.8570770    -0.3565980
  H       -2.1304810     1.7254050     1.4919990
  H        2.1305710    -1.7273750     1.4897110
  H       -2.6925720    -1.9901910    -1.7497850
  H        2.6924780     1.9925180    -1.7471720
  H       -4.1706330     1.6097110     0.0875230
  H        4.1707290    -1.6097160     0.0854040
  H       -4.4617180    -0.2525870    -1.5364500
  H        4.4617050     0.2547150    -1.5361360
units angstrom
no_reorient  #important for SAPT in psi4, default
symmetry c1  #important for SAPT in psi4, default
}

set PROPERTIES_ORIGIN ["COM"]
properties('MP2/aug-cc-pvtz', properties = ['dipole'])
--------------------------------------------------------------------------

    Molecular point group: c1
  Charge       = 0
  Multiplicity = 1
  Basis Set: AUG-CC-PVTZ
    Blend: AUG-CC-PVTZ
  Basis Set: (AUG-CC-PVTZ AUX)
    Blend: AUG-CC-PVTZ-JKFIT

    Orbital Energies [Eh]
    ---------------------

    Doubly Occupied:

       1A    -11.241905     2A    -11.241687     3A    -11.236278
       4A    -11.235970     5A    -11.235619     6A    -11.235353
       7A    -11.233031     8A    -11.232398     9A    -11.232267
      10A    -11.232194    11A    -11.230784    12A    -11.229977
      13A    -11.213377    14A     -1.163297    15A     -1.144508
      16A     -1.074202    17A     -1.012428    18A     -1.010887
      19A     -1.006314    20A     -0.940571    21A     -0.829606
      22A     -0.823720    23A     -0.813706    24A     -0.790509
      25A     -0.697881    26A     -0.693579    27A     -0.652579
      28A     -0.638169    29A     -0.633974    30A     -0.616039
      31A     -0.585380    32A     -0.583742    33A     -0.579656
      34A     -0.571904    35A     -0.555110    36A     -0.508780
      37A     -0.496850    38A     -0.495366    39A     -0.484823
      40A     -0.481585    41A     -0.475299    42A     -0.340494
      43A     -0.335183    44A     -0.333913    45A     -0.314614

  @DF-RHF Final Energy:  -499.41226634529465

   => Energetics <=

    Nuclear Repulsion Energy =            694.4431417253528025
    One-Electron Energy =               -2052.2798091162007950
    Two-Electron Energy =                 858.4244010455535090
    Total Energy =                       -499.4122663452945972
  Basis Set: (AUG-CC-PVTZ AUX)
    Blend: AUG-CC-PVTZ-RI
    Molecular point group: c1

    Geometry (in Angstrom), charge = 0, multiplicity = 1:

       Center              X                  Y                   Z               Mass
    ------------   -----------------  -----------------  -----------------  -----------------
         C            0.000059506026    -0.002011015281     1.516213578161    12.000000000000
         C           -1.251995493974    -0.062642015281     0.671003578161    12.000000000000
         C            1.252103506026     0.059785984719     0.671064578161    12.000000000000
         C           -1.424001493974    -1.104983015281    -0.251270421839    12.000000000000
         C            1.424062506026     1.103357984719    -0.249824421839    12.000000000000
         C           -2.251917493974     0.909592984719     0.781670578161    12.000000000000
         C            2.252084506026    -0.912531015281     0.780468578161    12.000000000000
         C           -2.572559493974    -1.175725015281    -1.038031421839    12.000000000000
         C            2.572609506026     1.175182984719    -1.036505421839    12.000000000000
         C           -3.403305493974     0.844001984719    -0.008001421839    12.000000000000
         C            3.403460506026    -0.845852015281    -0.009129421839    12.000000000000
         C           -3.566970493974    -0.199931015281    -0.918884421839    12.000000000000
         C            3.567079506026     0.199297984719    -0.918626421839    12.000000000000
         H           -0.049930493974     0.875229984719     2.174486578161     1.007825032230
         H            0.040953606026    -0.720188915281     2.053582478161     1.007825032230
         H           -0.644095493974    -1.857656015281    -0.357042421839     1.007825032230
         H            0.644108506026     1.856116984719    -0.354621421839     1.007825032230
         H           -2.130426493974     1.724444984719     1.493975578161     1.007825032230
         H            2.130625506026    -1.728335015281     1.491687578161     1.007825032230
         H           -2.692517493974    -1.991151015281    -1.747808421839     1.007825032230
         H            2.692532506026     1.991557984719    -1.745195421839     1.007825032230
         H           -4.170578493974     1.608750984719     0.089499578161     1.007825032230
         H            4.170783506026    -1.610676015281     0.087380578161     1.007825032230
         H           -4.461663493974    -0.253547015281    -1.534473421839     1.007825032230
         H            4.461759506026     0.253754984719    -1.534159421839     1.007825032230

  Basis Set: AUG-CC-PVTZ
    Blend: AUG-CC-PVTZ
  Basis Set: (AUG-CC-PVTZ AUX)
    Blend: AUG-CC-PVTZ-JKFIT
	 Reference Energy          =    -499.4122663452946540 [Eh]
	 Singles Energy            =      -0.0000000000000000 [Eh]
	 Same-Spin Energy          =      -0.5639172244469948 [Eh]
	 Opposite-Spin Energy      =      -1.7775440353819154 [Eh]
	 Correlation Energy        =      -2.3414612598289102 [Eh]
	 Total Energy              =    -501.7537276051235722 [Eh]

	 ================> DF-SCS-MP2 Energies <==================
	-----------------------------------------------------------
	 SCS Same-Spin Scale       =       0.3333333333333333 [-]
	 SCS Opposite-Spin Scale   =       1.2000000000000000 [-]
	 SCS Same-Spin Energy      =      -0.1879724081489982 [Eh]
	 SCS Opposite-Spin Energy  =      -2.1330528424582984 [Eh]
	 SCS Correlation Energy    =      -2.3210252506072968 [Eh]
	 SCS Total Energy          =    -501.7332915959019601 [Eh]
	-----------------------------------------------------------

  Dipole Moment: [D]
     X:     0.0054      Y:    -0.0300      Z:     0.1327     Total:     0.1362

*** Psi4 exiting successfully. Buy a developer a beer!
