                               Psi4 1.4a3.dev225

  ==> Input File <==

--------------------------------------------------------------------------
#psi4
#
memory 32 gb

molecule  {
0 1
  C        0.0000050    -0.0010510     1.5142370
  C       -1.2106420    -0.0596768     0.6969798
  C        1.2520490     0.0607460     0.6690880
  C       -1.4240560    -1.1040230    -0.2532470
  C        1.4240080     1.1043180    -0.2518010
  C       -2.2519720     0.9105530     0.7796940
  C        2.2520300    -0.9115710     0.7784920
  C       -2.5726140    -1.1747650    -1.0400080
  C        2.5725550     1.1761430    -1.0384820
  C       -3.4033600     0.8449620    -0.0099780
  C        3.4034060    -0.8448920    -0.0111060
  C       -3.5670250    -0.1989710    -0.9208610
  C        3.5670250     0.2002580    -0.9206030
  H       -0.0499850     0.8761900     2.1725100
  H        0.0500080    -0.8791980     2.1713010
  H       -0.6441500    -1.8566960    -0.3590190
  H        0.6440540     1.8570770    -0.3565980
  H       -2.1304810     1.7254050     1.4919990
  H        2.1305710    -1.7273750     1.4897110
  H       -2.6925720    -1.9901910    -1.7497850
  H        2.6924780     1.9925180    -1.7471720
  H       -4.1706330     1.6097110     0.0875230
  H        4.1707290    -1.6097160     0.0854040
  H       -4.4617180    -0.2525870    -1.5364500
  H        4.4617050     0.2547150    -1.5361360
units angstrom
no_reorient  #important for SAPT in psi4, default
symmetry c1  #important for SAPT in psi4, default
}

set PROPERTIES_ORIGIN ["COM"]
properties('MP2/aug-cc-pvtz', properties = ['dipole'])
--------------------------------------------------------------------------

    Molecular point group: c1
  Charge       = 0
  Multiplicity = 1
  Basis Set: AUG-CC-PVTZ
    Blend: AUG-CC-PVTZ
  Basis Set: (AUG-CC-PVTZ AUX)
    Blend: AUG-CC-PVTZ-JKFIT

    Orbital Energies [Eh]
    ---------------------

    Doubly Occupied:

       1A    -11.246183     2A    -11.243757     3A    -11.236785
       4A    -11.236587     5A    -11.236451     6A    -11.236281
       7A    -11.235701     8A    -11.235240     9A    -11.233635
      10A    -11.233382    11A    -11.233116    12A    -11.232811
      13A    -11.231602    14A     -1.161946    15A     -1.142345
      16A     -1.072466    17A     -1.012605    18A     -1.009237
      19A     -1.005863    20A     -0.928453    21A     -0.828899
      22A     -0.821742    23A     -0.815187    24A     -0.782196
      25A     -0.698383    26A     -0.687679    27A     -0.644753
      28A     -0.639656    29A     -0.635973    30A     -0.614963
      31A     -0.584710    32A     -0.580101    33A     -0.576105
      34A     -0.573144    35A     -0.545637    36A     -0.510369
      37A     -0.496908    38A     -0.494759    39A     -0.485175
      40A     -0.480022    41A     -0.472751    42A     -0.340101
      43A     -0.335490    44A     -0.332978    45A     -0.311859

  @DF-RHF Final Energy:  -499.43966289087314

   => Energetics <=

    Nuclear Repulsion Energy =            693.1892823808145749
    One-Electron Energy =               -2049.8699180196090310
    Two-Electron Energy =                 857.2409727479213188
    Total Energy =                       -499.4396628908731373
  Basis Set: (AUG-CC-PVTZ AUX)
    Blend: AUG-CC-PVTZ-RI
    Molecular point group: c1

    Geometry (in Angstrom), charge = 0, multiplicity = 1:

       Center              X                  Y                   Z               Mass
    ------------   -----------------  -----------------  -----------------  -----------------
         C           -0.002951169414    -0.001195051924     1.513500420117    12.000000000000
         C           -1.213598169414    -0.059820851924     0.696243220117    12.000000000000
         C            1.249092830586     0.060601948076     0.668351420117    12.000000000000
         C           -1.427012169414    -1.104167051924    -0.253983579883    12.000000000000
         C            1.421051830586     1.104173948076    -0.252537579883    12.000000000000
         C           -2.254928169414     0.910408948076     0.778957420117    12.000000000000
         C            2.249073830586    -0.911715051924     0.777755420117    12.000000000000
         C           -2.575570169414    -1.174909051924    -1.040744579883    12.000000000000
         C            2.569598830586     1.175998948076    -1.039218579883    12.000000000000
         C           -3.406316169414     0.844817948076    -0.010714579883    12.000000000000
         C            3.400449830586    -0.845036051924    -0.011842579883    12.000000000000
         C           -3.569981169414    -0.199115051924    -0.921597579883    12.000000000000
         C            3.564068830586     0.200113948076    -0.921339579883    12.000000000000
         H           -0.052941169414     0.876045948076     2.171773420117     1.007825032230
         H            0.047051830586    -0.879342051924     2.170564420117     1.007825032230
         H           -0.647106169414    -1.856840051924    -0.359755579883     1.007825032230
         H            0.641097830586     1.856932948076    -0.357334579883     1.007825032230
         H           -2.133437169414     1.725260948076     1.491262420117     1.007825032230
         H            2.127614830586    -1.727519051924     1.488974420117     1.007825032230
         H           -2.695528169414    -1.990335051924    -1.750521579883     1.007825032230
         H            2.689521830586     1.992373948076    -1.747908579883     1.007825032230
         H           -4.173589169414     1.609566948076     0.086786420117     1.007825032230
         H            4.167772830586    -1.609860051924     0.084667420117     1.007825032230
         H           -4.464674169414    -0.252731051924    -1.537186579883     1.007825032230
         H            4.458748830586     0.254570948076    -1.536872579883     1.007825032230

  Basis Set: AUG-CC-PVTZ
    Blend: AUG-CC-PVTZ
  Basis Set: (AUG-CC-PVTZ AUX)
    Blend: AUG-CC-PVTZ-JKFIT
	 Reference Energy          =    -499.4396628908731373 [Eh]
	 Singles Energy            =      -0.0000000000000000 [Eh]
	 Same-Spin Energy          =      -0.5647922631915141 [Eh]
	 Opposite-Spin Energy      =      -1.7796395178327240 [Eh]
	 Correlation Energy        =      -2.3444317810242383 [Eh]
	 Total Energy              =    -501.7840946718973782 [Eh]

	 ================> DF-SCS-MP2 Energies <==================
	-----------------------------------------------------------
	 SCS Same-Spin Scale       =       0.3333333333333333 [-]
	 SCS Opposite-Spin Scale   =       1.2000000000000000 [-]
	 SCS Same-Spin Energy      =      -0.1882640877305047 [Eh]
	 SCS Opposite-Spin Energy  =      -2.1355674213992688 [Eh]
	 SCS Correlation Energy    =      -2.3238315091297737 [Eh]
	 SCS Total Energy          =    -501.7634944000029122 [Eh]
	-----------------------------------------------------------

  Dipole Moment: [D]
     X:     0.0801      Y:    -0.0023      Z:     0.0897     Total:     0.1203

*** Psi4 exiting successfully. Buy a developer a beer!
