                               Psi4 1.3.2 release

  ==> Input File <==

--------------------------------------------------------------------------
#psi4
#
memory 32 gb

molecule  {
0 1
  C        0.0000050    -0.0010510     1.5142370
  C       -1.0864181    -0.0536612     0.7808382
  C        1.2520490     0.0607460     0.6690880
  C       -1.4240560    -1.1040230    -0.2532470
  C        1.4240080     1.1043180    -0.2518010
  C       -2.2519720     0.9105530     0.7796940
  C        2.2520300    -0.9115710     0.7784920
  C       -2.5726140    -1.1747650    -1.0400080
  C        2.5725550     1.1761430    -1.0384820
  C       -3.4033600     0.8449620    -0.0099780
  C        3.4034060    -0.8448920    -0.0111060
  C       -3.5670250    -0.1989710    -0.9208610
  C        3.5670250     0.2002580    -0.9206030
  H       -0.0499850     0.8761900     2.1725100
  H        0.0500080    -0.8791980     2.1713010
  H       -0.6441500    -1.8566960    -0.3590190
  H        0.6440540     1.8570770    -0.3565980
  H       -2.1304810     1.7254050     1.4919990
  H        2.1305710    -1.7273750     1.4897110
  H       -2.6925720    -1.9901910    -1.7497850
  H        2.6924780     1.9925180    -1.7471720
  H       -4.1706330     1.6097110     0.0875230
  H        4.1707290    -1.6097160     0.0854040
  H       -4.4617180    -0.2525870    -1.5364500
  H        4.4617050     0.2547150    -1.5361360
units angstrom
no_reorient  #important for SAPT in psi4, default
symmetry c1  #important for SAPT in psi4, default
}

set PROPERTIES_ORIGIN ["COM"]
properties('MP2/aug-cc-pvtz', properties = ['dipole'])
--------------------------------------------------------------------------

    Molecular point group: c1
  Charge       = 0
  Multiplicity = 1
  Basis Set: AUG-CC-PVTZ
    Blend: AUG-CC-PVTZ
  Basis Set: (AUG-CC-PVTZ AUX)
    Blend: AUG-CC-PVTZ-JKFIT

    Orbital Energies [Eh]
    ---------------------

    Doubly Occupied:

       1A    -11.257360     2A    -11.247741     3A    -11.243762
       4A    -11.240979     5A    -11.238648     6A    -11.238092
       7A    -11.236150     8A    -11.235389     9A    -11.235130
      10A    -11.234855    11A    -11.234087    12A    -11.232642
      13A    -11.231140    14A     -1.170118    15A     -1.136705
      16A     -1.092794    17A     -1.014540    18A     -1.006896
      19A     -1.001967    20A     -0.932062    21A     -0.831338
      22A     -0.821651    23A     -0.811649    24A     -0.777347
      25A     -0.701575    26A     -0.685977    27A     -0.656062
      28A     -0.651246    29A     -0.641708    30A     -0.612898
      31A     -0.587414    32A     -0.583175    33A     -0.580232
      34A     -0.571879    35A     -0.548152    36A     -0.516035
      37A     -0.501843    38A     -0.497034    39A     -0.491400
      40A     -0.474281    41A     -0.441889    42A     -0.340201
      43A     -0.337178    44A     -0.330459    45A     -0.298548

  @DF-RHF Final Energy:  -499.38100867127042

   => Energetics <=

    Nuclear Repulsion Energy =            693.2072371957556243
    One-Electron Energy =               -2049.6720388738558540
    Two-Electron Energy =                 857.0837930068297510
    Total Energy =                       -499.3810086712704788
  Basis Set: (AUG-CC-PVTZ AUX)
    Blend: AUG-CC-PVTZ-RI
    Molecular point group: c1

    Geometry (in Angstrom), charge = 0, multiplicity = 1:

       Center              X                  Y                   Z               Mass
    ------------   -----------------  -----------------  -----------------  -----------------
         C           -0.011819348429    -0.001624497608     1.507513880465    12.000000000000
         C           -1.098242448429    -0.054234697608     0.774115080465    12.000000000000
         C            1.240224651571     0.060172502392     0.662364880465    12.000000000000
         C           -1.435880348429    -1.104596497608    -0.259970119535    12.000000000000
         C            1.412183651571     1.103744502392    -0.258524119535    12.000000000000
         C           -2.263796348429     0.909979502392     0.772970880465    12.000000000000
         C            2.240205651571    -0.912144497608     0.771768880465    12.000000000000
         C           -2.584438348429    -1.175338497608    -1.046731119535    12.000000000000
         C            2.560730651571     1.175569502392    -1.045205119535    12.000000000000
         C           -3.415184348429     0.844388502392    -0.016701119535    12.000000000000
         C            3.391581651571    -0.845465497608    -0.017829119535    12.000000000000
         C           -3.578849348429    -0.199544497608    -0.927584119535    12.000000000000
         C            3.555200651571     0.199684502392    -0.927326119535    12.000000000000
         H           -0.061809348429     0.875616502392     2.165786880465     1.007825032230
         H            0.038183651571    -0.879771497608     2.164577880465     1.007825032230
         H           -0.655974348429    -1.857269497608    -0.365742119535     1.007825032230
         H            0.632229651571     1.856503502392    -0.363321119535     1.007825032230
         H           -2.142305348429     1.724831502392     1.485275880465     1.007825032230
         H            2.118746651571    -1.727948497608     1.482987880465     1.007825032230
         H           -2.704396348429    -1.990764497608    -1.756508119535     1.007825032230
         H            2.680653651571     1.991944502392    -1.753895119535     1.007825032230
         H           -4.182457348429     1.609137502392     0.080799880465     1.007825032230
         H            4.158904651571    -1.610289497608     0.078680880465     1.007825032230
         H           -4.473542348429    -0.253160497608    -1.543173119535     1.007825032230
         H            4.449880651571     0.254141502392    -1.542859119535     1.007825032230

  Basis Set: AUG-CC-PVTZ
    Blend: AUG-CC-PVTZ
  Basis Set: (AUG-CC-PVTZ AUX)
    Blend: AUG-CC-PVTZ-JKFIT
	 Reference Energy          =    -499.3810086712704219 [Eh]
	 Singles Energy            =      -0.0000000000000000 [Eh]
	 Same-Spin Energy          =      -0.5687025083154973 [Eh]
	 Opposite-Spin Energy      =      -1.7859693041278051 [Eh]
	 Correlation Energy        =      -2.3546718124433026 [Eh]
	 Total Energy              =    -501.7356804837137361 [Eh]

	 ================> DF-SCS-MP2 Energies <==================
	-----------------------------------------------------------
	 SCS Same-Spin Scale       =       0.3333333333333333 [-]
	 SCS Opposite-Spin Scale   =       1.2000000000000000 [-]
	 SCS Same-Spin Energy      =      -0.1895675027718324 [Eh]
	 SCS Opposite-Spin Energy  =      -2.1431631649533660 [Eh]
	 SCS Correlation Energy    =      -2.3327306677251984 [Eh]
	 SCS Total Energy          =    -501.7137393389955946 [Eh]
	-----------------------------------------------------------

  Dipole Moment: [D]
     X:     0.3780      Y:    -0.0115      Z:     0.1559     Total:     0.4090

*** Psi4 exiting successfully. Buy a developer a beer!
