                               Psi4 1.3.2 release

  ==> Input File <==

--------------------------------------------------------------------------
#psi4
#
memory 32 gb

molecule  {
0 1
  C        0.0323256    -0.0892185     1.4660959
  C       -1.2520500    -0.0616820     0.6690270
  C        1.2520490     0.0607460     0.6690880
  C       -1.4240560    -1.1040230    -0.2532470
  C        1.4240080     1.1043180    -0.2518010
  C       -2.2519720     0.9105530     0.7796940
  C        2.2520300    -0.9115710     0.7784920
  C       -2.5726140    -1.1747650    -1.0400080
  C        2.5725550     1.1761430    -1.0384820
  C       -3.4033600     0.8449620    -0.0099780
  C        3.4034060    -0.8448920    -0.0111060
  C       -3.5670250    -0.1989710    -0.9208610
  C        3.5670250     0.2002580    -0.9206030
  H       -0.0499850     0.8761900     2.1725100
  H        0.0500080    -0.8791980     2.1713010
  H       -0.6441500    -1.8566960    -0.3590190
  H        0.6440540     1.8570770    -0.3565980
  H       -2.1304810     1.7254050     1.4919990
  H        2.1305710    -1.7273750     1.4897110
  H       -2.6925720    -1.9901910    -1.7497850
  H        2.6924780     1.9925180    -1.7471720
  H       -4.1706330     1.6097110     0.0875230
  H        4.1707290    -1.6097160     0.0854040
  H       -4.4617180    -0.2525870    -1.5364500
  H        4.4617050     0.2547150    -1.5361360
units angstrom
no_reorient  #important for SAPT in psi4, default
symmetry c1  #important for SAPT in psi4, default
}

set PROPERTIES_ORIGIN ["COM"]
properties('MP2/aug-cc-pvtz', properties = ['dipole'])
--------------------------------------------------------------------------

    Molecular point group: c1
  Charge       = 0
  Multiplicity = 1
  Basis Set: AUG-CC-PVTZ
    Blend: AUG-CC-PVTZ
  Basis Set: (AUG-CC-PVTZ AUX)
    Blend: AUG-CC-PVTZ-JKFIT

    Orbital Energies [Eh]
    ---------------------

    Doubly Occupied:

       1A    -11.243185     2A    -11.241646     3A    -11.240479
       4A    -11.237097     5A    -11.236578     6A    -11.236154
       7A    -11.235448     8A    -11.234874     9A    -11.233305
      10A    -11.232631    11A    -11.232155    12A    -11.231896
      13A    -11.230180    14A     -1.164114    15A     -1.145602
      16A     -1.070330    17A     -1.013293    18A     -1.011568
      19A     -1.008284    20A     -0.925533    21A     -0.830018
      22A     -0.824247    23A     -0.816320    24A     -0.782037
      25A     -0.699952    26A     -0.688282    27A     -0.645301
      28A     -0.639527    29A     -0.633440    30A     -0.616620
      31A     -0.585587    32A     -0.584256    33A     -0.579968
      34A     -0.570806    35A     -0.532325    36A     -0.510790
      37A     -0.497500    38A     -0.495373    39A     -0.487469
      40A     -0.478444    41A     -0.469445    42A     -0.340209
      43A     -0.335736    44A     -0.333673    45A     -0.314332

  @DF-RHF Final Energy:  -499.43254700059310

   => Energetics <=

    Nuclear Repulsion Energy =            694.0554103517047224
    One-Electron Energy =               -2051.5839040831269813
    Two-Electron Energy =                 858.0959467308291551
    Total Energy =                       -499.4325470005931038
  Basis Set: (AUG-CC-PVTZ AUX)
    Blend: AUG-CC-PVTZ-RI
    Molecular point group: c1

    Geometry (in Angstrom), charge = 0, multiplicity = 1:

       Center              X                  Y                   Z               Mass
    ------------   -----------------  -----------------  -----------------  -----------------
         C            0.030018167987    -0.082925242792     1.470791562441    12.000000000000
         C           -1.254357432013    -0.055388742792     0.673722662441    12.000000000000
         C            1.249741567987     0.067039257208     0.673783662441    12.000000000000
         C           -1.426363432013    -1.097729742792    -0.248551337559    12.000000000000
         C            1.421700567987     1.110611257208    -0.247105337559    12.000000000000
         C           -2.254279432013     0.916846257208     0.784389662441    12.000000000000
         C            2.249722567987    -0.905277742792     0.783187662441    12.000000000000
         C           -2.574921432013    -1.168471742792    -1.035312337559    12.000000000000
         C            2.570247567987     1.182436257208    -1.033786337559    12.000000000000
         C           -3.405667432013     0.851255257208    -0.005282337559    12.000000000000
         C            3.401098567987    -0.838598742792    -0.006410337559    12.000000000000
         C           -3.569332432013    -0.192677742792    -0.916165337559    12.000000000000
         C            3.564717567987     0.206551257208    -0.915907337559    12.000000000000
         H           -0.052292432013     0.882483257208     2.177205662441     1.007825032230
         H            0.047700567987    -0.872904742792     2.175996662441     1.007825032230
         H           -0.646457432013    -1.850402742792    -0.354323337559     1.007825032230
         H            0.641746567987     1.863370257208    -0.351902337559     1.007825032230
         H           -2.132788432013     1.731698257208     1.496694662441     1.007825032230
         H            2.128263567987    -1.721081742792     1.494406662441     1.007825032230
         H           -2.694879432013    -1.983897742792    -1.745089337559     1.007825032230
         H            2.690170567987     1.998811257208    -1.742476337559     1.007825032230
         H           -4.172940432013     1.616004257208     0.092218662441     1.007825032230
         H            4.168421567987    -1.603422742792     0.090099662441     1.007825032230
         H           -4.464025432013    -0.246293742792    -1.531754337559     1.007825032230
         H            4.459397567987     0.261008257208    -1.531440337559     1.007825032230

  Basis Set: AUG-CC-PVTZ
    Blend: AUG-CC-PVTZ
  Basis Set: (AUG-CC-PVTZ AUX)
    Blend: AUG-CC-PVTZ-JKFIT
	 Reference Energy          =    -499.4325470005931038 [Eh]
	 Singles Energy            =      -0.0000000000000000 [Eh]
	 Same-Spin Energy          =      -0.5648692018660945 [Eh]
	 Opposite-Spin Energy      =      -1.7797559459309089 [Eh]
	 Correlation Energy        =      -2.3446251477970033 [Eh]
	 Total Energy              =    -501.7771721483900933 [Eh]

	 ================> DF-SCS-MP2 Energies <==================
	-----------------------------------------------------------
	 SCS Same-Spin Scale       =       0.3333333333333333 [-]
	 SCS Opposite-Spin Scale   =       1.2000000000000000 [-]
	 SCS Same-Spin Energy      =      -0.1882897339553648 [Eh]
	 SCS Opposite-Spin Energy  =      -2.1357071351170904 [Eh]
	 SCS Correlation Energy    =      -2.3239968690724551 [Eh]
	 SCS Total Energy          =    -501.7565438696655633 [Eh]
	-----------------------------------------------------------

  Dipole Moment: [D]
     X:    -0.0476      Y:    -0.0674      Z:     0.0188     Total:     0.0846

*** Psi4 exiting successfully. Buy a developer a beer!
