                               Psi4 1.4a3.dev225

  ==> Input File <==

--------------------------------------------------------------------------
#psi4
#
memory 32 gb

molecule  {
0 1
  C        0.0000050    -0.0010510     1.5142370
  C       -1.2520500    -0.0616820     0.6690270
  C        1.2520490     0.0607460     0.6690880
  C       -1.4240560    -1.1040230    -0.2532470
  C        1.4240080     1.1043180    -0.2518010
  C       -2.2519720     0.9105530     0.7796940
  C        2.2520300    -0.9115710     0.7784920
  C       -2.5726140    -1.1747650    -1.0400080
  C        2.5725550     1.1761430    -1.0384820
  C       -3.4033600     0.8449620    -0.0099780
  C        3.4034060    -0.8448920    -0.0111060
  C       -3.5670250    -0.1989710    -0.9208610
  C        3.5670250     0.2002580    -0.9206030
  H       -0.0499850     0.8761900     2.1725100
  H        0.0509189    -0.8951949     2.1832705
  H       -0.6441500    -1.8566960    -0.3590190
  H        0.6440540     1.8570770    -0.3565980
  H       -2.1304810     1.7254050     1.4919990
  H        2.1305710    -1.7273750     1.4897110
  H       -2.6925720    -1.9901910    -1.7497850
  H        2.6924780     1.9925180    -1.7471720
  H       -4.1706330     1.6097110     0.0875230
  H        4.1707290    -1.6097160     0.0854040
  H       -4.4617180    -0.2525870    -1.5364500
  H        4.4617050     0.2547150    -1.5361360
units angstrom
no_reorient  #important for SAPT in psi4, default
symmetry c1  #important for SAPT in psi4, default
}

set PROPERTIES_ORIGIN ["COM"]
properties('MP2/aug-cc-pvtz', properties = ['dipole'])
--------------------------------------------------------------------------

    Molecular point group: c1
  Charge       = 0
  Multiplicity = 1
  Basis Set: AUG-CC-PVTZ
    Blend: AUG-CC-PVTZ
  Basis Set: (AUG-CC-PVTZ AUX)
    Blend: AUG-CC-PVTZ-JKFIT

    Orbital Energies [Eh]
    ---------------------

    Doubly Occupied:

       1A    -11.242994     2A    -11.242920     3A    -11.240120
       4A    -11.236340     5A    -11.236296     6A    -11.235849
       7A    -11.235826     8A    -11.233071     9A    -11.232974
      10A    -11.232634    11A    -11.232608    12A    -11.231057
      13A    -11.230978    14A     -1.161644    15A     -1.144935
      16A     -1.066439    17A     -1.012704    18A     -1.011178
      19A     -1.006845    20A     -0.925035    21A     -0.829107
      22A     -0.823535    23A     -0.814163    24A     -0.782634
      25A     -0.698293    26A     -0.687708    27A     -0.642384
      28A     -0.636825    29A     -0.633955    30A     -0.616137
      31A     -0.584510    32A     -0.583707    33A     -0.572899
      34A     -0.570448    35A     -0.542667    36A     -0.509380
      37A     -0.496639    38A     -0.495347    39A     -0.482560
      40A     -0.481118    41A     -0.475652    42A     -0.340508
      43A     -0.335445    44A     -0.333980    45A     -0.314561

  @DF-RHF Final Energy:  -499.44377539493860

   => Energetics <=

    Nuclear Repulsion Energy =            693.1750275657116163
    One-Electron Energy =               -2049.8843893495131852
    Two-Electron Energy =                 857.2655863888629710
    Total Energy =                       -499.4437753949385979
  Basis Set: (AUG-CC-PVTZ AUX)
    Blend: AUG-CC-PVTZ-RI
    Molecular point group: c1

    Geometry (in Angstrom), charge = 0, multiplicity = 1:

       Center              X                  Y                   Z               Mass
    ------------   -----------------  -----------------  -----------------  -----------------
         C           -0.000000568761    -0.000955992231     1.515424168912    12.000000000000
         C           -1.252055568761    -0.061586992231     0.670214168912    12.000000000000
         C            1.252043431239     0.060841007769     0.670275168912    12.000000000000
         C           -1.424061568761    -1.103927992231    -0.252059831088    12.000000000000
         C            1.424002431239     1.104413007769    -0.250613831088    12.000000000000
         C           -2.251977568761     0.910648007769     0.780881168912    12.000000000000
         C            2.252024431239    -0.911475992231     0.779679168912    12.000000000000
         C           -2.572619568761    -1.174669992231    -1.038820831088    12.000000000000
         C            2.572549431239     1.176238007769    -1.037294831088    12.000000000000
         C           -3.403365568761     0.845057007769    -0.008790831088    12.000000000000
         C            3.403400431239    -0.844796992231    -0.009918831088    12.000000000000
         C           -3.567030568761    -0.198875992231    -0.919673831088    12.000000000000
         C            3.567019431239     0.200353007769    -0.919415831088    12.000000000000
         H           -0.049990568761     0.876285007769     2.173697168912     1.007825032230
         H            0.050913331239    -0.895099892231     2.184457668912     1.007825032230
         H           -0.644155568761    -1.856600992231    -0.357831831088     1.007825032230
         H            0.644048431239     1.857172007769    -0.355410831088     1.007825032230
         H           -2.130486568761     1.725500007769     1.493186168912     1.007825032230
         H            2.130565431239    -1.727279992231     1.490898168912     1.007825032230
         H           -2.692577568761    -1.990095992231    -1.748597831088     1.007825032230
         H            2.692472431239     1.992613007769    -1.745984831088     1.007825032230
         H           -4.170638568761     1.609806007769     0.088710168912     1.007825032230
         H            4.170723431239    -1.609620992231     0.086591168912     1.007825032230
         H           -4.461723568761    -0.252491992231    -1.535262831088     1.007825032230
         H            4.461699431239     0.254810007769    -1.534948831088     1.007825032230

  Basis Set: AUG-CC-PVTZ
    Blend: AUG-CC-PVTZ
  Basis Set: (AUG-CC-PVTZ AUX)
    Blend: AUG-CC-PVTZ-JKFIT
	 Reference Energy          =    -499.4437753949385979 [Eh]
	 Singles Energy            =      -0.0000000000000000 [Eh]
	 Same-Spin Energy          =      -0.5641642401833115 [Eh]
	 Opposite-Spin Energy      =      -1.7787237825100626 [Eh]
	 Correlation Energy        =      -2.3428880226933742 [Eh]
	 Total Energy              =    -501.7866634176319849 [Eh]

	 ================> DF-SCS-MP2 Energies <==================
	-----------------------------------------------------------
	 SCS Same-Spin Scale       =       0.3333333333333333 [-]
	 SCS Opposite-Spin Scale   =       1.2000000000000000 [-]
	 SCS Same-Spin Energy      =      -0.1880547467277705 [Eh]
	 SCS Opposite-Spin Energy  =      -2.1344685390120750 [Eh]
	 SCS Correlation Energy    =      -2.3225232857398455 [Eh]
	 SCS Total Energy          =    -501.7662986806784602 [Eh]
	-----------------------------------------------------------

  Dipole Moment: [D]
     X:    -0.0015      Y:     0.0051      Z:     0.0623     Total:     0.0626

*** Psi4 exiting successfully. Buy a developer a beer!
