                               Psi4 1.3.2 release

  ==> Input File <==

--------------------------------------------------------------------------
#psi4
#
memory 32 gb

molecule  {
0 1
  C        0.0000050    -0.0010510     1.5142370
  C       -1.2520500    -0.0616820     0.6690270
  C        1.2520490     0.0607460     0.6690880
  C       -1.4240560    -1.1040230    -0.2532470
  C        1.4240080     1.1043180    -0.2518010
  C       -2.2519720     0.9105530     0.7796940
  C        2.2520300    -0.9115710     0.7784920
  C       -2.5726140    -1.1747650    -1.0400080
  C        2.5725550     1.1761430    -1.0384820
  C       -3.4033600     0.8449620    -0.0099780
  C        3.4034060    -0.8448920    -0.0111060
  C       -3.5670250    -0.1989710    -0.9208610
  C        3.5670250     0.2002580    -0.9206030
  H       -0.0499850     0.8761900     2.1725100
  H        0.0545624    -0.9591825     2.2311486
  H       -0.6441500    -1.8566960    -0.3590190
  H        0.6440540     1.8570770    -0.3565980
  H       -2.1304810     1.7254050     1.4919990
  H        2.1305710    -1.7273750     1.4897110
  H       -2.6925720    -1.9901910    -1.7497850
  H        2.6924780     1.9925180    -1.7471720
  H       -4.1706330     1.6097110     0.0875230
  H        4.1707290    -1.6097160     0.0854040
  H       -4.4617180    -0.2525870    -1.5364500
  H        4.4617050     0.2547150    -1.5361360
units angstrom
no_reorient  #important for SAPT in psi4, default
symmetry c1  #important for SAPT in psi4, default
}

set PROPERTIES_ORIGIN ["COM"]
properties('MP2/aug-cc-pvtz', properties = ['dipole'])
--------------------------------------------------------------------------

    Molecular point group: c1
  Charge       = 0
  Multiplicity = 1
  Basis Set: AUG-CC-PVTZ
    Blend: AUG-CC-PVTZ
  Basis Set: (AUG-CC-PVTZ AUX)
    Blend: AUG-CC-PVTZ-JKFIT

    Orbital Energies [Eh]
    ---------------------

    Doubly Occupied:

       1A    -11.249395     2A    -11.243596     3A    -11.243447
       4A    -11.236603     5A    -11.236364     6A    -11.236098
       7A    -11.236006     8A    -11.233566     9A    -11.233033
      10A    -11.232973    11A    -11.232788    12A    -11.231621
      13A    -11.231235    14A     -1.161571    15A     -1.145215
      16A     -1.065159    17A     -1.012925    18A     -1.011393
      19A     -1.007171    20A     -0.921794    21A     -0.829160
      22A     -0.823613    23A     -0.814475    24A     -0.780857
      25A     -0.698572    26A     -0.686843    27A     -0.641414
      28A     -0.635934    29A     -0.633120    30A     -0.616276
      31A     -0.584687    32A     -0.583853    33A     -0.573325
      34A     -0.569062    35A     -0.535067    36A     -0.509709
      37A     -0.496798    38A     -0.495236    39A     -0.482783
      40A     -0.479361    41A     -0.475228    42A     -0.340614
      43A     -0.335634    44A     -0.334080    45A     -0.314630

  @DF-RHF Final Energy:  -499.43757747188590

   => Energetics <=

    Nuclear Repulsion Energy =            692.7822413303464373
    One-Electron Energy =               -2049.0950680550190555
    Two-Electron Energy =                 856.8752492527866025
    Total Energy =                       -499.4375774718859020
  Basis Set: (AUG-CC-PVTZ AUX)
    Blend: AUG-CC-PVTZ-RI
    Molecular point group: c1

    Geometry (in Angstrom), charge = 0, multiplicity = 1:

       Center              X                  Y                   Z               Mass
    ------------   -----------------  -----------------  -----------------  -----------------
         C           -0.000022413757    -0.000572347703     1.515137110621    12.000000000000
         C           -1.252077413757    -0.061203347703     0.669927110621    12.000000000000
         C            1.252021586243     0.061224652297     0.669988110621    12.000000000000
         C           -1.424083413757    -1.103544347703    -0.252346889379    12.000000000000
         C            1.423980586243     1.104796652297    -0.250900889379    12.000000000000
         C           -2.251999413757     0.911031652297     0.780594110621    12.000000000000
         C            2.252002586243    -0.911092347703     0.779392110621    12.000000000000
         C           -2.572641413757    -1.174286347703    -1.039107889379    12.000000000000
         C            2.572527586243     1.176621652297    -1.037581889379    12.000000000000
         C           -3.403387413757     0.845440652297    -0.009077889379    12.000000000000
         C            3.403378586243    -0.844413347703    -0.010205889379    12.000000000000
         C           -3.567052413757    -0.198492347703    -0.919960889379    12.000000000000
         C            3.566997586243     0.200736652297    -0.919702889379    12.000000000000
         H           -0.050012413757     0.876668652297     2.173410110621     1.007825032230
         H            0.054534986243    -0.958703847703     2.232048710621     1.007825032230
         H           -0.644177413757    -1.856217347703    -0.358118889379     1.007825032230
         H            0.644026586243     1.857555652297    -0.355697889379     1.007825032230
         H           -2.130508413757     1.725883652297     1.492899110621     1.007825032230
         H            2.130543586243    -1.726896347703     1.490611110621     1.007825032230
         H           -2.692599413757    -1.989712347703    -1.748884889379     1.007825032230
         H            2.692450586243     1.992996652297    -1.746271889379     1.007825032230
         H           -4.170660413757     1.610189652297     0.088423110621     1.007825032230
         H            4.170701586243    -1.609237347703     0.086304110621     1.007825032230
         H           -4.461745413757    -0.252108347703    -1.535549889379     1.007825032230
         H            4.461677586243     0.255193652297    -1.535235889379     1.007825032230

  Basis Set: AUG-CC-PVTZ
    Blend: AUG-CC-PVTZ
  Basis Set: (AUG-CC-PVTZ AUX)
    Blend: AUG-CC-PVTZ-JKFIT
	 Reference Energy          =    -499.4375774718859020 [Eh]
	 Singles Energy            =      -0.0000000000000000 [Eh]
	 Same-Spin Energy          =      -0.5643057413348720 [Eh]
	 Opposite-Spin Energy      =      -1.7794730055683861 [Eh]
	 Correlation Energy        =      -2.3437787469032578 [Eh]
	 Total Energy              =    -501.7813562187891421 [Eh]

	 ================> DF-SCS-MP2 Energies <==================
	-----------------------------------------------------------
	 SCS Same-Spin Scale       =       0.3333333333333333 [-]
	 SCS Opposite-Spin Scale   =       1.2000000000000000 [-]
	 SCS Same-Spin Energy      =      -0.1881019137782907 [Eh]
	 SCS Opposite-Spin Energy  =      -2.1353676066820633 [Eh]
	 SCS Correlation Energy    =      -2.3234695204603542 [Eh]
	 SCS Total Energy          =    -501.7610469923462801 [Eh]
	-----------------------------------------------------------

  Dipole Moment: [D]
     X:    -0.0094      Y:     0.0297      Z:     0.0176     Total:     0.0358

*** Psi4 exiting successfully. Buy a developer a beer!
