                               Psi4 1.3.2 release

  ==> Input File <==

--------------------------------------------------------------------------
#psi4
#
memory 32 gb

molecule  {
0 1
  C        0.0000050    -0.0010510     1.5142370
  C       -1.2520500    -0.0616820     0.6690270
  C        1.2520490     0.0607460     0.6690880
  C       -1.4240560    -1.1040230    -0.2532470
  C        1.4240080     1.1043180    -0.2518010
  C       -2.2519720     0.9105530     0.7796940
  C        2.2520300    -0.9115710     0.7784920
  C       -2.5726140    -1.1747650    -1.0400080
  C        2.5725550     1.1761430    -1.0384820
  C       -3.4033600     0.8449620    -0.0099780
  C        3.4034060    -0.8448920    -0.0111060
  C       -3.5670250    -0.1989710    -0.9208610
  C        3.5670250     0.2002580    -0.9206030
  H       -0.0499850     0.8761900     2.1725100
  H        0.0591169    -1.0391671     2.2909961
  H       -0.6441500    -1.8566960    -0.3590190
  H        0.6440540     1.8570770    -0.3565980
  H       -2.1304810     1.7254050     1.4919990
  H        2.1305710    -1.7273750     1.4897110
  H       -2.6925720    -1.9901910    -1.7497850
  H        2.6924780     1.9925180    -1.7471720
  H       -4.1706330     1.6097110     0.0875230
  H        4.1707290    -1.6097160     0.0854040
  H       -4.4617180    -0.2525870    -1.5364500
  H        4.4617050     0.2547150    -1.5361360
units angstrom
no_reorient  #important for SAPT in psi4, default
symmetry c1  #important for SAPT in psi4, default
}

set PROPERTIES_ORIGIN ["COM"]
properties('MP2/aug-cc-pvtz', properties = ['dipole'])
--------------------------------------------------------------------------

    Molecular point group: c1
  Charge       = 0
  Multiplicity = 1
  Basis Set: AUG-CC-PVTZ
    Blend: AUG-CC-PVTZ
  Basis Set: (AUG-CC-PVTZ AUX)
    Blend: AUG-CC-PVTZ-JKFIT

    Orbital Energies [Eh]
    ---------------------

    Doubly Occupied:

       1A    -11.260045     2A    -11.244606     3A    -11.244310
       4A    -11.237046     5A    -11.236607     6A    -11.236365
       7A    -11.236331     8A    -11.234379     9A    -11.233559
      10A    -11.233251    11A    -11.232994    12A    -11.232449
      13A    -11.231721    14A     -1.161764    15A     -1.145673
      16A     -1.064321    17A     -1.013319    18A     -1.011741
      19A     -1.007692    20A     -0.919111    21A     -0.829394
      22A     -0.823819    23A     -0.814983    24A     -0.779359
      25A     -0.699029    26A     -0.686369    27A     -0.641459
      28A     -0.635978    29A     -0.631063    30A     -0.616547
      31A     -0.585056    32A     -0.584119    33A     -0.574124
      34A     -0.568496    35A     -0.525773    36A     -0.510214
      37A     -0.497190    38A     -0.495042    39A     -0.483361
      40A     -0.478464    41A     -0.471193    42A     -0.340829
      43A     -0.335956    44A     -0.334263    45A     -0.314773

  @DF-RHF Final Energy:  -499.42402920331159

   => Energetics <=

    Nuclear Repulsion Energy =            692.3283732481855850
    One-Electron Energy =               -2048.1565278043713079
    Two-Electron Energy =                 856.4041253528743027
    Total Energy =                       -499.4240292033115338
  Basis Set: (AUG-CC-PVTZ AUX)
    Blend: AUG-CC-PVTZ-RI
    Molecular point group: c1

    Geometry (in Angstrom), charge = 0, multiplicity = 1:

       Center              X                  Y                   Z               Mass
    ------------   -----------------  -----------------  -----------------  -----------------
         C           -0.000049720751    -0.000092791444     1.514778288508    12.000000000000
         C           -1.252104720751    -0.060723791444     0.669568288508    12.000000000000
         C            1.251994279249     0.061704208556     0.669629288508    12.000000000000
         C           -1.424110720751    -1.103064791444    -0.252705711492    12.000000000000
         C            1.423953279249     1.105276208556    -0.251259711492    12.000000000000
         C           -2.252026720751     0.911511208556     0.780235288508    12.000000000000
         C            2.251975279249    -0.910612791444     0.779033288508    12.000000000000
         C           -2.572668720751    -1.173806791444    -1.039466711492    12.000000000000
         C            2.572500279249     1.177101208556    -1.037940711492    12.000000000000
         C           -3.403414720751     0.845920208556    -0.009436711492    12.000000000000
         C            3.403351279249    -0.843933791444    -0.010564711492    12.000000000000
         C           -3.567079720751    -0.198012791444    -0.920319711492    12.000000000000
         C            3.566970279249     0.201216208556    -0.920061711492    12.000000000000
         H           -0.050039720751     0.877148208556     2.173051288508     1.007825032230
         H            0.059062179249    -1.038208891444     2.291537388508     1.007825032230
         H           -0.644204720751    -1.855737791444    -0.358477711492     1.007825032230
         H            0.643999279249     1.858035208556    -0.356056711492     1.007825032230
         H           -2.130535720751     1.726363208556     1.492540288508     1.007825032230
         H            2.130516279249    -1.726416791444     1.490252288508     1.007825032230
         H           -2.692626720751    -1.989232791444    -1.749243711492     1.007825032230
         H            2.692423279249     1.993476208556    -1.746630711492     1.007825032230
         H           -4.170687720751     1.610669208556     0.088064288508     1.007825032230
         H            4.170674279249    -1.608757791444     0.085945288508     1.007825032230
         H           -4.461772720751    -0.251628791444    -1.535908711492     1.007825032230
         H            4.461650279249     0.255673208556    -1.535594711492     1.007825032230

  Basis Set: AUG-CC-PVTZ
    Blend: AUG-CC-PVTZ
  Basis Set: (AUG-CC-PVTZ AUX)
    Blend: AUG-CC-PVTZ-JKFIT
	 Reference Energy          =    -499.4240292033115907 [Eh]
	 Singles Energy            =      -0.0000000000000000 [Eh]
	 Same-Spin Energy          =      -0.5644909928171504 [Eh]
	 Opposite-Spin Energy      =      -1.7805438372563931 [Eh]
	 Correlation Energy        =      -2.3450348300735433 [Eh]
	 Total Energy              =    -501.7690640333851206 [Eh]

	 ================> DF-SCS-MP2 Energies <==================
	-----------------------------------------------------------
	 SCS Same-Spin Scale       =       0.3333333333333333 [-]
	 SCS Opposite-Spin Scale   =       1.2000000000000000 [-]
	 SCS Same-Spin Energy      =      -0.1881636642723835 [Eh]
	 SCS Opposite-Spin Energy  =      -2.1366526047076717 [Eh]
	 SCS Correlation Energy    =      -2.3248162689800553 [Eh]
	 SCS Total Energy          =    -501.7488454722916345 [Eh]
	-----------------------------------------------------------

  Dipole Moment: [D]
     X:    -0.0240      Y:     0.0696      Z:    -0.0529     Total:     0.0907

*** Psi4 exiting successfully. Buy a developer a beer!
