                               Psi4 1.3.2 release

  ==> Input File <==

--------------------------------------------------------------------------
#psi4
#
memory 32 gb

molecule  {
0 1
  C        0.0000050    -0.0010510     1.5142370
  C       -1.2848886    -0.1980625     0.7422702
  C        1.2520490     0.0607460     0.6690880
  C       -1.4240560    -1.1040230    -0.2532470
  C        1.4240080     1.1043180    -0.2518010
  C       -2.2519720     0.9105530     0.7796940
  C        2.2520300    -0.9115710     0.7784920
  C       -2.5726140    -1.1747650    -1.0400080
  C        2.5725550     1.1761430    -1.0384820
  C       -3.4033600     0.8449620    -0.0099780
  C        3.4034060    -0.8448920    -0.0111060
  C       -3.5670250    -0.1989710    -0.9208610
  C        3.5670250     0.2002580    -0.9206030
  H       -0.0499850     0.8761900     2.1725100
  H        0.0500080    -0.8791980     2.1713010
  H       -0.6441500    -1.8566960    -0.3590190
  H        0.6440540     1.8570770    -0.3565980
  H       -2.1304810     1.7254050     1.4919990
  H        2.1305710    -1.7273750     1.4897110
  H       -2.6925720    -1.9901910    -1.7497850
  H        2.6924780     1.9925180    -1.7471720
  H       -4.1706330     1.6097110     0.0875230
  H        4.1707290    -1.6097160     0.0854040
  H       -4.4617180    -0.2525870    -1.5364500
  H        4.4617050     0.2547150    -1.5361360
units angstrom
no_reorient  #important for SAPT in psi4, default
symmetry c1  #important for SAPT in psi4, default
}

set PROPERTIES_ORIGIN ["COM"]
properties('MP2/aug-cc-pvtz', properties = ['dipole'])
--------------------------------------------------------------------------

    Molecular point group: c1
  Charge       = 0
  Multiplicity = 1
  Basis Set: AUG-CC-PVTZ
    Blend: AUG-CC-PVTZ
  Basis Set: (AUG-CC-PVTZ AUX)
    Blend: AUG-CC-PVTZ-JKFIT

    Orbital Energies [Eh]
    ---------------------

    Doubly Occupied:

       1A    -11.244453     2A    -11.243442     3A    -11.240406
       4A    -11.237387     5A    -11.236498     6A    -11.236177
       7A    -11.236003     8A    -11.235573     9A    -11.233450
      10A    -11.233301    11A    -11.233067    12A    -11.231439
      13A    -11.226329    14A     -1.161025    15A     -1.144628
      16A     -1.066713    17A     -1.014401    18A     -1.011954
      19A     -1.003991    20A     -0.926075    21A     -0.827982
      22A     -0.824604    23A     -0.815066    24A     -0.780515
      25A     -0.698590    26A     -0.687914    27A     -0.642107
      28A     -0.636591    29A     -0.634395    30A     -0.613492
      31A     -0.587499    32A     -0.584124    33A     -0.573685
      34A     -0.568935    35A     -0.543410    36A     -0.511531
      37A     -0.498169    38A     -0.492264    39A     -0.487825
      40A     -0.480407    41A     -0.464199    42A     -0.344797
      43A     -0.335413    44A     -0.328403    45A     -0.315722

  @DF-RHF Final Energy:  -499.43118024188016

   => Energetics <=

    Nuclear Repulsion Energy =            692.4608357775796321
    One-Electron Energy =               -2048.4361270658405374
    Two-Electron Energy =                 856.5441110463807490
    Total Energy =                       -499.4311802418801562
  Basis Set: (AUG-CC-PVTZ AUX)
    Blend: AUG-CC-PVTZ-RI
    Molecular point group: c1

    Geometry (in Angstrom), charge = 0, multiplicity = 1:

       Center              X                  Y                   Z               Mass
    ------------   -----------------  -----------------  -----------------  -----------------
         C            0.002349196620     0.008684119160     1.510267198693    12.000000000000
         C           -1.282544403380    -0.188327380840     0.738300398693    12.000000000000
         C            1.254393196620     0.070481119160     0.665118198693    12.000000000000
         C           -1.421711803380    -1.094287880840    -0.257216801307    12.000000000000
         C            1.426352196620     1.114053119160    -0.255770801307    12.000000000000
         C           -2.249627803380     0.920288119160     0.775724198693    12.000000000000
         C            2.254374196620    -0.901835880840     0.774522198693    12.000000000000
         C           -2.570269803380    -1.165029880840    -1.043977801307    12.000000000000
         C            2.574899196620     1.185878119160    -1.042451801307    12.000000000000
         C           -3.401015803380     0.854697119160    -0.013947801307    12.000000000000
         C            3.405750196620    -0.835156880840    -0.015075801307    12.000000000000
         C           -3.564680803380    -0.189235880840    -0.924830801307    12.000000000000
         C            3.569369196620     0.209993119160    -0.924572801307    12.000000000000
         H           -0.047640803380     0.885925119160     2.168540198693     1.007825032230
         H            0.052352196620    -0.869462880840     2.167331198693     1.007825032230
         H           -0.641805803380    -1.846960880840    -0.362988801307     1.007825032230
         H            0.646398196620     1.866812119160    -0.360567801307     1.007825032230
         H           -2.128136803380     1.735140119160     1.488029198693     1.007825032230
         H            2.132915196620    -1.717639880840     1.485741198693     1.007825032230
         H           -2.690227803380    -1.980455880840    -1.753754801307     1.007825032230
         H            2.694822196620     2.002253119160    -1.751141801307     1.007825032230
         H           -4.168288803380     1.619446119160     0.083553198693     1.007825032230
         H            4.173073196620    -1.599980880840     0.081434198693     1.007825032230
         H           -4.459373803380    -0.242851880840    -1.540419801307     1.007825032230
         H            4.464049196620     0.264450119160    -1.540105801307     1.007825032230

  Basis Set: AUG-CC-PVTZ
    Blend: AUG-CC-PVTZ
  Basis Set: (AUG-CC-PVTZ AUX)
    Blend: AUG-CC-PVTZ-JKFIT
	 Reference Energy          =    -499.4311802418801562 [Eh]
	 Singles Energy            =      -0.0000000000000000 [Eh]
	 Same-Spin Energy          =      -0.5642939045539015 [Eh]
	 Opposite-Spin Energy      =      -1.7795665479907392 [Eh]
	 Correlation Energy        =      -2.3438604525446407 [Eh]
	 Total Energy              =    -501.7750406944247743 [Eh]

	 ================> DF-SCS-MP2 Energies <==================
	-----------------------------------------------------------
	 SCS Same-Spin Scale       =       0.3333333333333333 [-]
	 SCS Opposite-Spin Scale   =       1.2000000000000000 [-]
	 SCS Same-Spin Energy      =      -0.1880979681846338 [Eh]
	 SCS Opposite-Spin Energy  =      -2.1354798575888871 [Eh]
	 SCS Correlation Energy    =      -2.3235778257735209 [Eh]
	 SCS Total Energy          =    -501.7547580676536541 [Eh]
	-----------------------------------------------------------

  Dipole Moment: [D]
     X:     0.0369      Y:     0.0359      Z:     0.0167     Total:     0.0541

*** Psi4 exiting successfully. Buy a developer a beer!
