                               Psi4 1.3.2 release

  ==> Input File <==

--------------------------------------------------------------------------
#psi4
#
memory 32 gb

molecule  {
0 1
  C       -0.0598558     0.1305125     1.5786600
  C       -1.2520500    -0.0616820     0.6690270
  C        1.2520490     0.0607460     0.6690880
  C       -1.4240560    -1.1040230    -0.2532470
  C        1.4240080     1.1043180    -0.2518010
  C       -2.2519720     0.9105530     0.7796940
  C        2.2520300    -0.9115710     0.7784920
  C       -2.5726140    -1.1747650    -1.0400080
  C        2.5725550     1.1761430    -1.0384820
  C       -3.4033600     0.8449620    -0.0099780
  C        3.4034060    -0.8448920    -0.0111060
  C       -3.5670250    -0.1989710    -0.9208610
  C        3.5670250     0.2002580    -0.9206030
  H       -0.0499850     0.8761900     2.1725100
  H        0.0500080    -0.8791980     2.1713010
  H       -0.6441500    -1.8566960    -0.3590190
  H        0.6440540     1.8570770    -0.3565980
  H       -2.1304810     1.7254050     1.4919990
  H        2.1305710    -1.7273750     1.4897110
  H       -2.6925720    -1.9901910    -1.7497850
  H        2.6924780     1.9925180    -1.7471720
  H       -4.1706330     1.6097110     0.0875230
  H        4.1707290    -1.6097160     0.0854040
  H       -4.4617180    -0.2525870    -1.5364500
  H        4.4617050     0.2547150    -1.5361360
units angstrom
no_reorient  #important for SAPT in psi4, default
symmetry c1  #important for SAPT in psi4, default
}

set PROPERTIES_ORIGIN ["COM"]
properties('MP2/aug-cc-pvtz', properties = ['dipole'])
--------------------------------------------------------------------------

    Molecular point group: c1
  Charge       = 0
  Multiplicity = 1
  Basis Set: AUG-CC-PVTZ
    Blend: AUG-CC-PVTZ
  Basis Set: (AUG-CC-PVTZ AUX)
    Blend: AUG-CC-PVTZ-JKFIT

    Orbital Energies [Eh]
    ---------------------

    Doubly Occupied:

       1A    -11.246555     2A    -11.245016     3A    -11.239151
       4A    -11.237089     5A    -11.236688     6A    -11.235545
       7A    -11.234969     8A    -11.234379     9A    -11.233040
      10A    -11.232659    11A    -11.231930    12A    -11.230516
      13A    -11.229822    14A     -1.159639    15A     -1.144362
      16A     -1.063786    17A     -1.012534    18A     -1.010954
      19A     -1.004942    20A     -0.930735    21A     -0.828801
      22A     -0.822953    23A     -0.811539    24A     -0.788706
      25A     -0.696517    26A     -0.692626    27A     -0.651495
      28A     -0.635715    29A     -0.629053    30A     -0.616240
      31A     -0.590307    32A     -0.583607    33A     -0.581860
      34A     -0.562341    35A     -0.543863    36A     -0.507971
      37A     -0.497151    38A     -0.494607    39A     -0.490105
      40A     -0.473081    41A     -0.463718    42A     -0.341056
      43A     -0.335232    44A     -0.334012    45A     -0.313000

  @DF-RHF Final Energy:  -499.41390793679420

   => Energetics <=

    Nuclear Repulsion Energy =            692.1265402553324293
    One-Electron Energy =               -2047.7211647981027909
    Two-Electron Energy =                 856.1807166059761585
    Total Energy =                       -499.4139079367942031
  Basis Set: (AUG-CC-PVTZ AUX)
    Blend: AUG-CC-PVTZ-RI
    Molecular point group: c1

    Geometry (in Angstrom), charge = 0, multiplicity = 1:

       Center              X                  Y                   Z               Mass
    ------------   -----------------  -----------------  -----------------  -----------------
         C           -0.055582524459     0.121119453339     1.575319861041    12.000000000000
         C           -1.247776724459    -0.071075046661     0.665686861041    12.000000000000
         C            1.256322275541     0.051352953339     0.665747861041    12.000000000000
         C           -1.419782724459    -1.113416046661    -0.256587138959    12.000000000000
         C            1.428281275541     1.094924953339    -0.255141138959    12.000000000000
         C           -2.247698724459     0.901159953339     0.776353861041    12.000000000000
         C            2.256303275541    -0.920964046661     0.775151861041    12.000000000000
         C           -2.568340724459    -1.184158046661    -1.043348138959    12.000000000000
         C            2.576828275541     1.166749953339    -1.041822138959    12.000000000000
         C           -3.399086724459     0.835568953339    -0.013318138959    12.000000000000
         C            3.407679275541    -0.854285046661    -0.014446138959    12.000000000000
         C           -3.562751724459    -0.208364046661    -0.924201138959    12.000000000000
         C            3.571298275541     0.190864953339    -0.923943138959    12.000000000000
         H           -0.045711724459     0.866796953339     2.169169861041     1.007825032230
         H            0.054281275541    -0.888591046661     2.167960861041     1.007825032230
         H           -0.639876724459    -1.866089046661    -0.362359138959     1.007825032230
         H            0.648327275541     1.847683953339    -0.359938138959     1.007825032230
         H           -2.126207724459     1.716011953339     1.488658861041     1.007825032230
         H            2.134844275541    -1.736768046661     1.486370861041     1.007825032230
         H           -2.688298724459    -1.999584046661    -1.753125138959     1.007825032230
         H            2.696751275541     1.983124953339    -1.750512138959     1.007825032230
         H           -4.166359724459     1.600317953339     0.084182861041     1.007825032230
         H            4.175002275541    -1.619109046661     0.082063861041     1.007825032230
         H           -4.457444724459    -0.261980046661    -1.539790138959     1.007825032230
         H            4.465978275541     0.245321953339    -1.539476138959     1.007825032230

  Basis Set: AUG-CC-PVTZ
    Blend: AUG-CC-PVTZ
  Basis Set: (AUG-CC-PVTZ AUX)
    Blend: AUG-CC-PVTZ-JKFIT
	 Reference Energy          =    -499.4139079367942031 [Eh]
	 Singles Energy            =      -0.0000000000000000 [Eh]
	 Same-Spin Energy          =      -0.5642202366420854 [Eh]
	 Opposite-Spin Energy      =      -1.7796159646688157 [Eh]
	 Correlation Energy        =      -2.3438362013109009 [Eh]
	 Total Energy              =    -501.7577441381051244 [Eh]

	 ================> DF-SCS-MP2 Energies <==================
	-----------------------------------------------------------
	 SCS Same-Spin Scale       =       0.3333333333333333 [-]
	 SCS Opposite-Spin Scale   =       1.2000000000000000 [-]
	 SCS Same-Spin Energy      =      -0.1880734122140285 [Eh]
	 SCS Opposite-Spin Energy  =      -2.1355391576025786 [Eh]
	 SCS Correlation Energy    =      -2.3236125698166070 [Eh]
	 SCS Total Energy          =    -501.7375205066107924 [Eh]
	-----------------------------------------------------------

  Dipole Moment: [D]
     X:     0.0531      Y:     0.0766      Z:     0.0804     Total:     0.1231

*** Psi4 exiting successfully. Buy a developer a beer!
