                               Psi4 1.3.2 release

  ==> Input File <==

--------------------------------------------------------------------------
#psi4
#
memory 32 gb

molecule  {
0 1
  C        0.0000050    -0.0010510     1.5142370
  C       -1.2218265    -0.0601745     0.6257946
  C        1.2520490     0.0607460     0.6690880
  C       -1.4240560    -1.1040230    -0.2532470
  C        1.4240080     1.1043180    -0.2518010
  C       -2.2519720     0.9105530     0.7796940
  C        2.2520300    -0.9115710     0.7784920
  C       -2.5726140    -1.1747650    -1.0400080
  C        2.5725550     1.1761430    -1.0384820
  C       -3.4033600     0.8449620    -0.0099780
  C        3.4034060    -0.8448920    -0.0111060
  C       -3.5670250    -0.1989710    -0.9208610
  C        3.5670250     0.2002580    -0.9206030
  H       -0.0499850     0.8761900     2.1725100
  H        0.0500080    -0.8791980     2.1713010
  H       -0.6441500    -1.8566960    -0.3590190
  H        0.6440540     1.8570770    -0.3565980
  H       -2.1304810     1.7254050     1.4919990
  H        2.1305710    -1.7273750     1.4897110
  H       -2.6925720    -1.9901910    -1.7497850
  H        2.6924780     1.9925180    -1.7471720
  H       -4.1706330     1.6097110     0.0875230
  H        4.1707290    -1.6097160     0.0854040
  H       -4.4617180    -0.2525870    -1.5364500
  H        4.4617050     0.2547150    -1.5361360
units angstrom
no_reorient  #important for SAPT in psi4, default
symmetry c1  #important for SAPT in psi4, default
}

set PROPERTIES_ORIGIN ["COM"]
properties('MP2/aug-cc-pvtz', properties = ['dipole'])
--------------------------------------------------------------------------

    Molecular point group: c1
  Charge       = 0
  Multiplicity = 1
  Basis Set: AUG-CC-PVTZ
    Blend: AUG-CC-PVTZ
  Basis Set: (AUG-CC-PVTZ AUX)
    Blend: AUG-CC-PVTZ-JKFIT

    Orbital Energies [Eh]
    ---------------------

    Doubly Occupied:

       1A    -11.242973     2A    -11.242217     3A    -11.237974
       4A    -11.236505     5A    -11.236067     6A    -11.236004
       7A    -11.235583     8A    -11.235187     9A    -11.232638
      10A    -11.232452    11A    -11.232153    12A    -11.230566
      13A    -11.228571    14A     -1.161941    15A     -1.144602
      16A     -1.067319    17A     -1.011873    18A     -1.011590
      19A     -1.006277    20A     -0.925943    21A     -0.828652
      22A     -0.824048    23A     -0.813889    24A     -0.782506
      25A     -0.697719    26A     -0.688340    27A     -0.643185
      28A     -0.637859    29A     -0.633328    30A     -0.614982
      31A     -0.585311    32A     -0.583835    33A     -0.572330
      34A     -0.571405    35A     -0.544424    36A     -0.509170
      37A     -0.497722    38A     -0.494783    39A     -0.485395
      40A     -0.481422    41A     -0.471278    42A     -0.342657
      43A     -0.335005    44A     -0.331816    45A     -0.314277

  @DF-RHF Final Energy:  -499.44231327241948

   => Energetics <=

    Nuclear Repulsion Energy =            693.5884659214875683
    One-Electron Energy =               -2050.7140102191528968
    Two-Electron Energy =                 857.6832310252458456
    Total Energy =                       -499.4423132724194829
  Basis Set: (AUG-CC-PVTZ AUX)
    Blend: AUG-CC-PVTZ-RI
    Molecular point group: c1

    Geometry (in Angstrom), charge = 0, multiplicity = 1:

       Center              X                  Y                   Z               Mass
    ------------   -----------------  -----------------  -----------------  -----------------
         C           -0.002152722833    -0.001159521783     1.518582236876    12.000000000000
         C           -1.223984222833    -0.060283021783     0.630139836876    12.000000000000
         C            1.249891277167     0.060637478217     0.673433236876    12.000000000000
         C           -1.426213722833    -1.104131521783    -0.248901763124    12.000000000000
         C            1.421850277167     1.104209478217    -0.247455763124    12.000000000000
         C           -2.254129722833     0.910444478217     0.784039236876    12.000000000000
         C            2.249872277167    -0.911679521783     0.782837236876    12.000000000000
         C           -2.574771722833    -1.174873521783    -1.035662763124    12.000000000000
         C            2.570397277167     1.176034478217    -1.034136763124    12.000000000000
         C           -3.405517722833     0.844853478217    -0.005632763124    12.000000000000
         C            3.401248277167    -0.845000521783    -0.006760763124    12.000000000000
         C           -3.569182722833    -0.199079521783    -0.916515763124    12.000000000000
         C            3.564867277167     0.200149478217    -0.916257763124    12.000000000000
         H           -0.052142722833     0.876081478217     2.176855236876     1.007825032230
         H            0.047850277167    -0.879306521783     2.175646236876     1.007825032230
         H           -0.646307722833    -1.856804521783    -0.354673763124     1.007825032230
         H            0.641896277167     1.856968478217    -0.352252763124     1.007825032230
         H           -2.132638722833     1.725296478217     1.496344236876     1.007825032230
         H            2.128413277167    -1.727483521783     1.494056236876     1.007825032230
         H           -2.694729722833    -1.990299521783    -1.745439763124     1.007825032230
         H            2.690320277167     1.992409478217    -1.742826763124     1.007825032230
         H           -4.172790722833     1.609602478217     0.091868236876     1.007825032230
         H            4.168571277167    -1.609824521783     0.089749236876     1.007825032230
         H           -4.463875722833    -0.252695521783    -1.532104763124     1.007825032230
         H            4.459547277167     0.254606478217    -1.531790763124     1.007825032230

  Basis Set: AUG-CC-PVTZ
    Blend: AUG-CC-PVTZ
  Basis Set: (AUG-CC-PVTZ AUX)
    Blend: AUG-CC-PVTZ-JKFIT
	 Reference Energy          =    -499.4423132724194829 [Eh]
	 Singles Energy            =      -0.0000000000000000 [Eh]
	 Same-Spin Energy          =      -0.5643083514581353 [Eh]
	 Opposite-Spin Energy      =      -1.7788660621576260 [Eh]
	 Correlation Energy        =      -2.3431744136157615 [Eh]
	 Total Energy              =    -501.7854876860352533 [Eh]

	 ================> DF-SCS-MP2 Energies <==================
	-----------------------------------------------------------
	 SCS Same-Spin Scale       =       0.3333333333333333 [-]
	 SCS Opposite-Spin Scale   =       1.2000000000000000 [-]
	 SCS Same-Spin Energy      =      -0.1881027838193784 [Eh]
	 SCS Opposite-Spin Energy  =      -2.1346392745891509 [Eh]
	 SCS Correlation Energy    =      -2.3227420584085294 [Eh]
	 SCS Total Energy          =    -501.7650553308280337 [Eh]
	-----------------------------------------------------------

  Dipole Moment: [D]
     X:    -0.0292      Y:    -0.0014      Z:     0.0996     Total:     0.1038

*** Psi4 exiting successfully. Buy a developer a beer!
