                               Psi4 1.3.2 release

  ==> Input File <==

--------------------------------------------------------------------------
#psi4
#
memory 32 gb

molecule  {
0 1
  C        0.0000050    -0.0010510     1.5142370
  C       -1.2225082     0.0297001     0.6252974
  C        1.2520490     0.0607460     0.6690880
  C       -1.4240560    -1.1040230    -0.2532470
  C        1.4240080     1.1043180    -0.2518010
  C       -2.2519720     0.9105530     0.7796940
  C        2.2520300    -0.9115710     0.7784920
  C       -2.5726140    -1.1747650    -1.0400080
  C        2.5725550     1.1761430    -1.0384820
  C       -3.4033600     0.8449620    -0.0099780
  C        3.4034060    -0.8448920    -0.0111060
  C       -3.5670250    -0.1989710    -0.9208610
  C        3.5670250     0.2002580    -0.9206030
  H       -0.0499850     0.8761900     2.1725100
  H        0.0500080    -0.8791980     2.1713010
  H       -0.6441500    -1.8566960    -0.3590190
  H        0.6440540     1.8570770    -0.3565980
  H       -2.1304810     1.7254050     1.4919990
  H        2.1305710    -1.7273750     1.4897110
  H       -2.6925720    -1.9901910    -1.7497850
  H        2.6924780     1.9925180    -1.7471720
  H       -4.1706330     1.6097110     0.0875230
  H        4.1707290    -1.6097160     0.0854040
  H       -4.4617180    -0.2525870    -1.5364500
  H        4.4617050     0.2547150    -1.5361360
units angstrom
no_reorient  #important for SAPT in psi4, default
symmetry c1  #important for SAPT in psi4, default
}

set PROPERTIES_ORIGIN ["COM"]
properties('MP2/aug-cc-pvtz', properties = ['dipole'])
--------------------------------------------------------------------------

    Molecular point group: c1
  Charge       = 0
  Multiplicity = 1
  Basis Set: AUG-CC-PVTZ
    Blend: AUG-CC-PVTZ
  Basis Set: (AUG-CC-PVTZ AUX)
    Blend: AUG-CC-PVTZ-JKFIT

    Orbital Energies [Eh]
    ---------------------

    Doubly Occupied:

       1A    -11.243247     2A    -11.242215     3A    -11.238299
       4A    -11.236387     5A    -11.236281     6A    -11.236050
       7A    -11.235569     8A    -11.234958     9A    -11.233310
      10A    -11.232486    11A    -11.232109    12A    -11.230470
      13A    -11.229778    14A     -1.161695    15A     -1.144570
      16A     -1.067322    17A     -1.015564    18A     -1.011113
      19A     -1.003142    20A     -0.925924    21A     -0.830313
      22A     -0.823399    23A     -0.811230    24A     -0.783435
      25A     -0.697769    26A     -0.688305    27A     -0.643125
      28A     -0.638751    29A     -0.632635    30A     -0.617064
      31A     -0.584645    32A     -0.582900    33A     -0.571535
      34A     -0.570354    35A     -0.544804    36A     -0.508704
      37A     -0.498969    38A     -0.494684    39A     -0.483693
      40A     -0.478956    41A     -0.473149    42A     -0.340564
      43A     -0.337512    44A     -0.333883    45A     -0.312034

  @DF-RHF Final Energy:  -499.43787872621920

   => Energetics <=

    Nuclear Repulsion Energy =            693.5510932864556253
    One-Electron Energy =               -2050.6321404804934900
    Two-Electron Energy =                 857.6431684678186684
    Total Energy =                       -499.4378787262191963
  Basis Set: (AUG-CC-PVTZ AUX)
    Blend: AUG-CC-PVTZ-RI
    Molecular point group: c1

    Geometry (in Angstrom), charge = 0, multiplicity = 1:

       Center              X                  Y                   Z               Mass
    ------------   -----------------  -----------------  -----------------  -----------------
         C           -0.002104057177    -0.007575549952     1.518617731322    12.000000000000
         C           -1.224617257177     0.023175550048     0.629678131322    12.000000000000
         C            1.249939942823     0.054221450048     0.673468731322    12.000000000000
         C           -1.426165057177    -1.110547549952    -0.248866268678    12.000000000000
         C            1.421898942823     1.097793450048    -0.247420268678    12.000000000000
         C           -2.254081057177     0.904028450048     0.784074731322    12.000000000000
         C            2.249920942823    -0.918095549952     0.782872731322    12.000000000000
         C           -2.574723057177    -1.181289549952    -1.035627268678    12.000000000000
         C            2.570445942823     1.169618450048    -1.034101268678    12.000000000000
         C           -3.405469057177     0.838437450048    -0.005597268678    12.000000000000
         C            3.401296942823    -0.851416549952    -0.006725268678    12.000000000000
         C           -3.569134057177    -0.205495549952    -0.916480268678    12.000000000000
         C            3.564915942823     0.193733450048    -0.916222268678    12.000000000000
         H           -0.052094057177     0.869665450048     2.176890731322     1.007825032230
         H            0.047898942823    -0.885722549952     2.175681731322     1.007825032230
         H           -0.646259057177    -1.863220549952    -0.354638268678     1.007825032230
         H            0.641944942823     1.850552450048    -0.352217268678     1.007825032230
         H           -2.132590057177     1.718880450048     1.496379731322     1.007825032230
         H            2.128461942823    -1.733899549952     1.494091731322     1.007825032230
         H           -2.694681057177    -1.996715549952    -1.745404268678     1.007825032230
         H            2.690368942823     1.985993450048    -1.742791268678     1.007825032230
         H           -4.172742057177     1.603186450048     0.091903731322     1.007825032230
         H            4.168619942823    -1.616240549952     0.089784731322     1.007825032230
         H           -4.463827057177    -0.259111549952    -1.532069268678     1.007825032230
         H            4.459595942823     0.248190450048    -1.531755268678     1.007825032230

  Basis Set: AUG-CC-PVTZ
    Blend: AUG-CC-PVTZ
  Basis Set: (AUG-CC-PVTZ AUX)
    Blend: AUG-CC-PVTZ-JKFIT
	 Reference Energy          =    -499.4378787262191963 [Eh]
	 Singles Energy            =      -0.0000000000000000 [Eh]
	 Same-Spin Energy          =      -0.5643350709072801 [Eh]
	 Opposite-Spin Energy      =      -1.7793694596692293 [Eh]
	 Correlation Energy        =      -2.3437045305765096 [Eh]
	 Total Energy              =    -501.7815832567957273 [Eh]

	 ================> DF-SCS-MP2 Energies <==================
	-----------------------------------------------------------
	 SCS Same-Spin Scale       =       0.3333333333333333 [-]
	 SCS Opposite-Spin Scale   =       1.2000000000000000 [-]
	 SCS Same-Spin Energy      =      -0.1881116903024267 [Eh]
	 SCS Opposite-Spin Energy  =      -2.1352433516030751 [Eh]
	 SCS Correlation Energy    =      -2.3233550419055016 [Eh]
	 SCS Total Energy          =    -501.7612337681247254 [Eh]
	-----------------------------------------------------------

  Dipole Moment: [D]
     X:    -0.0569      Y:    -0.0293      Z:     0.0892     Total:     0.1098

*** Psi4 exiting successfully. Buy a developer a beer!
