                               Psi4 1.3.2 release

  ==> Input File <==

--------------------------------------------------------------------------
#psi4
#
memory 32 gb

molecule  {
0 1
  C        0.0000050    -0.0010510     1.5142370
  C       -1.2371267    -0.0609374     0.6472788
  C        1.2520490     0.0607460     0.6690880
  C       -1.4240560    -1.1040230    -0.2532470
  C        1.4240080     1.1043180    -0.2518010
  C       -2.2519720     0.9105530     0.7796940
  C        2.2520300    -0.9115710     0.7784920
  C       -2.5726140    -1.1747650    -1.0400080
  C        2.5725550     1.1761430    -1.0384820
  C       -3.4033600     0.8449620    -0.0099780
  C        3.4034060    -0.8448920    -0.0111060
  C       -3.5670250    -0.1989710    -0.9208610
  C        3.5670250     0.2002580    -0.9206030
  H       -0.0499850     0.8761900     2.1725100
  H        0.0500080    -0.8791980     2.1713010
  H       -0.6441500    -1.8566960    -0.3590190
  H        0.6440540     1.8570770    -0.3565980
  H       -2.1304810     1.7254050     1.4919990
  H        2.1305710    -1.7273750     1.4897110
  H       -2.6925720    -1.9901910    -1.7497850
  H        2.6924780     1.9925180    -1.7471720
  H       -4.1706330     1.6097110     0.0875230
  H        4.1707290    -1.6097160     0.0854040
  H       -4.4617180    -0.2525870    -1.5364500
  H        4.4617050     0.2547150    -1.5361360
units angstrom
no_reorient  #important for SAPT in psi4, default
symmetry c1  #important for SAPT in psi4, default
}

set PROPERTIES_ORIGIN ["COM"]
properties('MP2/aug-cc-pvtz', properties = ['dipole'])
--------------------------------------------------------------------------

    Molecular point group: c1
  Charge       = 0
  Multiplicity = 1
  Basis Set: AUG-CC-PVTZ
    Blend: AUG-CC-PVTZ
  Basis Set: (AUG-CC-PVTZ AUX)
    Blend: AUG-CC-PVTZ-JKFIT

    Orbital Energies [Eh]
    ---------------------

    Doubly Occupied:

       1A    -11.242857     2A    -11.242501     3A    -11.237870
       4A    -11.236338     5A    -11.236144     6A    -11.235927
       7A    -11.235686     8A    -11.234115     9A    -11.232711
      10A    -11.232581    11A    -11.232362    12A    -11.230748
      13A    -11.229717    14A     -1.161822    15A     -1.144746
      16A     -1.067077    17A     -1.012146    18A     -1.011212
      19A     -1.006810    20A     -0.925980    21A     -0.828864
      22A     -0.823735    23A     -0.814087    24A     -0.782880
      25A     -0.697979    26A     -0.688168    27A     -0.643036
      28A     -0.637482    29A     -0.633666    30A     -0.615567
      31A     -0.584702    32A     -0.583877    33A     -0.572356
      34A     -0.571511    35A     -0.544415    36A     -0.509212
      37A     -0.497120    38A     -0.495087    39A     -0.484096
      40A     -0.481487    41A     -0.473549    42A     -0.341521
      43A     -0.335136    44A     -0.332938    45A     -0.314483

  @DF-RHF Final Energy:  -499.44378058715660

   => Energetics <=

    Nuclear Repulsion Energy =            693.4385466616301983
    One-Electron Energy =               -2050.4120530484688061
    Two-Electron Energy =                 857.5297257996820690
    Total Energy =                       -499.4437805871565388
  Basis Set: (AUG-CC-PVTZ AUX)
    Blend: AUG-CC-PVTZ-RI
    Molecular point group: c1

    Geometry (in Angstrom), charge = 0, multiplicity = 1:

       Center              X                  Y                   Z               Mass
    ------------   -----------------  -----------------  -----------------  -----------------
         C           -0.001060461903    -0.001105059366     1.517048508410    12.000000000000
         C           -1.238192161903    -0.060991459366     0.650090308410    12.000000000000
         C            1.250983538097     0.060691940634     0.671899508410    12.000000000000
         C           -1.425121461903    -1.104077059366    -0.250435491590    12.000000000000
         C            1.422942538097     1.104263940634    -0.248989491590    12.000000000000
         C           -2.253037461903     0.910498940634     0.782505508410    12.000000000000
         C            2.250964538097    -0.911625059366     0.781303508410    12.000000000000
         C           -2.573679461903    -1.174819059366    -1.037196491590    12.000000000000
         C            2.571489538097     1.176088940634    -1.035670491590    12.000000000000
         C           -3.404425461903     0.844907940634    -0.007166491590    12.000000000000
         C            3.402340538097    -0.844946059366    -0.008294491590    12.000000000000
         C           -3.568090461903    -0.199025059366    -0.918049491590    12.000000000000
         C            3.565959538097     0.200203940634    -0.917791491590    12.000000000000
         H           -0.051050461903     0.876135940634     2.175321508410     1.007825032230
         H            0.048942538097    -0.879252059366     2.174112508410     1.007825032230
         H           -0.645215461903    -1.856750059366    -0.356207491590     1.007825032230
         H            0.642988538097     1.857022940634    -0.353786491590     1.007825032230
         H           -2.131546461903     1.725350940634     1.494810508410     1.007825032230
         H            2.129505538097    -1.727429059366     1.492522508410     1.007825032230
         H           -2.693637461903    -1.990245059366    -1.746973491590     1.007825032230
         H            2.691412538097     1.992463940634    -1.744360491590     1.007825032230
         H           -4.171698461903     1.609656940634     0.090334508410     1.007825032230
         H            4.169663538097    -1.609770059366     0.088215508410     1.007825032230
         H           -4.462783461903    -0.252641059366    -1.533638491590     1.007825032230
         H            4.460639538097     0.254660940634    -1.533324491590     1.007825032230

  Basis Set: AUG-CC-PVTZ
    Blend: AUG-CC-PVTZ
  Basis Set: (AUG-CC-PVTZ AUX)
    Blend: AUG-CC-PVTZ-JKFIT
	 Reference Energy          =    -499.4437805871565956 [Eh]
	 Singles Energy            =      -0.0000000000000000 [Eh]
	 Same-Spin Energy          =      -0.5642136406698581 [Eh]
	 Opposite-Spin Energy      =      -1.7786716180357587 [Eh]
	 Correlation Energy        =      -2.3428852587056168 [Eh]
	 Total Energy              =    -501.7866658458622169 [Eh]

	 ================> DF-SCS-MP2 Energies <==================
	-----------------------------------------------------------
	 SCS Same-Spin Scale       =       0.3333333333333333 [-]
	 SCS Opposite-Spin Scale   =       1.2000000000000000 [-]
	 SCS Same-Spin Energy      =      -0.1880712135566194 [Eh]
	 SCS Opposite-Spin Energy  =      -2.1344059416429104 [Eh]
	 SCS Correlation Energy    =      -2.3224771551995298 [Eh]
	 SCS Total Energy          =    -501.7662577423561174 [Eh]
	-----------------------------------------------------------

  Dipole Moment: [D]
     X:    -0.0141      Y:    -0.0007      Z:     0.0862     Total:     0.0874

*** Psi4 exiting successfully. Buy a developer a beer!
