                               Psi4 1.3.2 release

  ==> Input File <==

--------------------------------------------------------------------------
#psi4
#
memory 32 gb

molecule  {
0 1
  C        0.0000050    -0.0010510     1.5142370
  C       -1.1692340    -0.0576716     0.7249326
  C        1.2520490     0.0607460     0.6690880
  C       -1.4240560    -1.1040230    -0.2532470
  C        1.4240080     1.1043180    -0.2518010
  C       -2.2519720     0.9105530     0.7796940
  C        2.2520300    -0.9115710     0.7784920
  C       -2.5726140    -1.1747650    -1.0400080
  C        2.5725550     1.1761430    -1.0384820
  C       -3.4033600     0.8449620    -0.0099780
  C        3.4034060    -0.8448920    -0.0111060
  C       -3.5670250    -0.1989710    -0.9208610
  C        3.5670250     0.2002580    -0.9206030
  H       -0.0499850     0.8761900     2.1725100
  H        0.0500080    -0.8791980     2.1713010
  H       -0.6441500    -1.8566960    -0.3590190
  H        0.6440540     1.8570770    -0.3565980
  H       -2.1304810     1.7254050     1.4919990
  H        2.1305710    -1.7273750     1.4897110
  H       -2.6925720    -1.9901910    -1.7497850
  H        2.6924780     1.9925180    -1.7471720
  H       -4.1706330     1.6097110     0.0875230
  H        4.1707290    -1.6097160     0.0854040
  H       -4.4617180    -0.2525870    -1.5364500
  H        4.4617050     0.2547150    -1.5361360
units angstrom
no_reorient  #important for SAPT in psi4, default
symmetry c1  #important for SAPT in psi4, default
}

set PROPERTIES_ORIGIN ["COM"]
properties('MP2/aug-cc-pvtz', properties = ['dipole'])
--------------------------------------------------------------------------

    Molecular point group: c1
  Charge       = 0
  Multiplicity = 1
  Basis Set: AUG-CC-PVTZ
    Blend: AUG-CC-PVTZ
  Basis Set: (AUG-CC-PVTZ AUX)
    Blend: AUG-CC-PVTZ-JKFIT

    Orbital Energies [Eh]
    ---------------------

    Doubly Occupied:

       1A    -11.249816     2A    -11.244854     3A    -11.238638
       4A    -11.237324     5A    -11.236809     6A    -11.236412
       7A    -11.235687     8A    -11.235015     9A    -11.234991
      10A    -11.234359    11A    -11.233704    12A    -11.232981
      13A    -11.232328    14A     -1.163382    15A     -1.139849
      16A     -1.078832    17A     -1.013108    18A     -1.007499
      19A     -1.004892    20A     -0.930422    21A     -0.829412
      22A     -0.820180    23A     -0.815546    24A     -0.780928
      25A     -0.699014    26A     -0.687175    27A     -0.647281
      28A     -0.643327    29A     -0.637789    30A     -0.614057
      31A     -0.585422    32A     -0.579467    33A     -0.576472
      34A     -0.575258    35A     -0.546740    36A     -0.512177
      37A     -0.498211    38A     -0.495114    39A     -0.488225
      40A     -0.478355    41A     -0.464274    42A     -0.339935
      43A     -0.335915    44A     -0.331983    45A     -0.308260

  @DF-RHF Final Energy:  -499.42803223457071

   => Energetics <=

    Nuclear Repulsion Energy =            693.1441035530283443
    One-Electron Energy =               -2049.7214368847762671
    Two-Electron Energy =                 857.1493010971771582
    Total Energy =                       -499.4280322345707646
  Basis Set: (AUG-CC-PVTZ AUX)
    Blend: AUG-CC-PVTZ-RI
    Molecular point group: c1

    Geometry (in Angstrom), charge = 0, multiplicity = 1:

       Center              X                  Y                   Z               Mass
    ------------   -----------------  -----------------  -----------------  -----------------
         C           -0.005907231465    -0.001338200485     1.511504906900    12.000000000000
         C           -1.175146231465    -0.057958800485     0.722200506900    12.000000000000
         C            1.246136768535     0.060458799515     0.666355906900    12.000000000000
         C           -1.429968231465    -1.104310200485    -0.255979093100    12.000000000000
         C            1.418095768535     1.104030799515    -0.254533093100    12.000000000000
         C           -2.257884231465     0.910265799515     0.776961906900    12.000000000000
         C            2.246117768535    -0.911858200485     0.775759906900    12.000000000000
         C           -2.578526231465    -1.175052200485    -1.042740093100    12.000000000000
         C            2.566642768535     1.175855799515    -1.041214093100    12.000000000000
         C           -3.409272231465     0.844674799515    -0.012710093100    12.000000000000
         C            3.397493768535    -0.845179200485    -0.013838093100    12.000000000000
         C           -3.572937231465    -0.199258200485    -0.923593093100    12.000000000000
         C            3.561112768535     0.199970799515    -0.923335093100    12.000000000000
         H           -0.055897231465     0.875902799515     2.169777906900     1.007825032230
         H            0.044095768535    -0.879485200485     2.168568906900     1.007825032230
         H           -0.650062231465    -1.856983200485    -0.361751093100     1.007825032230
         H            0.638141768535     1.856789799515    -0.359330093100     1.007825032230
         H           -2.136393231465     1.725117799515     1.489266906900     1.007825032230
         H            2.124658768535    -1.727662200485     1.486978906900     1.007825032230
         H           -2.698484231465    -1.990478200485    -1.752517093100     1.007825032230
         H            2.686565768535     1.992230799515    -1.749904093100     1.007825032230
         H           -4.176545231465     1.609423799515     0.084790906900     1.007825032230
         H            4.164816768535    -1.610003200485     0.082671906900     1.007825032230
         H           -4.467630231465    -0.252874200485    -1.539182093100     1.007825032230
         H            4.455792768535     0.254427799515    -1.538868093100     1.007825032230

  Basis Set: AUG-CC-PVTZ
    Blend: AUG-CC-PVTZ
  Basis Set: (AUG-CC-PVTZ AUX)
    Blend: AUG-CC-PVTZ-JKFIT
	 Reference Energy          =    -499.4280322345707077 [Eh]
	 Singles Energy            =      -0.0000000000000000 [Eh]
	 Same-Spin Energy          =      -0.5657655368200176 [Eh]
	 Opposite-Spin Energy      =      -1.7812278421726526 [Eh]
	 Correlation Energy        =      -2.3469933789926705 [Eh]
	 Total Energy              =    -501.7750256135634004 [Eh]

	 ================> DF-SCS-MP2 Energies <==================
	-----------------------------------------------------------
	 SCS Same-Spin Scale       =       0.3333333333333333 [-]
	 SCS Opposite-Spin Scale   =       1.2000000000000000 [-]
	 SCS Same-Spin Energy      =      -0.1885885122733392 [Eh]
	 SCS Opposite-Spin Energy  =      -2.1374734106071829 [Eh]
	 SCS Correlation Energy    =      -2.3260619228805219 [Eh]
	 SCS Total Energy          =    -501.7540941574512203 [Eh]
	-----------------------------------------------------------

  Dipole Moment: [D]
     X:     0.1674      Y:    -0.0050      Z:     0.1087     Total:     0.1997

*** Psi4 exiting successfully. Buy a developer a beer!
