                               Psi4 1.3.2 release

  ==> Input File <==

--------------------------------------------------------------------------
#psi4
#
memory 32 gb

molecule  {
0 1
  C        0.0000050    -0.0010510     1.5142370
  C       -1.2754919    -0.1527687     0.7168744
  C        1.2520490     0.0607460     0.6690880
  C       -1.4240560    -1.1040230    -0.2532470
  C        1.4240080     1.1043180    -0.2518010
  C       -2.2519720     0.9105530     0.7796940
  C        2.2520300    -0.9115710     0.7784920
  C       -2.5726140    -1.1747650    -1.0400080
  C        2.5725550     1.1761430    -1.0384820
  C       -3.4033600     0.8449620    -0.0099780
  C        3.4034060    -0.8448920    -0.0111060
  C       -3.5670250    -0.1989710    -0.9208610
  C        3.5670250     0.2002580    -0.9206030
  H       -0.0499850     0.8761900     2.1725100
  H        0.0500080    -0.8791980     2.1713010
  H       -0.6441500    -1.8566960    -0.3590190
  H        0.6440540     1.8570770    -0.3565980
  H       -2.1304810     1.7254050     1.4919990
  H        2.1305710    -1.7273750     1.4897110
  H       -2.6925720    -1.9901910    -1.7497850
  H        2.6924780     1.9925180    -1.7471720
  H       -4.1706330     1.6097110     0.0875230
  H        4.1707290    -1.6097160     0.0854040
  H       -4.4617180    -0.2525870    -1.5364500
  H        4.4617050     0.2547150    -1.5361360
units angstrom
no_reorient  #important for SAPT in psi4, default
symmetry c1  #important for SAPT in psi4, default
}

set PROPERTIES_ORIGIN ["COM"]
properties('MP2/aug-cc-pvtz', properties = ['dipole'])
--------------------------------------------------------------------------

    Molecular point group: c1
  Charge       = 0
  Multiplicity = 1
  Basis Set: AUG-CC-PVTZ
    Blend: AUG-CC-PVTZ
  Basis Set: (AUG-CC-PVTZ AUX)
    Blend: AUG-CC-PVTZ-JKFIT

    Orbital Energies [Eh]
    ---------------------

    Doubly Occupied:

       1A    -11.243591     2A    -11.243260     3A    -11.237871
       4A    -11.237473     5A    -11.236443     6A    -11.236100
       7A    -11.235944     8A    -11.235667     9A    -11.233319
      10A    -11.232922    11A    -11.232816    12A    -11.231290
      13A    -11.227373    14A     -1.161335    15A     -1.144807
      16A     -1.066690    17A     -1.012828    18A     -1.011966
      19A     -1.005790    20A     -0.926070    21A     -0.828222
      22A     -0.824141    23A     -0.815186    24A     -0.781693
      25A     -0.698516    26A     -0.687888    27A     -0.642487
      28A     -0.635947    29A     -0.634936    30A     -0.614518
      31A     -0.586218    32A     -0.584095    33A     -0.573729
      34A     -0.569682    35A     -0.543786    36A     -0.510629
      37A     -0.497828    38A     -0.493022    39A     -0.486251
      40A     -0.481057    41A     -0.469205    42A     -0.343301
      43A     -0.335317    44A     -0.329991    45A     -0.315836

  @DF-RHF Final Energy:  -499.43856313604010

   => Energetics <=

    Nuclear Repulsion Energy =            692.7873229389422249
    One-Electron Energy =               -2049.0976975051580666
    Two-Electron Energy =                 856.8718114301757396
    Total Energy =                       -499.4385631360401021
  Basis Set: (AUG-CC-PVTZ AUX)
    Blend: AUG-CC-PVTZ-RI
    Molecular point group: c1

    Geometry (in Angstrom), charge = 0, multiplicity = 1:

       Center              X                  Y                   Z               Mass
    ------------   -----------------  -----------------  -----------------  -----------------
         C            0.001678378703     0.005450655014     1.512080171081    12.000000000000
         C           -1.273818521297    -0.146267044986     0.714717571081    12.000000000000
         C            1.253722378703     0.067247655014     0.666931171081    12.000000000000
         C           -1.422382621297    -1.097521344986    -0.255403828919    12.000000000000
         C            1.425681378703     1.110819655014    -0.253957828919    12.000000000000
         C           -2.250298621297     0.917054655014     0.777537171081    12.000000000000
         C            2.253703378703    -0.905069344986     0.776335171081    12.000000000000
         C           -2.570940621297    -1.168263344986    -1.042164828919    12.000000000000
         C            2.574228378703     1.182644655014    -1.040638828919    12.000000000000
         C           -3.401686621297     0.851463655014    -0.012134828919    12.000000000000
         C            3.405079378703    -0.838390344986    -0.013262828919    12.000000000000
         C           -3.565351621297    -0.192469344986    -0.923017828919    12.000000000000
         C            3.568698378703     0.206759655014    -0.922759828919    12.000000000000
         H           -0.048311621297     0.882691655014     2.170353171081     1.007825032230
         H            0.051681378703    -0.872696344986     2.169144171081     1.007825032230
         H           -0.642476621297    -1.850194344986    -0.361175828919     1.007825032230
         H            0.645727378703     1.863578655014    -0.358754828919     1.007825032230
         H           -2.128807621297     1.731906655014     1.489842171081     1.007825032230
         H            2.132244378703    -1.720873344986     1.487554171081     1.007825032230
         H           -2.690898621297    -1.983689344986    -1.751941828919     1.007825032230
         H            2.694151378703     1.999019655014    -1.749328828919     1.007825032230
         H           -4.168959621297     1.616212655014     0.085366171081     1.007825032230
         H            4.172402378703    -1.603214344986     0.083247171081     1.007825032230
         H           -4.460044621297    -0.246085344986    -1.538606828919     1.007825032230
         H            4.463378378703     0.261216655014    -1.538292828919     1.007825032230

  Basis Set: AUG-CC-PVTZ
    Blend: AUG-CC-PVTZ
  Basis Set: (AUG-CC-PVTZ AUX)
    Blend: AUG-CC-PVTZ-JKFIT
	 Reference Energy          =    -499.4385631360401021 [Eh]
	 Singles Energy            =      -0.0000000000000000 [Eh]
	 Same-Spin Energy          =      -0.5641755179204518 [Eh]
	 Opposite-Spin Energy      =      -1.7789344415409263 [Eh]
	 Correlation Energy        =      -2.3431099594613780 [Eh]
	 Total Energy              =    -501.7816730955015032 [Eh]

	 ================> DF-SCS-MP2 Energies <==================
	-----------------------------------------------------------
	 SCS Same-Spin Scale       =       0.3333333333333333 [-]
	 SCS Opposite-Spin Scale   =       1.2000000000000000 [-]
	 SCS Same-Spin Energy      =      -0.1880585059734839 [Eh]
	 SCS Opposite-Spin Energy  =      -2.1347213298491114 [Eh]
	 SCS Correlation Energy    =      -2.3227798358225953 [Eh]
	 SCS Total Energy          =    -501.7613429718626890 [Eh]
	-----------------------------------------------------------

  Dipole Moment: [D]
     X:     0.0308      Y:     0.0256      Z:     0.0393     Total:     0.0562

*** Psi4 exiting successfully. Buy a developer a beer!
