                               Psi4 1.3.2 release

  ==> Input File <==

--------------------------------------------------------------------------
#psi4
#
memory 32 gb

molecule  {
0 1
  C        0.0000050    -0.0010510     1.5142370
  C       -1.2645413    -0.1072901     0.6924501
  C        1.2520490     0.0607460     0.6690880
  C       -1.4240560    -1.1040230    -0.2532470
  C        1.4240080     1.1043180    -0.2518010
  C       -2.2519720     0.9105530     0.7796940
  C        2.2520300    -0.9115710     0.7784920
  C       -2.5726140    -1.1747650    -1.0400080
  C        2.5725550     1.1761430    -1.0384820
  C       -3.4033600     0.8449620    -0.0099780
  C        3.4034060    -0.8448920    -0.0111060
  C       -3.5670250    -0.1989710    -0.9208610
  C        3.5670250     0.2002580    -0.9206030
  H       -0.0499850     0.8761900     2.1725100
  H        0.0500080    -0.8791980     2.1713010
  H       -0.6441500    -1.8566960    -0.3590190
  H        0.6440540     1.8570770    -0.3565980
  H       -2.1304810     1.7254050     1.4919990
  H        2.1305710    -1.7273750     1.4897110
  H       -2.6925720    -1.9901910    -1.7497850
  H        2.6924780     1.9925180    -1.7471720
  H       -4.1706330     1.6097110     0.0875230
  H        4.1707290    -1.6097160     0.0854040
  H       -4.4617180    -0.2525870    -1.5364500
  H        4.4617050     0.2547150    -1.5361360
units angstrom
no_reorient  #important for SAPT in psi4, default
symmetry c1  #important for SAPT in psi4, default
}

set PROPERTIES_ORIGIN ["COM"]
properties('MP2/aug-cc-pvtz', properties = ['dipole'])
--------------------------------------------------------------------------

    Molecular point group: c1
  Charge       = 0
  Multiplicity = 1
  Basis Set: AUG-CC-PVTZ
    Blend: AUG-CC-PVTZ
  Basis Set: (AUG-CC-PVTZ AUX)
    Blend: AUG-CC-PVTZ-JKFIT

    Orbital Energies [Eh]
    ---------------------

    Doubly Occupied:

       1A    -11.243061     2A    -11.243028     3A    -11.237605
       4A    -11.236373     5A    -11.236369     6A    -11.235945
       7A    -11.235874     8A    -11.234922     9A    -11.233159
      10A    -11.232755    11A    -11.232573    12A    -11.231121
      13A    -11.228939    14A     -1.161562    15A     -1.144888
      16A     -1.066740    17A     -1.012095    18A     -1.011518
      19A     -1.007051    20A     -0.926053    21A     -0.828612
      22A     -0.823762    23A     -0.814886    24A     -0.782580
      25A     -0.698398    26A     -0.687922    27A     -0.642750
      28A     -0.636260    29A     -0.634674    30A     -0.615396
      31A     -0.585077    32A     -0.584019    33A     -0.573480
      34A     -0.570375    35A     -0.544118    36A     -0.509885
      37A     -0.497282    38A     -0.494059    39A     -0.484316
      40A     -0.481530    41A     -0.473121    42A     -0.341835
      43A     -0.335218    44A     -0.332012    45A     -0.315406

  @DF-RHF Final Energy:  -499.44299921048309

   => Energetics <=

    Nuclear Repulsion Energy =            693.0598515339695496
    One-Electron Energy =               -2049.6484990885151092
    Two-Electron Energy =                 857.1456483440624652
    Total Energy =                       -499.4429992104830944
  Basis Set: (AUG-CC-PVTZ AUX)
    Blend: AUG-CC-PVTZ-RI
    Molecular point group: c1

    Geometry (in Angstrom), charge = 0, multiplicity = 1:

       Center              X                  Y                   Z               Mass
    ------------   -----------------  -----------------  -----------------  -----------------
         C            0.000896629932     0.002203998242     1.513823789376    12.000000000000
         C           -1.263649670068    -0.104035101758     0.692036889376    12.000000000000
         C            1.252940629932     0.064000998242     0.668674789376    12.000000000000
         C           -1.423164370068    -1.100768001758    -0.253660210624    12.000000000000
         C            1.424899629932     1.107572998242    -0.252214210624    12.000000000000
         C           -2.251080370068     0.913807998242     0.779280789376    12.000000000000
         C            2.252921629932    -0.908316001758     0.778078789376    12.000000000000
         C           -2.571722370068    -1.171510001758    -1.040421210624    12.000000000000
         C            2.573446629932     1.179397998242    -1.038895210624    12.000000000000
         C           -3.402468370068     0.848216998242    -0.010391210624    12.000000000000
         C            3.404297629932    -0.841637001758    -0.011519210624    12.000000000000
         C           -3.566133370068    -0.195716001758    -0.921274210624    12.000000000000
         C            3.567916629932     0.203512998242    -0.921016210624    12.000000000000
         H           -0.049093370068     0.879444998242     2.172096789376     1.007825032230
         H            0.050899629932    -0.875943001758     2.170887789376     1.007825032230
         H           -0.643258370068    -1.853441001758    -0.359432210624     1.007825032230
         H            0.644945629932     1.860331998242    -0.357011210624     1.007825032230
         H           -2.129589370068     1.728659998242     1.491585789376     1.007825032230
         H            2.131462629932    -1.724120001758     1.489297789376     1.007825032230
         H           -2.691680370068    -1.986936001758    -1.750198210624     1.007825032230
         H            2.693369629932     1.995772998242    -1.747585210624     1.007825032230
         H           -4.169741370068     1.612965998242     0.087109789376     1.007825032230
         H            4.171620629932    -1.606461001758     0.084990789376     1.007825032230
         H           -4.460826370068    -0.249332001758    -1.536863210624     1.007825032230
         H            4.462596629932     0.257969998242    -1.536549210624     1.007825032230

  Basis Set: AUG-CC-PVTZ
    Blend: AUG-CC-PVTZ
  Basis Set: (AUG-CC-PVTZ AUX)
    Blend: AUG-CC-PVTZ-JKFIT
	 Reference Energy          =    -499.4429992104830944 [Eh]
	 Singles Energy            =      -0.0000000000000000 [Eh]
	 Same-Spin Energy          =      -0.5641224123772950 [Eh]
	 Opposite-Spin Energy      =      -1.7785971003479997 [Eh]
	 Correlation Energy        =      -2.3427195127252949 [Eh]
	 Total Energy              =    -501.7857187232083902 [Eh]

	 ================> DF-SCS-MP2 Energies <==================
	-----------------------------------------------------------
	 SCS Same-Spin Scale       =       0.3333333333333333 [-]
	 SCS Opposite-Spin Scale   =       1.2000000000000000 [-]
	 SCS Same-Spin Energy      =      -0.1880408041257650 [Eh]
	 SCS Opposite-Spin Energy  =      -2.1343165204175993 [Eh]
	 SCS Correlation Energy    =      -2.3223573245433644 [Eh]
	 SCS Total Energy          =    -501.7653565350264557 [Eh]
	-----------------------------------------------------------

  Dipole Moment: [D]
     X:     0.0186      Y:     0.0135      Z:     0.0576     Total:     0.0620

*** Psi4 exiting successfully. Buy a developer a beer!
