                               Psi4 1.3.2 release

  ==> Input File <==

--------------------------------------------------------------------------
#psi4
#
memory 32 gb

molecule  {
0 1
  C        0.0000050    -0.0010510     1.5142370
  C       -1.2584873    -0.0844987     0.6806116
  C        1.2520490     0.0607460     0.6690880
  C       -1.4240560    -1.1040230    -0.2532470
  C        1.4240080     1.1043180    -0.2518010
  C       -2.2519720     0.9105530     0.7796940
  C        2.2520300    -0.9115710     0.7784920
  C       -2.5726140    -1.1747650    -1.0400080
  C        2.5725550     1.1761430    -1.0384820
  C       -3.4033600     0.8449620    -0.0099780
  C        3.4034060    -0.8448920    -0.0111060
  C       -3.5670250    -0.1989710    -0.9208610
  C        3.5670250     0.2002580    -0.9206030
  H       -0.0499850     0.8761900     2.1725100
  H        0.0500080    -0.8791980     2.1713010
  H       -0.6441500    -1.8566960    -0.3590190
  H        0.6440540     1.8570770    -0.3565980
  H       -2.1304810     1.7254050     1.4919990
  H        2.1305710    -1.7273750     1.4897110
  H       -2.6925720    -1.9901910    -1.7497850
  H        2.6924780     1.9925180    -1.7471720
  H       -4.1706330     1.6097110     0.0875230
  H        4.1707290    -1.6097160     0.0854040
  H       -4.4617180    -0.2525870    -1.5364500
  H        4.4617050     0.2547150    -1.5361360
units angstrom
no_reorient  #important for SAPT in psi4, default
symmetry c1  #important for SAPT in psi4, default
}

set PROPERTIES_ORIGIN ["COM"]
properties('MP2/aug-cc-pvtz', properties = ['dipole'])
--------------------------------------------------------------------------

    Molecular point group: c1
  Charge       = 0
  Multiplicity = 1
  Basis Set: AUG-CC-PVTZ
    Blend: AUG-CC-PVTZ
  Basis Set: (AUG-CC-PVTZ AUX)
    Blend: AUG-CC-PVTZ-JKFIT

    Orbital Energies [Eh]
    ---------------------

    Doubly Occupied:

       1A    -11.242935     2A    -11.242878     3A    -11.237688
       4A    -11.236332     5A    -11.236289     6A    -11.235867
       7A    -11.235834     8A    -11.233948     9A    -11.233068
      10A    -11.232664    11A    -11.232546    12A    -11.231028
      13A    -11.229889    14A     -1.161642    15A     -1.144894
      16A     -1.066792    17A     -1.012288    18A     -1.011201
      19A     -1.007150    20A     -0.926040    21A     -0.828851
      22A     -0.823626    23A     -0.814554    24A     -0.782911
      25A     -0.698322    26A     -0.687959    27A     -0.642831
      28A     -0.636659    29A     -0.634352    30A     -0.615774
      31A     -0.584681    32A     -0.583904    33A     -0.573220
      34A     -0.570677    35A     -0.544266    36A     -0.509576
      37A     -0.496951    38A     -0.494690    39A     -0.483287
      40A     -0.481672    41A     -0.474584    42A     -0.341139
      43A     -0.335213    44A     -0.333075    45A     -0.315024

  @DF-RHF Final Energy:  -499.44407395352619

   => Energetics <=

    Nuclear Repulsion Energy =            693.1757327611660457
    One-Electron Energy =               -2049.8820772109152131
    Two-Electron Energy =                 857.2622704962229818
    Total Energy =                       -499.4440739535261855
  Basis Set: (AUG-CC-PVTZ AUX)
    Blend: AUG-CC-PVTZ-RI
    Molecular point group: c1

    Geometry (in Angstrom), charge = 0, multiplicity = 1:

       Center              X                  Y                   Z               Mass
    ------------   -----------------  -----------------  -----------------  -----------------
         C            0.000464442924     0.000576950507     1.514668924147    12.000000000000
         C           -1.258027857076    -0.082870749493     0.681043524147    12.000000000000
         C            1.252508442924     0.062373950507     0.669519924147    12.000000000000
         C           -1.423596557076    -1.102395049493    -0.252815075853    12.000000000000
         C            1.424467442924     1.105945950507    -0.251369075853    12.000000000000
         C           -2.251512557076     0.912180950507     0.780125924147    12.000000000000
         C            2.252489442924    -0.909943049493     0.778923924147    12.000000000000
         C           -2.572154557076    -1.173137049493    -1.039576075853    12.000000000000
         C            2.573014442924     1.177770950507    -1.038050075853    12.000000000000
         C           -3.402900557076     0.846589950507    -0.009546075853    12.000000000000
         C            3.403865442924    -0.843264049493    -0.010674075853    12.000000000000
         C           -3.566565557076    -0.197343049493    -0.920429075853    12.000000000000
         C            3.567484442924     0.201885950507    -0.920171075853    12.000000000000
         H           -0.049525557076     0.877817950507     2.172941924147     1.007825032230
         H            0.050467442924    -0.877570049493     2.171732924147     1.007825032230
         H           -0.643690557076    -1.855068049493    -0.358587075853     1.007825032230
         H            0.644513442924     1.858704950507    -0.356166075853     1.007825032230
         H           -2.130021557076     1.727032950507     1.492430924147     1.007825032230
         H            2.131030442924    -1.725747049493     1.490142924147     1.007825032230
         H           -2.692112557076    -1.988563049493    -1.749353075853     1.007825032230
         H            2.692937442924     1.994145950507    -1.746740075853     1.007825032230
         H           -4.170173557076     1.611338950507     0.087954924147     1.007825032230
         H            4.171188442924    -1.608088049493     0.085835924147     1.007825032230
         H           -4.461258557076    -0.250959049493    -1.536018075853     1.007825032230
         H            4.462164442924     0.256342950507    -1.535704075853     1.007825032230

  Basis Set: AUG-CC-PVTZ
    Blend: AUG-CC-PVTZ
  Basis Set: (AUG-CC-PVTZ AUX)
    Blend: AUG-CC-PVTZ-JKFIT
	 Reference Energy          =    -499.4440739535261855 [Eh]
	 Singles Energy            =      -0.0000000000000000 [Eh]
	 Same-Spin Energy          =      -0.5641190702546292 [Eh]
	 Opposite-Spin Energy      =      -1.7785395056261240 [Eh]
	 Correlation Energy        =      -2.3426585758807530 [Eh]
	 Total Energy              =    -501.7867325294069474 [Eh]

	 ================> DF-SCS-MP2 Energies <==================
	-----------------------------------------------------------
	 SCS Same-Spin Scale       =       0.3333333333333333 [-]
	 SCS Opposite-Spin Scale   =       1.2000000000000000 [-]
	 SCS Same-Spin Energy      =      -0.1880396900848764 [Eh]
	 SCS Opposite-Spin Energy  =      -2.1342474067513488 [Eh]
	 SCS Correlation Energy    =      -2.3222870968362250 [Eh]
	 SCS Total Energy          =    -501.7663610503624341 [Eh]
	-----------------------------------------------------------

  Dipole Moment: [D]
     X:     0.0101      Y:     0.0069      Z:     0.0652     Total:     0.0664

*** Psi4 exiting successfully. Buy a developer a beer!
