                               Psi4 1.4a3.dev225

  ==> Input File <==

--------------------------------------------------------------------------
#psi4
#
memory 32 gb

molecule  {
0 1
  C        0.0000050    -0.0010510     1.5142370
  C       -1.2520500    -0.0616820     0.6690270
  C        1.2520490     0.0607460     0.6690880
  C       -1.4240560    -1.1040230    -0.2532470
  C        1.4240080     1.1043180    -0.2518010
  C       -2.2519720     0.9105530     0.7796940
  C        2.2520300    -0.9115710     0.7784920
  C       -2.5726140    -1.1747650    -1.0400080
  C        2.5725550     1.1761430    -1.0384820
  C       -3.4033600     0.8449620    -0.0099780
  C        3.4034060    -0.8448920    -0.0111060
  C       -3.5670250    -0.1989710    -0.9208610
  C        3.5670250     0.2002580    -0.9206030
  H       -0.0499850     0.8761900     2.1725100
  H        0.0490971    -0.8632011     2.1593315
  H       -0.6441500    -1.8566960    -0.3590190
  H        0.6440540     1.8570770    -0.3565980
  H       -2.1304810     1.7254050     1.4919990
  H        2.1305710    -1.7273750     1.4897110
  H       -2.6925720    -1.9901910    -1.7497850
  H        2.6924780     1.9925180    -1.7471720
  H       -4.1706330     1.6097110     0.0875230
  H        4.1707290    -1.6097160     0.0854040
  H       -4.4617180    -0.2525870    -1.5364500
  H        4.4617050     0.2547150    -1.5361360
units angstrom
no_reorient  #important for SAPT in psi4, default
symmetry c1  #important for SAPT in psi4, default
}

set PROPERTIES_ORIGIN ["COM"]
properties('MP2/aug-cc-pvtz', properties = ['dipole'])
--------------------------------------------------------------------------

    Molecular point group: c1
  Charge       = 0
  Multiplicity = 1
  Basis Set: AUG-CC-PVTZ
    Blend: AUG-CC-PVTZ
  Basis Set: (AUG-CC-PVTZ AUX)
    Blend: AUG-CC-PVTZ-JKFIT

    Orbital Energies [Eh]
    ---------------------

    Doubly Occupied:

       1A    -11.242682     2A    -11.242648     3A    -11.236279
       4A    -11.236237     5A    -11.235760     6A    -11.235735
       7A    -11.235398     8A    -11.232965     9A    -11.232874
      10A    -11.232526    11A    -11.232505    12A    -11.230890
      13A    -11.230810    14A     -1.161769    15A     -1.144822
      16A     -1.067332    17A     -1.012620    18A     -1.011092
      19A     -1.006711    20A     -0.927090    21A     -0.829126
      22A     -0.823525    23A     -0.814038    24A     -0.783736
      25A     -0.698180    26A     -0.688349    27A     -0.643506
      28A     -0.637341    29A     -0.634042    30A     -0.616090
      31A     -0.584467    32A     -0.583663    33A     -0.572901
      34A     -0.571431    35A     -0.546030    36A     -0.509239
      37A     -0.496615    38A     -0.495375    39A     -0.482743
      40A     -0.481630    41A     -0.475608    42A     -0.340476
      43A     -0.335371    44A     -0.333945    45A     -0.314544

  @DF-RHF Final Energy:  -499.44450003092572

   => Energetics <=

    Nuclear Repulsion Energy =            693.3830445326276504
    One-Electron Energy =               -2050.2936555255550957
    Two-Electron Energy =                 857.4661109620018351
    Total Energy =                       -499.4445000309257239
  Basis Set: (AUG-CC-PVTZ AUX)
    Blend: AUG-CC-PVTZ-RI
    Molecular point group: c1

    Geometry (in Angstrom), charge = 0, multiplicity = 1:

       Center              X                  Y                   Z               Mass
    ------------   -----------------  -----------------  -----------------  -----------------
         C            0.000010354036    -0.001147814494     1.515567697757    12.000000000000
         C           -1.252044645964    -0.061778814494     0.670357697757    12.000000000000
         C            1.252054354036     0.060649185506     0.670418697757    12.000000000000
         C           -1.424050645964    -1.104119814494    -0.251916302243    12.000000000000
         C            1.424013354036     1.104221185506    -0.250470302243    12.000000000000
         C           -2.251966645964     0.910456185506     0.781024697757    12.000000000000
         C            2.252035354036    -0.911667814494     0.779822697757    12.000000000000
         C           -2.572608645964    -1.174861814494    -1.038677302243    12.000000000000
         C            2.572560354036     1.176046185506    -1.037151302243    12.000000000000
         C           -3.403354645964     0.844865185506    -0.008647302243    12.000000000000
         C            3.403411354036    -0.844988814494    -0.009775302243    12.000000000000
         C           -3.567019645964    -0.199067814494    -0.919530302243    12.000000000000
         C            3.567030354036     0.200161185506    -0.919272302243    12.000000000000
         H           -0.049979645964     0.876093185506     2.173840697757     1.007825032230
         H            0.049102454036    -0.863297914494     2.160662197757     1.007825032230
         H           -0.644144645964    -1.856792814494    -0.357688302243     1.007825032230
         H            0.644059354036     1.856980185506    -0.355267302243     1.007825032230
         H           -2.130475645964     1.725308185506     1.493329697757     1.007825032230
         H            2.130576354036    -1.727471814494     1.491041697757     1.007825032230
         H           -2.692566645964    -1.990287814494    -1.748454302243     1.007825032230
         H            2.692483354036     1.992421185506    -1.745841302243     1.007825032230
         H           -4.170627645964     1.609614185506     0.088853697757     1.007825032230
         H            4.170734354036    -1.609812814494     0.086734697757     1.007825032230
         H           -4.461712645964    -0.252683814494    -1.535119302243     1.007825032230
         H            4.461710354036     0.254618185506    -1.534805302243     1.007825032230

  Basis Set: AUG-CC-PVTZ
    Blend: AUG-CC-PVTZ
  Basis Set: (AUG-CC-PVTZ AUX)
    Blend: AUG-CC-PVTZ-JKFIT
	 Reference Energy          =    -499.4445000309257239 [Eh]
	 Singles Energy            =      -0.0000000000000000 [Eh]
	 Same-Spin Energy          =      -0.5640991501693000 [Eh]
	 Opposite-Spin Energy      =      -1.7783963606327051 [Eh]
	 Correlation Energy        =      -2.3424955108020051 [Eh]
	 Total Energy              =    -501.7869955417277197 [Eh]

	 ================> DF-SCS-MP2 Energies <==================
	-----------------------------------------------------------
	 SCS Same-Spin Scale       =       0.3333333333333333 [-]
	 SCS Opposite-Spin Scale   =       1.2000000000000000 [-]
	 SCS Same-Spin Energy      =      -0.1880330500564333 [Eh]
	 SCS Opposite-Spin Energy  =      -2.1340756327592461 [Eh]
	 SCS Correlation Energy    =      -2.3221086828156792 [Eh]
	 SCS Total Energy          =    -501.7666087137413911 [Eh]
	-----------------------------------------------------------

  Dipole Moment: [D]
     X:     0.0013      Y:    -0.0048      Z:     0.0807     Total:     0.0809

*** Psi4 exiting successfully. Buy a developer a beer!
