                               Psi4 1.4a3.dev225

  ==> Input File <==

--------------------------------------------------------------------------
#psi4
#
memory 32 gb

molecule  {
0 1
  C        0.0000050    -0.0010510     1.5142370
  C       -1.2686132    -0.0624841     0.6578459
  C        1.2520490     0.0607460     0.6690880
  C       -1.4240560    -1.1040230    -0.2532470
  C        1.4240080     1.1043180    -0.2518010
  C       -2.2519720     0.9105530     0.7796940
  C        2.2520300    -0.9115710     0.7784920
  C       -2.5726140    -1.1747650    -1.0400080
  C        2.5725550     1.1761430    -1.0384820
  C       -3.4033600     0.8449620    -0.0099780
  C        3.4034060    -0.8448920    -0.0111060
  C       -3.5670250    -0.1989710    -0.9208610
  C        3.5670250     0.2002580    -0.9206030
  H       -0.0499850     0.8761900     2.1725100
  H        0.0500080    -0.8791980     2.1713010
  H       -0.6441500    -1.8566960    -0.3590190
  H        0.6440540     1.8570770    -0.3565980
  H       -2.1304810     1.7254050     1.4919990
  H        2.1305710    -1.7273750     1.4897110
  H       -2.6925720    -1.9901910    -1.7497850
  H        2.6924780     1.9925180    -1.7471720
  H       -4.1706330     1.6097110     0.0875230
  H        4.1707290    -1.6097160     0.0854040
  H       -4.4617180    -0.2525870    -1.5364500
  H        4.4617050     0.2547150    -1.5361360
units angstrom
no_reorient  #important for SAPT in psi4, default
symmetry c1  #important for SAPT in psi4, default
}

set PROPERTIES_ORIGIN ["COM"]
properties('MP2/aug-cc-pvtz', properties = ['dipole'])
--------------------------------------------------------------------------

    Molecular point group: c1
  Charge       = 0
  Multiplicity = 1
  Basis Set: AUG-CC-PVTZ
    Blend: AUG-CC-PVTZ
  Basis Set: (AUG-CC-PVTZ AUX)
    Blend: AUG-CC-PVTZ-JKFIT

    Orbital Energies [Eh]
    ---------------------

    Doubly Occupied:

       1A    -11.242449     2A    -11.241553     3A    -11.238135
       4A    -11.236364     5A    -11.236092     6A    -11.235887
       7A    -11.235599     8A    -11.232711     9A    -11.232478
      10A    -11.232350    11A    -11.231911    12A    -11.230670
      13A    -11.229993    14A     -1.161988    15A     -1.145779
      16A     -1.064836    17A     -1.013366    18A     -1.011373
      19A     -1.007138    20A     -0.924971    21A     -0.829561
      22A     -0.823979    23A     -0.813615    24A     -0.783481
      25A     -0.698317    26A     -0.688078    27A     -0.642282
      28A     -0.636368    29A     -0.633234    30A     -0.616662
      31A     -0.585929    32A     -0.583723    33A     -0.571744
      34A     -0.569867    35A     -0.543887    36A     -0.509175
      37A     -0.497104    38A     -0.495739    39A     -0.482967
      40A     -0.482173    41A     -0.473433    42A     -0.340719
      43A     -0.335670    44A     -0.334143    45A     -0.315371

  @DF-RHF Final Energy:  -499.44445902402362

   => Energetics <=

    Nuclear Repulsion Energy =            693.3244135442043898
    One-Electron Energy =               -2050.1920164419461798
    Two-Electron Energy =                 857.4231438737181179
    Total Energy =                       -499.4444590240236721
  Basis Set: (AUG-CC-PVTZ AUX)
    Blend: AUG-CC-PVTZ-RI
    Molecular point group: c1

    Geometry (in Angstrom), charge = 0, multiplicity = 1:

       Center              X                  Y                   Z               Mass
    ------------   -----------------  -----------------  -----------------  -----------------
         C            0.001187317458    -0.000994642510     1.516294137194    12.000000000000
         C           -1.267430882542    -0.062427742510     0.659903037194    12.000000000000
         C            1.253231317458     0.060802357490     0.671145137194    12.000000000000
         C           -1.422873682542    -1.103966642510    -0.251189862806    12.000000000000
         C            1.425190317458     1.104374357490    -0.249743862806    12.000000000000
         C           -2.250789682542     0.910609357490     0.781751137194    12.000000000000
         C            2.253212317458    -0.911514642510     0.780549137194    12.000000000000
         C           -2.571431682542    -1.174708642510    -1.037950862806    12.000000000000
         C            2.573737317458     1.176199357490    -1.036424862806    12.000000000000
         C           -3.402177682542     0.845018357490    -0.007920862806    12.000000000000
         C            3.404588317458    -0.844835642510    -0.009048862806    12.000000000000
         C           -3.565842682542    -0.198914642510    -0.918803862806    12.000000000000
         C            3.568207317458     0.200314357490    -0.918545862806    12.000000000000
         H           -0.048802682542     0.876246357490     2.174567137194     1.007825032230
         H            0.051190317458    -0.879141642510     2.173358137194     1.007825032230
         H           -0.642967682542    -1.856639642510    -0.356961862806     1.007825032230
         H            0.645236317458     1.857133357490    -0.354540862806     1.007825032230
         H           -2.129298682542     1.725461357490     1.494056137194     1.007825032230
         H            2.131753317458    -1.727318642510     1.491768137194     1.007825032230
         H           -2.691389682542    -1.990134642510    -1.747727862806     1.007825032230
         H            2.693660317458     1.992574357490    -1.745114862806     1.007825032230
         H           -4.169450682542     1.609767357490     0.089580137194     1.007825032230
         H            4.171911317458    -1.609659642510     0.087461137194     1.007825032230
         H           -4.460535682542    -0.252530642510    -1.534392862806     1.007825032230
         H            4.462887317458     0.254771357490    -1.534078862806     1.007825032230

  Basis Set: AUG-CC-PVTZ
    Blend: AUG-CC-PVTZ
  Basis Set: (AUG-CC-PVTZ AUX)
    Blend: AUG-CC-PVTZ-JKFIT
	 Reference Energy          =    -499.4444590240236153 [Eh]
	 Singles Energy            =      -0.0000000000000000 [Eh]
	 Same-Spin Energy          =      -0.5639511655051268 [Eh]
	 Opposite-Spin Energy      =      -1.7782602229488222 [Eh]
	 Correlation Energy        =      -2.3422113884539488 [Eh]
	 Total Energy              =    -501.7866704124775765 [Eh]

	 ================> DF-SCS-MP2 Energies <==================
	-----------------------------------------------------------
	 SCS Same-Spin Scale       =       0.3333333333333333 [-]
	 SCS Opposite-Spin Scale   =       1.2000000000000000 [-]
	 SCS Same-Spin Energy      =      -0.1879837218350423 [Eh]
	 SCS Opposite-Spin Energy  =      -2.1339122675385864 [Eh]
	 SCS Correlation Energy    =      -2.3218959893736288 [Eh]
	 SCS Total Energy          =    -501.7663550133972308 [Eh]
	-----------------------------------------------------------

  Dipole Moment: [D]
     X:    -0.0310      Y:     0.0007      Z:     0.0648     Total:     0.0718

*** Psi4 exiting successfully. Buy a developer a beer!
