                               Psi4 1.3.2 release

  ==> Input File <==

--------------------------------------------------------------------------
#psi4
#
memory 32 gb

molecule  {
0 1
  C        0.0000050    -0.0010510     1.5142370
  C       -1.3348660    -0.0656924     0.6131214
  C        1.2520490     0.0607460     0.6690880
  C       -1.4240560    -1.1040230    -0.2532470
  C        1.4240080     1.1043180    -0.2518010
  C       -2.2519720     0.9105530     0.7796940
  C        2.2520300    -0.9115710     0.7784920
  C       -2.5726140    -1.1747650    -1.0400080
  C        2.5725550     1.1761430    -1.0384820
  C       -3.4033600     0.8449620    -0.0099780
  C        3.4034060    -0.8448920    -0.0111060
  C       -3.5670250    -0.1989710    -0.9208610
  C        3.5670250     0.2002580    -0.9206030
  H       -0.0499850     0.8761900     2.1725100
  H        0.0500080    -0.8791980     2.1713010
  H       -0.6441500    -1.8566960    -0.3590190
  H        0.6440540     1.8570770    -0.3565980
  H       -2.1304810     1.7254050     1.4919990
  H        2.1305710    -1.7273750     1.4897110
  H       -2.6925720    -1.9901910    -1.7497850
  H        2.6924780     1.9925180    -1.7471720
  H       -4.1706330     1.6097110     0.0875230
  H        4.1707290    -1.6097160     0.0854040
  H       -4.4617180    -0.2525870    -1.5364500
  H        4.4617050     0.2547150    -1.5361360
units angstrom
no_reorient  #important for SAPT in psi4, default
symmetry c1  #important for SAPT in psi4, default
}

set PROPERTIES_ORIGIN ["COM"]
properties('MP2/aug-cc-pvtz', properties = ['dipole'])
--------------------------------------------------------------------------

    Molecular point group: c1
  Charge       = 0
  Multiplicity = 1
  Basis Set: AUG-CC-PVTZ
    Blend: AUG-CC-PVTZ
  Basis Set: (AUG-CC-PVTZ AUX)
    Blend: AUG-CC-PVTZ-JKFIT

    Orbital Energies [Eh]
    ---------------------

    Doubly Occupied:

       1A    -11.241112     2A    -11.238788     3A    -11.237284
       4A    -11.236932     5A    -11.236504     6A    -11.235306
       7A    -11.234826     8A    -11.231914     9A    -11.231683
      10A    -11.231459    11A    -11.229625    12A    -11.228209
      13A    -11.226626    14A     -1.165794    15A     -1.148044
      16A     -1.057825    17A     -1.018485    18A     -1.011085
      19A     -1.008396    20A     -0.920544    21A     -0.833243
      22A     -0.824126    23A     -0.811706    24A     -0.784368
      25A     -0.699458    26A     -0.687960    27A     -0.640838
      28A     -0.634278    29A     -0.630792    30A     -0.619556
      31A     -0.592705    32A     -0.582851    33A     -0.568727
      34A     -0.564739    35A     -0.541776    36A     -0.510593
      37A     -0.502895    38A     -0.496233    39A     -0.484788
      40A     -0.483049    41A     -0.457289    42A     -0.342160
      43A     -0.338111    44A     -0.333802    45A     -0.317240

  @DF-RHF Final Energy:  -499.43534793209506

   => Energetics <=

    Nuclear Repulsion Energy =            693.5638211869866154
    One-Electron Energy =               -2050.6908928090952031
    Two-Electron Energy =                 857.6917236900135322
    Total Energy =                       -499.4353479320950555
  Basis Set: (AUG-CC-PVTZ AUX)
    Blend: AUG-CC-PVTZ-RI
    Molecular point group: c1

    Geometry (in Angstrom), charge = 0, multiplicity = 1:

       Center              X                  Y                   Z               Mass
    ------------   -----------------  -----------------  -----------------  -----------------
         C            0.005917016740    -0.000765606240     1.519486959769    12.000000000000
         C           -1.328953983260    -0.065407006240     0.618371359769    12.000000000000
         C            1.257961016740     0.061031393760     0.674337959769    12.000000000000
         C           -1.418143983260    -1.103737606240    -0.247997040231    12.000000000000
         C            1.429920016740     1.104603393760    -0.246551040231    12.000000000000
         C           -2.246059983260     0.910838393760     0.784943959769    12.000000000000
         C            2.257942016740    -0.911285606240     0.783741959769    12.000000000000
         C           -2.566701983260    -1.174479606240    -1.034758040231    12.000000000000
         C            2.578467016740     1.176428393760    -1.033232040231    12.000000000000
         C           -3.397447983260     0.845247393760    -0.004728040231    12.000000000000
         C            3.409318016740    -0.844606606240    -0.005856040231    12.000000000000
         C           -3.561112983260    -0.198685606240    -0.915611040231    12.000000000000
         C            3.572937016740     0.200543393760    -0.915353040231    12.000000000000
         H           -0.044072983260     0.876475393760     2.177759959769     1.007825032230
         H            0.055920016740    -0.878912606240     2.176550959769     1.007825032230
         H           -0.638237983260    -1.856410606240    -0.353769040231     1.007825032230
         H            0.649966016740     1.857362393760    -0.351348040231     1.007825032230
         H           -2.124568983260     1.725690393760     1.497248959769     1.007825032230
         H            2.136483016740    -1.727089606240     1.494960959769     1.007825032230
         H           -2.686659983260    -1.989905606240    -1.744535040231     1.007825032230
         H            2.698390016740     1.992803393760    -1.741922040231     1.007825032230
         H           -4.164720983260     1.609996393760     0.092772959769     1.007825032230
         H            4.176641016740    -1.609430606240     0.090653959769     1.007825032230
         H           -4.455805983260    -0.252301606240    -1.531200040231     1.007825032230
         H            4.467617016740     0.255000393760    -1.530886040231     1.007825032230

  Basis Set: AUG-CC-PVTZ
    Blend: AUG-CC-PVTZ
  Basis Set: (AUG-CC-PVTZ AUX)
    Blend: AUG-CC-PVTZ-JKFIT
	 Reference Energy          =    -499.4353479320950555 [Eh]
	 Singles Energy            =      -0.0000000000000000 [Eh]
	 Same-Spin Energy          =      -0.5636969749251363 [Eh]
	 Opposite-Spin Energy      =      -1.7778466086958087 [Eh]
	 Correlation Energy        =      -2.3415435836209451 [Eh]
	 Total Energy              =    -501.7768915157159881 [Eh]

	 ================> DF-SCS-MP2 Energies <==================
	-----------------------------------------------------------
	 SCS Same-Spin Scale       =       0.3333333333333333 [-]
	 SCS Opposite-Spin Scale   =       1.2000000000000000 [-]
	 SCS Same-Spin Energy      =      -0.1878989916417121 [Eh]
	 SCS Opposite-Spin Energy  =      -2.1334159304349702 [Eh]
	 SCS Correlation Energy    =      -2.3213149220766822 [Eh]
	 SCS Total Energy          =    -501.7566628541717364 [Eh]
	-----------------------------------------------------------

  Dipole Moment: [D]
     X:    -0.1555      Y:     0.0023      Z:     0.0338     Total:     0.1592

*** Psi4 exiting successfully. Buy a developer a beer!
