                               Psi4 1.4a2.dev612

  ==> Input File <==

--------------------------------------------------------------------------
#psi4
#
memory 32 gb

molecule  {
0 1
  O        2.2963030    -1.1646890    -0.3757460
  N        2.3923280     1.0164480     0.2994170
  C        0.2207310    -0.0269520    -0.0211670
  C       -0.4523230     1.1907380    -0.1883680
  C       -0.5090170    -1.2093150     0.1506230
  C       -1.8475330     1.2224820    -0.1660350
  C       -1.9015700    -1.1704770     0.1807190
  C       -2.5738810     0.0455010     0.0269260
  C        1.7173023    -0.1040449     0.1539486
  H        0.1072720     2.1036640    -0.3785230
  H        0.0332720    -2.1453590     0.2524960
  H       -2.3684780     2.1664290    -0.3073730
  H       -2.4655310    -2.0892580     0.3223660
  H       -3.6606990     0.0738880     0.0465090
  H        1.9473050     1.6788240     0.9202200
  H        3.3908630     0.8938600     0.4225490
units angstrom
no_reorient  #important for SAPT in psi4, default
symmetry c1  #important for SAPT in psi4, default
}

set PROPERTIES_ORIGIN ["COM"]
properties('MP2/aug-cc-pvtz', properties = ['dipole'])
--------------------------------------------------------------------------

    Molecular point group: c1
  Charge       = 0
  Multiplicity = 1
  Basis Set: AUG-CC-PVTZ
    Blend: AUG-CC-PVTZ
  Basis Set: (AUG-CC-PVTZ AUX)
    Blend: AUG-CC-PVTZ-JKFIT

    Orbital Energies [Eh]
    ---------------------

    Doubly Occupied:

       1A    -20.513235     2A    -15.606113     3A    -11.364734
       4A    -11.259993     5A    -11.257258     6A    -11.253405
       7A    -11.250116     8A    -11.248827     9A    -11.246796
      10A     -1.341108    11A     -1.228170    12A     -1.164750
      13A     -1.039451    14A     -1.028014    15A     -0.881512
      16A     -0.840637    17A     -0.797971    18A     -0.750982
      19A     -0.706137    20A     -0.670381    21A     -0.638348
      22A     -0.615414    23A     -0.600422    24A     -0.579085
      25A     -0.564009    26A     -0.519796    27A     -0.507885
      28A     -0.504627    29A     -0.423623    30A     -0.414461
      31A     -0.351014    32A     -0.344303

  @DF-RHF Final Energy:  -398.59629038575451

   => Energetics <=

    Nuclear Repulsion Energy =            403.3308715763649843
    One-Electron Energy =               -1340.8291684958282985
    Two-Electron Energy =                 538.9020065337087999
    Total Energy =                       -398.5962903857545143
  Basis Set: (AUG-CC-PVTZ AUX)
    Blend: AUG-CC-PVTZ-RI
    Molecular point group: c1

    Geometry (in Angstrom), charge = 0, multiplicity = 1:

       Center              X                  Y                   Z               Mass
    ------------   -----------------  -----------------  -----------------  -----------------
         O            2.271239286540    -1.145544585928    -0.384921657670    15.994914619570
         N            2.367264286540     1.035592414072     0.290241342330    14.003074004430
         C            0.195667286540    -0.007807585928    -0.030342657670    12.000000000000
         C           -0.477386713460     1.209882414072    -0.197543657670    12.000000000000
         C           -0.534080713460    -1.190170585928     0.141447342330    12.000000000000
         C           -1.872596713460     1.241626414072    -0.175210657670    12.000000000000
         C           -1.926633713460    -1.151332585928     0.171543342330    12.000000000000
         C           -2.598944713460     0.064645414072     0.017750342330    12.000000000000
         C            1.692238586540    -0.084900485928     0.144772942330    12.000000000000
         H            0.082208286540     2.122808414072    -0.387698657670     1.007825032230
         H            0.008208286540    -2.126214585928     0.243320342330     1.007825032230
         H           -2.393541713460     2.185573414072    -0.316548657670     1.007825032230
         H           -2.490594713460    -2.070113585928     0.313190342330     1.007825032230
         H           -3.685762713460     0.093032414072     0.037333342330     1.007825032230
         H            1.922241286540     1.697968414072     0.911044342330     1.007825032230
         H            3.365799286540     0.913004414072     0.413373342330     1.007825032230

  Basis Set: AUG-CC-PVTZ
    Blend: AUG-CC-PVTZ
  Basis Set: (AUG-CC-PVTZ AUX)
    Blend: AUG-CC-PVTZ-JKFIT
	 Reference Energy          =    -398.5962903857545143 [Eh]
	 Singles Energy            =      -0.0000000000000000 [Eh]
	 Same-Spin Energy          =      -0.4274774673808200 [Eh]
	 Opposite-Spin Energy      =      -1.3084538810208499 [Eh]
	 Correlation Energy        =      -1.7359313484016701 [Eh]
	 Total Energy              =    -400.3322217341561782 [Eh]

	 ================> DF-SCS-MP2 Energies <==================
	-----------------------------------------------------------
	 SCS Same-Spin Scale       =       0.3333333333333333 [-]
	 SCS Opposite-Spin Scale   =       1.2000000000000000 [-]
	 SCS Same-Spin Energy      =      -0.1424924891269400 [Eh]
	 SCS Opposite-Spin Energy  =      -1.5701446572250199 [Eh]
	 SCS Correlation Energy    =      -1.7126371463519598 [Eh]
	 SCS Total Energy          =    -400.3089275321064520 [Eh]
	-----------------------------------------------------------

  Dipole Moment: [D]
     X:    -1.3424      Y:     3.1924      Z:     1.9518     Total:     3.9753

*** Psi4 exiting successfully. Buy a developer a beer!
