                               Psi4 1.4a2.dev612

  ==> Input File <==

--------------------------------------------------------------------------
#psi4
#
memory 32 gb

molecule  {
0 1
  O        2.2963030    -1.1646890    -0.3757460
  N        2.3923280     1.0164480     0.2994170
  C        0.2208387    -0.0565266     0.0743596
  C       -0.4523230     1.1907380    -0.1883680
  C       -0.5090170    -1.2093150     0.1506230
  C       -1.8475330     1.2224820    -0.1660350
  C       -1.9015700    -1.1704770     0.1807190
  C       -2.5738810     0.0455010     0.0269260
  C        1.7134710    -0.1319220    -0.0440620
  H        0.1072720     2.1036640    -0.3785230
  H        0.0332720    -2.1453590     0.2524960
  H       -2.3684780     2.1664290    -0.3073730
  H       -2.4655310    -2.0892580     0.3223660
  H       -3.6606990     0.0738880     0.0465090
  H        1.9473050     1.6788240     0.9202200
  H        3.3908630     0.8938600     0.4225490
units angstrom
no_reorient  #important for SAPT in psi4, default
symmetry c1  #important for SAPT in psi4, default
}

set PROPERTIES_ORIGIN ["COM"]
properties('MP2/aug-cc-pvtz', properties = ['dipole'])
--------------------------------------------------------------------------

    Molecular point group: c1
  Charge       = 0
  Multiplicity = 1
  Basis Set: AUG-CC-PVTZ
    Blend: AUG-CC-PVTZ
  Basis Set: (AUG-CC-PVTZ AUX)
    Blend: AUG-CC-PVTZ-JKFIT

    Orbital Energies [Eh]
    ---------------------

    Doubly Occupied:

       1A    -20.524737     2A    -15.587708     3A    -11.360835
       4A    -11.262022     5A    -11.255762     6A    -11.254674
       7A    -11.250203     8A    -11.248232     9A    -11.246665
      10A     -1.377606    11A     -1.213117    12A     -1.164572
      13A     -1.042127    14A     -1.027115    15A     -0.879578
      16A     -0.841576    17A     -0.787305    18A     -0.741791
      19A     -0.696173    20A     -0.670644    21A     -0.637834
      22A     -0.622399    23A     -0.604307    24A     -0.593336
      25A     -0.573777    26A     -0.526037    27A     -0.508314
      28A     -0.504829    29A     -0.436203    30A     -0.418908
      31A     -0.353545    32A     -0.347045

  @DF-RHF Final Energy:  -398.62470711440949

   => Energetics <=

    Nuclear Repulsion Energy =            403.9102182758895196
    One-Electron Energy =               -1341.9519002273486876
    Two-Electron Energy =                 539.4169748370496791
    Total Energy =                       -398.6247071144094889
  Basis Set: (AUG-CC-PVTZ AUX)
    Blend: AUG-CC-PVTZ-RI
    Molecular point group: c1

    Geometry (in Angstrom), charge = 0, multiplicity = 1:

       Center              X                  Y                   Z               Mass
    ------------   -----------------  -----------------  -----------------  -----------------
         O            2.271608408224    -1.139849380151    -0.374762385292    15.994914619570
         N            2.367633408224     1.041287619849     0.300400614708    14.003074004430
         C            0.196144108224    -0.031686980151     0.075343214708    12.000000000000
         C           -0.477017591776     1.215577619849    -0.187384385292    12.000000000000
         C           -0.533711591776    -1.184475380151     0.151606614708    12.000000000000
         C           -1.872227591776     1.247321619849    -0.165051385292    12.000000000000
         C           -1.926264591776    -1.145637380151     0.181702614708    12.000000000000
         C           -2.598575591776     0.070340619849     0.027909614708    12.000000000000
         C            1.688776408224    -0.107082380151    -0.043078385292    12.000000000000
         H            0.082577408224     2.128503619849    -0.377539385292     1.007825032230
         H            0.008577408224    -2.120519380151     0.253479614708     1.007825032230
         H           -2.393172591776     2.191268619849    -0.306389385292     1.007825032230
         H           -2.490225591776    -2.064418380151     0.323349614708     1.007825032230
         H           -3.685393591776     0.098727619849     0.047492614708     1.007825032230
         H            1.922610408224     1.703663619849     0.921203614708     1.007825032230
         H            3.366168408224     0.918699619849     0.423532614708     1.007825032230

  Basis Set: AUG-CC-PVTZ
    Blend: AUG-CC-PVTZ
  Basis Set: (AUG-CC-PVTZ AUX)
    Blend: AUG-CC-PVTZ-JKFIT
	 Reference Energy          =    -398.6247071144094889 [Eh]
	 Singles Energy            =      -0.0000000000000000 [Eh]
	 Same-Spin Energy          =      -0.4247958852313161 [Eh]
	 Opposite-Spin Energy      =      -1.3027444523873277 [Eh]
	 Correlation Energy        =      -1.7275403376186438 [Eh]
	 Total Energy              =    -400.3522474520281094 [Eh]

	 ================> DF-SCS-MP2 Energies <==================
	-----------------------------------------------------------
	 SCS Same-Spin Scale       =       0.3333333333333333 [-]
	 SCS Opposite-Spin Scale   =       1.2000000000000000 [-]
	 SCS Same-Spin Energy      =      -0.1415986284104387 [Eh]
	 SCS Opposite-Spin Energy  =      -1.5632933428647933 [Eh]
	 SCS Correlation Energy    =      -1.7048919712752320 [Eh]
	 SCS Total Energy          =    -400.3295990856847197 [Eh]
	-----------------------------------------------------------

  Dipole Moment: [D]
     X:    -1.5666      Y:     2.6826      Z:     1.6435     Total:     3.5145

*** Psi4 exiting successfully. Buy a developer a beer!
