                               Psi4 1.4a2.dev612

  ==> Input File <==

--------------------------------------------------------------------------
#psi4
#
memory 32 gb

molecule  {
0 1
  O        2.2963030    -1.1646890    -0.3757460
  N        2.3923280     1.0164480     0.2994170
  C        0.2207310    -0.0269520    -0.0211670
  C       -0.4523230     1.1907380    -0.1883680
  C       -0.5090170    -1.2093150     0.1506230
  C       -1.8475330     1.2224820    -0.1660350
  C       -1.9015700    -1.1704770     0.1807190
  C       -2.5738810     0.0455010     0.0269260
  C        1.7134710    -0.1319220    -0.0440620
  H        0.1072720     2.1036640    -0.3785230
  H        0.0332720    -2.1453590     0.2524960
  H       -2.3684780     2.1664290    -0.3073730
  H       -2.4655310    -2.0892580     0.3223660
  H       -3.6606990     0.0738880     0.0465090
  H        1.9473050     1.6788240     0.9202200
  H        3.3908630     0.8938600     0.4225490
units angstrom
no_reorient  #important for SAPT in psi4, default
symmetry c1  #important for SAPT in psi4, default
}

set PROPERTIES_ORIGIN ["COM"]
properties('MP2/aug-cc-pvtz', properties = ['dipole'])
--------------------------------------------------------------------------

    Molecular point group: c1
  Charge       = 0
  Multiplicity = 1
  Basis Set: AUG-CC-PVTZ
    Blend: AUG-CC-PVTZ
  Basis Set: (AUG-CC-PVTZ AUX)
    Blend: AUG-CC-PVTZ-JKFIT

    Orbital Energies [Eh]
    ---------------------

    Doubly Occupied:

       1A    -20.525133     2A    -15.588151     3A    -11.360823
       4A    -11.257832     5A    -11.255468     6A    -11.254245
       7A    -11.250156     8A    -11.250105     9A    -11.247526
      10A     -1.377991    11A     -1.213624    12A     -1.164500
      13A     -1.040682    14A     -1.028564    15A     -0.880046
      16A     -0.841036    17A     -0.788626    18A     -0.742206
      19A     -0.695609    20A     -0.672040    21A     -0.639756
      22A     -0.620650    23A     -0.601875    24A     -0.596984
      25A     -0.572430    26A     -0.524006    27A     -0.508781
      28A     -0.506604    29A     -0.436818    30A     -0.419651
      31A     -0.352267    32A     -0.348351

  @DF-RHF Final Energy:  -398.62942043594660

   => Energetics <=

    Nuclear Repulsion Energy =            404.0028738161349793
    One-Electron Energy =               -1342.1395175475918222
    Two-Electron Energy =                 539.5072232955102436
    Total Energy =                       -398.6294204359465994
  Basis Set: (AUG-CC-PVTZ AUX)
    Blend: AUG-CC-PVTZ-RI
    Molecular point group: c1

    Geometry (in Angstrom), charge = 0, multiplicity = 1:

       Center              X                  Y                   Z               Mass
    ------------   -----------------  -----------------  -----------------  -----------------
         O            2.271619084560    -1.142781119904    -0.365292802248    15.994914619570
         N            2.367644084560     1.038355880096     0.309870197752    14.003074004430
         C            0.196047084560    -0.005044119904    -0.010713802248    12.000000000000
         C           -0.477006915440     1.212645880096    -0.177914802248    12.000000000000
         C           -0.533700915440    -1.187407119904     0.161076197752    12.000000000000
         C           -1.872216915440     1.244389880096    -0.155581802248    12.000000000000
         C           -1.926253915440    -1.148569119904     0.191172197752    12.000000000000
         C           -2.598564915440     0.067408880096     0.037379197752    12.000000000000
         C            1.688787084560    -0.110014119904    -0.033608802248    12.000000000000
         H            0.082588084560     2.125571880096    -0.368069802248     1.007825032230
         H            0.008588084560    -2.123451119904     0.262949197752     1.007825032230
         H           -2.393161915440     2.188336880096    -0.296919802248     1.007825032230
         H           -2.490214915440    -2.067350119904     0.332819197752     1.007825032230
         H           -3.685382915440     0.095795880096     0.056962197752     1.007825032230
         H            1.922621084560     1.700731880096     0.930673197752     1.007825032230
         H            3.366179084560     0.915767880096     0.433002197752     1.007825032230

  Basis Set: AUG-CC-PVTZ
    Blend: AUG-CC-PVTZ
  Basis Set: (AUG-CC-PVTZ AUX)
    Blend: AUG-CC-PVTZ-JKFIT
	 Reference Energy          =    -398.6294204359465994 [Eh]
	 Singles Energy            =      -0.0000000000000000 [Eh]
	 Same-Spin Energy          =      -0.4247519612566528 [Eh]
	 Opposite-Spin Energy      =      -1.3024934636803951 [Eh]
	 Correlation Energy        =      -1.7272454249370479 [Eh]
	 Total Energy              =    -400.3566658608836519 [Eh]

	 ================> DF-SCS-MP2 Energies <==================
	-----------------------------------------------------------
	 SCS Same-Spin Scale       =       0.3333333333333333 [-]
	 SCS Opposite-Spin Scale   =       1.2000000000000000 [-]
	 SCS Same-Spin Energy      =      -0.1415839870855509 [Eh]
	 SCS Opposite-Spin Energy  =      -1.5629921564164742 [Eh]
	 SCS Correlation Energy    =      -1.7045761435020250 [Eh]
	 SCS Total Energy          =    -400.3339965794486375 [Eh]
	-----------------------------------------------------------

  Dipole Moment: [D]
     X:    -1.5512      Y:     2.6928      Z:     1.6506     Total:     3.5189

*** Psi4 exiting successfully. Buy a developer a beer!
