                               Psi4 1.4a2.dev612

  ==> Input File <==

--------------------------------------------------------------------------
#psi4
#
memory 32 gb

molecule  {
0 1
  O        2.2963030    -1.1646890    -0.3757460
  N        2.3923280     1.0164480     0.2994170
  C        0.2209464    -0.0861013     0.1698862
  C       -0.4523230     1.1907380    -0.1883680
  C       -0.5090170    -1.2093150     0.1506230
  C       -1.8475330     1.2224820    -0.1660350
  C       -1.9015700    -1.1704770     0.1807190
  C       -2.5738810     0.0455010     0.0269260
  C        1.7134710    -0.1319220    -0.0440620
  H        0.1072720     2.1036640    -0.3785230
  H        0.0332720    -2.1453590     0.2524960
  H       -2.3684780     2.1664290    -0.3073730
  H       -2.4655310    -2.0892580     0.3223660
  H       -3.6606990     0.0738880     0.0465090
  H        1.9473050     1.6788240     0.9202200
  H        3.3908630     0.8938600     0.4225490
units angstrom
no_reorient  #important for SAPT in psi4, default
symmetry c1  #important for SAPT in psi4, default
}

set PROPERTIES_ORIGIN ["COM"]
properties('MP2/aug-cc-pvtz', properties = ['dipole'])
--------------------------------------------------------------------------

    Molecular point group: c1
  Charge       = 0
  Multiplicity = 1
  Basis Set: AUG-CC-PVTZ
    Blend: AUG-CC-PVTZ
  Basis Set: (AUG-CC-PVTZ AUX)
    Blend: AUG-CC-PVTZ-JKFIT

    Orbital Energies [Eh]
    ---------------------

    Doubly Occupied:

       1A    -20.524432     2A    -15.587117     3A    -11.361359
       4A    -11.266586     5A    -11.256777     6A    -11.255678
       7A    -11.250114     8A    -11.248191     9A    -11.244926
      10A     -1.377094    11A     -1.212359    12A     -1.164514
      13A     -1.045122    14A     -1.023442    15A     -0.878055
      16A     -0.841687    17A     -0.785250    18A     -0.740687
      19A     -0.696903    20A     -0.669443    21A     -0.635126
      22A     -0.623377    23A     -0.606239    24A     -0.589422
      25A     -0.574519    26A     -0.528902    27A     -0.507235
      28A     -0.500421    29A     -0.434655    30A     -0.417956
      31A     -0.358350    32A     -0.342299

  @DF-RHF Final Energy:  -398.61091105430455

   => Energetics <=

    Nuclear Repulsion Energy =            403.6066380951555175
    One-Electron Energy =               -1341.3386250870041749
    Two-Electron Energy =                 539.1210759375441057
    Total Energy =                       -398.6109110543045517
  Basis Set: (AUG-CC-PVTZ AUX)
    Blend: AUG-CC-PVTZ-RI
    Molecular point group: c1

    Geometry (in Angstrom), charge = 0, multiplicity = 1:

       Center              X                  Y                   Z               Mass
    ------------   -----------------  -----------------  -----------------  -----------------
         O            2.271597731888    -1.136917630485    -0.384231968336    15.994914619570
         N            2.367622731888     1.044219369515     0.290931031664    14.003074004430
         C            0.196241131888    -0.058329930485     0.161400231664    12.000000000000
         C           -0.477028268112     1.218509369515    -0.196853968336    12.000000000000
         C           -0.533722268112    -1.181543630485     0.142137031664    12.000000000000
         C           -1.872238268112     1.250253369515    -0.174520968336    12.000000000000
         C           -1.926275268112    -1.142705630485     0.172233031664    12.000000000000
         C           -2.598586268112     0.073272369515     0.018440031664    12.000000000000
         C            1.688765731888    -0.104150630485    -0.052547968336    12.000000000000
         H            0.082566731888     2.131435369515    -0.387008968336     1.007825032230
         H            0.008566731888    -2.117587630485     0.244010031664     1.007825032230
         H           -2.393183268112     2.194200369515    -0.315858968336     1.007825032230
         H           -2.490236268112    -2.061486630485     0.313880031664     1.007825032230
         H           -3.685404268112     0.101659369515     0.038023031664     1.007825032230
         H            1.922599731888     1.706595369515     0.911734031664     1.007825032230
         H            3.366157731888     0.921631369515     0.414063031664     1.007825032230

  Basis Set: AUG-CC-PVTZ
    Blend: AUG-CC-PVTZ
  Basis Set: (AUG-CC-PVTZ AUX)
    Blend: AUG-CC-PVTZ-JKFIT
	 Reference Energy          =    -398.6109110543045517 [Eh]
	 Singles Energy            =      -0.0000000000000000 [Eh]
	 Same-Spin Energy          =      -0.4249460605314622 [Eh]
	 Opposite-Spin Energy      =      -1.3038134532402350 [Eh]
	 Correlation Energy        =      -1.7287595137716971 [Eh]
	 Total Energy              =    -400.3396705680762580 [Eh]

	 ================> DF-SCS-MP2 Energies <==================
	-----------------------------------------------------------
	 SCS Same-Spin Scale       =       0.3333333333333333 [-]
	 SCS Opposite-Spin Scale   =       1.2000000000000000 [-]
	 SCS Same-Spin Energy      =      -0.1416486868438207 [Eh]
	 SCS Opposite-Spin Energy  =      -1.5645761438882819 [Eh]
	 SCS Correlation Energy    =      -1.7062248307321026 [Eh]
	 SCS Total Energy          =    -400.3171358850366346 [Eh]
	-----------------------------------------------------------

  Dipole Moment: [D]
     X:    -1.5931      Y:     2.6638      Z:     1.6337     Total:     3.5076

*** Psi4 exiting successfully. Buy a developer a beer!
