                               Psi4 1.4a2.dev612

  ==> Input File <==

--------------------------------------------------------------------------
#psi4
#
memory 32 gb

molecule  {
0 1
  O        2.2963030    -1.1646890    -0.3757460
  N        2.3923280     1.0164480     0.2994170
  C        0.2208926    -0.0713140     0.1221229
  C       -0.4523230     1.1907380    -0.1883680
  C       -0.5090170    -1.2093150     0.1506230
  C       -1.8475330     1.2224820    -0.1660350
  C       -1.9015700    -1.1704770     0.1807190
  C       -2.5738810     0.0455010     0.0269260
  C        1.7134710    -0.1319220    -0.0440620
  H        0.1072720     2.1036640    -0.3785230
  H        0.0332720    -2.1453590     0.2524960
  H       -2.3684780     2.1664290    -0.3073730
  H       -2.4655310    -2.0892580     0.3223660
  H       -3.6606990     0.0738880     0.0465090
  H        1.9473050     1.6788240     0.9202200
  H        3.3908630     0.8938600     0.4225490
units angstrom
no_reorient  #important for SAPT in psi4, default
symmetry c1  #important for SAPT in psi4, default
}

set PROPERTIES_ORIGIN ["COM"]
properties('MP2/aug-cc-pvtz', properties = ['dipole'])
--------------------------------------------------------------------------

    Molecular point group: c1
  Charge       = 0
  Multiplicity = 1
  Basis Set: AUG-CC-PVTZ
    Blend: AUG-CC-PVTZ
  Basis Set: (AUG-CC-PVTZ AUX)
    Blend: AUG-CC-PVTZ-JKFIT

    Orbital Energies [Eh]
    ---------------------

    Doubly Occupied:

       1A    -20.524570     2A    -15.587432     3A    -11.361034
       4A    -11.264288     5A    -11.256171     6A    -11.255102
       7A    -11.250176     8A    -11.248179     9A    -11.245680
      10A     -1.377363    11A     -1.212769    12A     -1.164560
      13A     -1.043552    14A     -1.025430    15A     -0.878942
      16A     -0.841693    17A     -0.786350    18A     -0.741324
      19A     -0.696521    20A     -0.670012    21A     -0.636539
      22A     -0.623031    23A     -0.605331    24A     -0.591394
      25A     -0.574226    26A     -0.527434    27A     -0.507847
      28A     -0.502873    29A     -0.435547    30A     -0.418463
      31A     -0.355981    32A     -0.344632

  @DF-RHF Final Energy:  -398.61889903892558

   => Energetics <=

    Nuclear Repulsion Energy =            403.7846546739546056
    One-Electron Energy =               -1341.6982110617632316
    Two-Electron Energy =                 539.2946573488829927
    Total Energy =                       -398.6188990389256332
  Basis Set: (AUG-CC-PVTZ AUX)
    Blend: AUG-CC-PVTZ-RI
    Molecular point group: c1

    Geometry (in Angstrom), charge = 0, multiplicity = 1:

       Center              X                  Y                   Z               Mass
    ------------   -----------------  -----------------  -----------------  -----------------
         O            2.271603065099    -1.138383500362    -0.379497176814    15.994914619570
         N            2.367628065099     1.042753499638     0.295665823186    14.003074004430
         C            0.196192665099    -0.045008500362     0.118371723186    12.000000000000
         C           -0.477022934901     1.217043499638    -0.192119176814    12.000000000000
         C           -0.533716934901    -1.183009500362     0.146871823186    12.000000000000
         C           -1.872232934901     1.248787499638    -0.169786176814    12.000000000000
         C           -1.926269934901    -1.144171500362     0.176967823186    12.000000000000
         C           -2.598580934901     0.071806499638     0.023174823186    12.000000000000
         C            1.688771065099    -0.105616500362    -0.047813176814    12.000000000000
         H            0.082572065099     2.129969499638    -0.382274176814     1.007825032230
         H            0.008572065099    -2.119053500362     0.248744823186     1.007825032230
         H           -2.393177934901     2.192734499638    -0.311124176814     1.007825032230
         H           -2.490230934901    -2.062952500362     0.318614823186     1.007825032230
         H           -3.685398934901     0.100193499638     0.042757823186     1.007825032230
         H            1.922605065099     1.705129499638     0.916468823186     1.007825032230
         H            3.366163065099     0.920165499638     0.418797823186     1.007825032230

  Basis Set: AUG-CC-PVTZ
    Blend: AUG-CC-PVTZ
  Basis Set: (AUG-CC-PVTZ AUX)
    Blend: AUG-CC-PVTZ-JKFIT
	 Reference Energy          =    -398.6188990389255764 [Eh]
	 Singles Energy            =      -0.0000000000000000 [Eh]
	 Same-Spin Energy          =      -0.4248552957884112 [Eh]
	 Opposite-Spin Energy      =      -1.3031844270090032 [Eh]
	 Correlation Energy        =      -1.7280397227974142 [Eh]
	 Total Energy              =    -400.3469387617229813 [Eh]

	 ================> DF-SCS-MP2 Energies <==================
	-----------------------------------------------------------
	 SCS Same-Spin Scale       =       0.3333333333333333 [-]
	 SCS Opposite-Spin Scale   =       1.2000000000000000 [-]
	 SCS Same-Spin Energy      =      -0.1416184319294704 [Eh]
	 SCS Opposite-Spin Energy  =      -1.5638213124108038 [Eh]
	 SCS Correlation Energy    =      -1.7054397443402742 [Eh]
	 SCS Total Energy          =    -400.3243387832658300 [Eh]
	-----------------------------------------------------------

  Dipole Moment: [D]
     X:    -1.5785      Y:     2.6745      Z:     1.6390     Total:     3.5115

*** Psi4 exiting successfully. Buy a developer a beer!
