                               Psi4 1.4a2.dev612

  ==> Input File <==

--------------------------------------------------------------------------
#psi4
#
memory 32 gb

molecule  {
0 1
  O        2.2963030    -1.1646890    -0.3757460
  N        2.3923280     1.0164480     0.2994170
  C        0.2210003    -0.1008886     0.2176495
  C       -0.4523230     1.1907380    -0.1883680
  C       -0.5090170    -1.2093150     0.1506230
  C       -1.8475330     1.2224820    -0.1660350
  C       -1.9015700    -1.1704770     0.1807190
  C       -2.5738810     0.0455010     0.0269260
  C        1.7134710    -0.1319220    -0.0440620
  H        0.1072720     2.1036640    -0.3785230
  H        0.0332720    -2.1453590     0.2524960
  H       -2.3684780     2.1664290    -0.3073730
  H       -2.4655310    -2.0892580     0.3223660
  H       -3.6606990     0.0738880     0.0465090
  H        1.9473050     1.6788240     0.9202200
  H        3.3908630     0.8938600     0.4225490
units angstrom
no_reorient  #important for SAPT in psi4, default
symmetry c1  #important for SAPT in psi4, default
}

set PROPERTIES_ORIGIN ["COM"]
properties('MP2/aug-cc-pvtz', properties = ['dipole'])
--------------------------------------------------------------------------

    Molecular point group: c1
  Charge       = 0
  Multiplicity = 1
  Basis Set: AUG-CC-PVTZ
    Blend: AUG-CC-PVTZ
  Basis Set: (AUG-CC-PVTZ AUX)
    Blend: AUG-CC-PVTZ-JKFIT

    Orbital Energies [Eh]
    ---------------------

    Doubly Occupied:

       1A    -20.524328     2A    -15.586760     3A    -11.361802
       4A    -11.268868     5A    -11.257581     6A    -11.256406
       7A    -11.250023     8A    -11.248210     9A    -11.244504
      10A     -1.376803    11A     -1.211887    12A     -1.164426
      13A     -1.046705    14A     -1.021292    15A     -0.876941
      16A     -0.841537    17A     -0.784052    18A     -0.739886
      19A     -0.697311    20A     -0.668930    21A     -0.633775
      22A     -0.623277    23A     -0.607039    24A     -0.587455
      25A     -0.574652    26A     -0.530369    27A     -0.506472
      28A     -0.497586    29A     -0.433518    30A     -0.417371
      31A     -0.360607    32A     -0.340076

  @DF-RHF Final Energy:  -398.60087589799929

   => Energetics <=

    Nuclear Repulsion Energy =            403.3766514223263471
    One-Electron Energy =               -1340.8741611275609102
    Two-Electron Energy =                 538.8966338072352755
    Total Energy =                       -398.6008758979992308
  Basis Set: (AUG-CC-PVTZ AUX)
    Blend: AUG-CC-PVTZ-RI
    Molecular point group: c1

    Geometry (in Angstrom), charge = 0, multiplicity = 1:

       Center              X                  Y                   Z               Mass
    ------------   -----------------  -----------------  -----------------  -----------------
         O            2.271592388763    -1.135451760609    -0.388966759858    15.994914619570
         N            2.367617388763     1.045685239391     0.286196240142    14.003074004430
         C            0.196289688763    -0.071651360609     0.204428740142    12.000000000000
         C           -0.477033611237     1.219975239391    -0.201588759858    12.000000000000
         C           -0.533727611237    -1.180077760609     0.137402240142    12.000000000000
         C           -1.872243611237     1.251719239391    -0.179255759858    12.000000000000
         C           -1.926280611237    -1.141239760609     0.167498240142    12.000000000000
         C           -2.598591611237     0.074738239391     0.013705240142    12.000000000000
         C            1.688760388763    -0.102684760609    -0.057282759858    12.000000000000
         H            0.082561388763     2.132901239391    -0.391743759858     1.007825032230
         H            0.008561388763    -2.116121760609     0.239275240142     1.007825032230
         H           -2.393188611237     2.195666239391    -0.320593759858     1.007825032230
         H           -2.490241611237    -2.060020760609     0.309145240142     1.007825032230
         H           -3.685409611237     0.103125239391     0.033288240142     1.007825032230
         H            1.922594388763     1.708061239391     0.906999240142     1.007825032230
         H            3.366152388763     0.923097239391     0.409328240142     1.007825032230

  Basis Set: AUG-CC-PVTZ
    Blend: AUG-CC-PVTZ
  Basis Set: (AUG-CC-PVTZ AUX)
    Blend: AUG-CC-PVTZ-JKFIT
	 Reference Energy          =    -398.6008758979992876 [Eh]
	 Singles Energy            =      -0.0000000000000000 [Eh]
	 Same-Spin Energy          =      -0.4250755610276647 [Eh]
	 Opposite-Spin Energy      =      -1.3046334093791028 [Eh]
	 Correlation Energy        =      -1.7297089704067674 [Eh]
	 Total Energy              =    -400.3305848684060493 [Eh]

	 ================> DF-SCS-MP2 Energies <==================
	-----------------------------------------------------------
	 SCS Same-Spin Scale       =       0.3333333333333333 [-]
	 SCS Opposite-Spin Scale   =       1.2000000000000000 [-]
	 SCS Same-Spin Energy      =      -0.1416918536758882 [Eh]
	 SCS Opposite-Spin Energy  =      -1.5655600912549232 [Eh]
	 SCS Correlation Energy    =      -1.7072519449308114 [Eh]
	 SCS Total Energy          =    -400.3081278429301051 [Eh]
	-----------------------------------------------------------

  Dipole Moment: [D]
     X:    -1.6102      Y:     2.6504      Z:     1.6276     Total:     3.5023

*** Psi4 exiting successfully. Buy a developer a beer!
