                               Psi4 1.4a2.dev612

  ==> Input File <==

--------------------------------------------------------------------------
#psi4
#
memory 32 gb

molecule  {
0 1
  O        2.2963030    -1.1646890    -0.3757460
  N        2.3923280     1.0164480     0.2994170
  C        0.2210541    -0.1156759     0.2654128
  C       -0.4523230     1.1907380    -0.1883680
  C       -0.5090170    -1.2093150     0.1506230
  C       -1.8475330     1.2224820    -0.1660350
  C       -1.9015700    -1.1704770     0.1807190
  C       -2.5738810     0.0455010     0.0269260
  C        1.7134710    -0.1319220    -0.0440620
  H        0.1072720     2.1036640    -0.3785230
  H        0.0332720    -2.1453590     0.2524960
  H       -2.3684780     2.1664290    -0.3073730
  H       -2.4655310    -2.0892580     0.3223660
  H       -3.6606990     0.0738880     0.0465090
  H        1.9473050     1.6788240     0.9202200
  H        3.3908630     0.8938600     0.4225490
units angstrom
no_reorient  #important for SAPT in psi4, default
symmetry c1  #important for SAPT in psi4, default
}

set PROPERTIES_ORIGIN ["COM"]
properties('MP2/aug-cc-pvtz', properties = ['dipole'])
--------------------------------------------------------------------------

    Molecular point group: c1
  Charge       = 0
  Multiplicity = 1
  Basis Set: AUG-CC-PVTZ
    Blend: AUG-CC-PVTZ
  Basis Set: (AUG-CC-PVTZ AUX)
    Blend: AUG-CC-PVTZ-JKFIT

    Orbital Energies [Eh]
    ---------------------

    Doubly Occupied:

       1A    -20.524261     2A    -15.586360     3A    -11.362354
       4A    -11.271092     5A    -11.258578     6A    -11.257288
       7A    -11.249911     8A    -11.248234     9A    -11.244459
      10A     -1.376495    11A     -1.211354    12A     -1.164291
      13A     -1.048230    14A     -1.019065    15A     -0.875634
      16A     -0.841216    17A     -0.782795    18A     -0.738928
      19A     -0.697740    20A     -0.668454    21A     -0.632731
      22A     -0.622535    23A     -0.607737    24A     -0.585529
      25A     -0.574621    26A     -0.531799    27A     -0.505556
      28A     -0.494455    29A     -0.432136    30A     -0.416681
      31A     -0.362712    32A     -0.337982

  @DF-RHF Final Energy:  -398.58895249899740

   => Energetics <=

    Nuclear Repulsion Energy =            403.0953626735112607
    One-Electron Energy =               -1340.3062064524290236
    Two-Electron Energy =                 538.6218912799203054
    Total Energy =                       -398.5889524989974007
  Basis Set: (AUG-CC-PVTZ AUX)
    Blend: AUG-CC-PVTZ-RI
    Molecular point group: c1

    Geometry (in Angstrom), charge = 0, multiplicity = 1:

       Center              X                  Y                   Z               Mass
    ------------   -----------------  -----------------  -----------------  -----------------
         O            2.271587055552    -1.133985890732    -0.393701551380    15.994914619570
         N            2.367612055552     1.047151109268     0.281461448620    14.003074004430
         C            0.196338155552    -0.084972790732     0.247457248620    12.000000000000
         C           -0.477038944448     1.221441109268    -0.206323551380    12.000000000000
         C           -0.533732944448    -1.178611890732     0.132667448620    12.000000000000
         C           -1.872248944448     1.253185109268    -0.183990551380    12.000000000000
         C           -1.926285944448    -1.139773890732     0.162763448620    12.000000000000
         C           -2.598596944448     0.076204109268     0.008970448620    12.000000000000
         C            1.688755055552    -0.101218890732    -0.062017551380    12.000000000000
         H            0.082556055552     2.134367109268    -0.396478551380     1.007825032230
         H            0.008556055552    -2.114655890732     0.234540448620     1.007825032230
         H           -2.393193944448     2.197132109268    -0.325328551380     1.007825032230
         H           -2.490246944448    -2.058554890732     0.304410448620     1.007825032230
         H           -3.685414944448     0.104591109268     0.028553448620     1.007825032230
         H            1.922589055552     1.709527109268     0.902264448620     1.007825032230
         H            3.366147055552     0.924563109268     0.404593448620     1.007825032230

  Basis Set: AUG-CC-PVTZ
    Blend: AUG-CC-PVTZ
  Basis Set: (AUG-CC-PVTZ AUX)
    Blend: AUG-CC-PVTZ-JKFIT
	 Reference Energy          =    -398.5889524989974007 [Eh]
	 Singles Energy            =      -0.0000000000000000 [Eh]
	 Same-Spin Energy          =      -0.4252516723849903 [Eh]
	 Opposite-Spin Energy      =      -1.3056570592003076 [Eh]
	 Correlation Energy        =      -1.7309087315852980 [Eh]
	 Total Energy              =    -400.3198612305827169 [Eh]

	 ================> DF-SCS-MP2 Energies <==================
	-----------------------------------------------------------
	 SCS Same-Spin Scale       =       0.3333333333333333 [-]
	 SCS Opposite-Spin Scale   =       1.2000000000000000 [-]
	 SCS Same-Spin Energy      =      -0.1417505574616634 [Eh]
	 SCS Opposite-Spin Energy  =      -1.5667884710403690 [Eh]
	 SCS Correlation Energy    =      -1.7085390285020323 [Eh]
	 SCS Total Energy          =    -400.2974915274994601 [Eh]
	-----------------------------------------------------------

  Dipole Moment: [D]
     X:    -1.6296      Y:     2.6340      Z:     1.6204     Total:     3.4956

*** Psi4 exiting successfully. Buy a developer a beer!
