                               Psi4 1.4a2.dev612

  ==> Input File <==

--------------------------------------------------------------------------
#psi4
#
memory 32 gb

molecule  {
0 1
  O        2.2963030    -1.1646890    -0.3757460
  N        2.3923280     1.0164480     0.2994170
  C        0.2207310    -0.0269520    -0.0211670
  C       -0.4523230     1.1907380    -0.1883680
  C       -0.5090170    -1.2093150     0.1506230
  C       -1.8475330     1.2224820    -0.1660350
  C       -1.9015700    -1.1704770     0.1807190
  C       -2.5738810     0.0455010     0.0269260
  C        1.7153867    -0.1179834     0.0549433
  H        0.1072720     2.1036640    -0.3785230
  H        0.0332720    -2.1453590     0.2524960
  H       -2.3684780     2.1664290    -0.3073730
  H       -2.4655310    -2.0892580     0.3223660
  H       -3.6606990     0.0738880     0.0465090
  H        1.9473050     1.6788240     0.9202200
  H        3.3908630     0.8938600     0.4225490
units angstrom
no_reorient  #important for SAPT in psi4, default
symmetry c1  #important for SAPT in psi4, default
}

set PROPERTIES_ORIGIN ["COM"]
properties('MP2/aug-cc-pvtz', properties = ['dipole'])
--------------------------------------------------------------------------

    Molecular point group: c1
  Charge       = 0
  Multiplicity = 1
  Basis Set: AUG-CC-PVTZ
    Blend: AUG-CC-PVTZ
  Basis Set: (AUG-CC-PVTZ AUX)
    Blend: AUG-CC-PVTZ-JKFIT

    Orbital Energies [Eh]
    ---------------------

    Doubly Occupied:

       1A    -20.518323     2A    -15.597417     3A    -11.361859
       4A    -11.258002     5A    -11.256711     6A    -11.253881
       7A    -11.250124     8A    -11.249523     9A    -11.247158
      10A     -1.356572    11A     -1.224759    12A     -1.164862
      13A     -1.040358    14A     -1.028321    15A     -0.881135
      16A     -0.840881    17A     -0.793630    18A     -0.746747
      19A     -0.701397    20A     -0.671515    21A     -0.638806
      22A     -0.617478    23A     -0.600808    24A     -0.587244
      25A     -0.569859    26A     -0.521557    27A     -0.508503
      28A     -0.506065    29A     -0.430063    30A     -0.419368
      31A     -0.351650    32A     -0.346844

  @DF-RHF Final Energy:  -398.61956697094524

   => Energetics <=

    Nuclear Repulsion Energy =            403.7737313573799156
    One-Electron Energy =               -1341.7037527199938722
    Two-Electron Energy =                 539.3104543916687135
    Total Energy =                       -398.6195669709452432
  Basis Set: (AUG-CC-PVTZ AUX)
    Blend: AUG-CC-PVTZ-RI
    Molecular point group: c1

    Geometry (in Angstrom), charge = 0, multiplicity = 1:

       Center              X                  Y                   Z               Mass
    ------------   -----------------  -----------------  -----------------  -----------------
         O            2.271429180594    -1.144162857873    -0.375107229959    15.994914619570
         N            2.367454180594     1.036974142127     0.300055770041    14.003074004430
         C            0.195857180594    -0.006425857873    -0.020528229959    12.000000000000
         C           -0.477196819406     1.211264142127    -0.187729229959    12.000000000000
         C           -0.533890819406    -1.188788857873     0.151261770041    12.000000000000
         C           -1.872406819406     1.243008142127    -0.165396229959    12.000000000000
         C           -1.926443819406    -1.149950857873     0.181357770041    12.000000000000
         C           -2.598754819406     0.066027142127     0.027564770041    12.000000000000
         C            1.690512880594    -0.097457257873     0.055582070041    12.000000000000
         H            0.082398180594     2.124190142127    -0.377884229959     1.007825032230
         H            0.008398180594    -2.124832857873     0.253134770041     1.007825032230
         H           -2.393351819406     2.186955142127    -0.306734229959     1.007825032230
         H           -2.490404819406    -2.068731857873     0.323004770041     1.007825032230
         H           -3.685572819406     0.094414142127     0.047147770041     1.007825032230
         H            1.922431180594     1.699350142127     0.920858770041     1.007825032230
         H            3.365989180594     0.914386142127     0.423187770041     1.007825032230

  Basis Set: AUG-CC-PVTZ
    Blend: AUG-CC-PVTZ
  Basis Set: (AUG-CC-PVTZ AUX)
    Blend: AUG-CC-PVTZ-JKFIT
	 Reference Energy          =    -398.6195669709452432 [Eh]
	 Singles Energy            =      -0.0000000000000000 [Eh]
	 Same-Spin Energy          =      -0.4258593873349912 [Eh]
	 Opposite-Spin Energy      =      -1.3047724913085210 [Eh]
	 Correlation Energy        =      -1.7306318786435122 [Eh]
	 Total Energy              =    -400.3501988495887645 [Eh]

	 ================> DF-SCS-MP2 Energies <==================
	-----------------------------------------------------------
	 SCS Same-Spin Scale       =       0.3333333333333333 [-]
	 SCS Opposite-Spin Scale   =       1.2000000000000000 [-]
	 SCS Same-Spin Energy      =      -0.1419531291116637 [Eh]
	 SCS Opposite-Spin Energy  =      -1.5657269895702253 [Eh]
	 SCS Correlation Energy    =      -1.7076801186818891 [Eh]
	 SCS Total Energy          =    -400.3272470896271216 [Eh]
	-----------------------------------------------------------

  Dipole Moment: [D]
     X:    -1.4519      Y:     2.9673      Z:     1.8236     Total:     3.7734

*** Psi4 exiting successfully. Buy a developer a beer!
