                               Psi4 1.4a2.dev612

  ==> Input File <==

--------------------------------------------------------------------------
#psi4
#
memory 32 gb

molecule  {
0 1
  O        2.2963030    -1.1646890    -0.3757460
  N        2.3923280     1.0164480     0.2994170
  C        0.2207310    -0.0269520    -0.0211670
  C       -0.4523230     1.1907380    -0.1883680
  C       -0.5090170    -1.2093150     0.1506230
  C       -1.8475330     1.2224820    -0.1660350
  C       -1.9015700    -1.1704770     0.1807190
  C       -2.5738810     0.0455010     0.0269260
  C        1.7182602    -0.0970756     0.2034512
  H        0.1072720     2.1036640    -0.3785230
  H        0.0332720    -2.1453590     0.2524960
  H       -2.3684780     2.1664290    -0.3073730
  H       -2.4655310    -2.0892580     0.3223660
  H       -3.6606990     0.0738880     0.0465090
  H        1.9473050     1.6788240     0.9202200
  H        3.3908630     0.8938600     0.4225490
units angstrom
no_reorient  #important for SAPT in psi4, default
symmetry c1  #important for SAPT in psi4, default
}

set PROPERTIES_ORIGIN ["COM"]
properties('MP2/aug-cc-pvtz', properties = ['dipole'])
--------------------------------------------------------------------------

    Molecular point group: c1
  Charge       = 0
  Multiplicity = 1
  Basis Set: AUG-CC-PVTZ
    Blend: AUG-CC-PVTZ
  Basis Set: (AUG-CC-PVTZ AUX)
    Blend: AUG-CC-PVTZ-JKFIT

    Orbital Energies [Eh]
    ---------------------

    Doubly Occupied:

       1A    -20.511373     2A    -15.610195     3A    -11.366673
       4A    -11.261744     5A    -11.257122     6A    -11.253120
       7A    -11.250100     8A    -11.248445     9A    -11.246605
      10A     -1.336545    11A     -1.226177    12A     -1.164548
      13A     -1.038789    14A     -1.027828    15A     -0.881426
      16A     -0.840470    17A     -0.799708    18A     -0.752950
      19A     -0.707940    20A     -0.669546    21A     -0.638185
      22A     -0.614583    23A     -0.600264    24A     -0.577991
      25A     -0.558212    26A     -0.519449    27A     -0.507330
      28A     -0.502910    29A     -0.421172    30A     -0.410482
      31A     -0.350746    32A     -0.342638

  @DF-RHF Final Energy:  -398.58003621455157

   => Energetics <=

    Nuclear Repulsion Energy =            403.0329395447060392
    One-Electron Energy =               -1340.2354229873312761
    Two-Electron Energy =                 538.6224472280736109
    Total Energy =                       -398.5800362145515692
  Basis Set: (AUG-CC-PVTZ AUX)
    Blend: AUG-CC-PVTZ-RI
    Molecular point group: c1

    Geometry (in Angstrom), charge = 0, multiplicity = 1:

       Center              X                  Y                   Z               Mass
    ------------   -----------------  -----------------  -----------------  -----------------
         O            2.271144329601    -1.146235454913    -0.389828866568    15.994914619570
         N            2.367169329601     1.034901545087     0.285334133432    14.003074004430
         C            0.195572329601    -0.008498454913    -0.035249866568    12.000000000000
         C           -0.477481670399     1.209191545087    -0.202450866568    12.000000000000
         C           -0.534175670399    -1.190861454913     0.136540133432    12.000000000000
         C           -1.872691670399     1.240935545087    -0.180117866568    12.000000000000
         C           -1.926728670399    -1.152023454913     0.166636133432    12.000000000000
         C           -2.599039670399     0.063954545087     0.012843133432    12.000000000000
         C            1.693101529601    -0.078622054913     0.189368333432    12.000000000000
         H            0.082113329601     2.122117545087    -0.392605866568     1.007825032230
         H            0.008113329601    -2.126905454913     0.238413133432     1.007825032230
         H           -2.393636670399     2.184882545087    -0.321455866568     1.007825032230
         H           -2.490689670399    -2.070804454913     0.308283133432     1.007825032230
         H           -3.685857670399     0.092341545087     0.032426133432     1.007825032230
         H            1.922146329601     1.697277545087     0.906137133432     1.007825032230
         H            3.365704329601     0.912313545087     0.408466133432     1.007825032230

  Basis Set: AUG-CC-PVTZ
    Blend: AUG-CC-PVTZ
  Basis Set: (AUG-CC-PVTZ AUX)
    Blend: AUG-CC-PVTZ-JKFIT
	 Reference Energy          =    -398.5800362145515692 [Eh]
	 Singles Energy            =      -0.0000000000000000 [Eh]
	 Same-Spin Energy          =      -0.4284555981689466 [Eh]
	 Opposite-Spin Energy      =      -1.3108165738250022 [Eh]
	 Correlation Energy        =      -1.7392721719939488 [Eh]
	 Total Energy              =    -400.3193083865455151 [Eh]

	 ================> DF-SCS-MP2 Energies <==================
	-----------------------------------------------------------
	 SCS Same-Spin Scale       =       0.3333333333333333 [-]
	 SCS Opposite-Spin Scale   =       1.2000000000000000 [-]
	 SCS Same-Spin Energy      =      -0.1428185327229822 [Eh]
	 SCS Opposite-Spin Energy  =      -1.5729798885900026 [Eh]
	 SCS Correlation Energy    =      -1.7157984213129849 [Eh]
	 SCS Total Energy          =    -400.2958346358645372 [Eh]
	-----------------------------------------------------------

  Dipole Moment: [D]
     X:    -1.2824      Y:     3.2839      Z:     1.9975     Total:     4.0519

*** Psi4 exiting successfully. Buy a developer a beer!
