                               Psi4 1.4a2.dev612

  ==> Input File <==

--------------------------------------------------------------------------
#psi4
#
memory 32 gb

molecule  {
0 1
  O        2.2963030    -1.1646890    -0.3757460
  N        2.3923280     1.0164480     0.2994170
  C        0.2207310    -0.0269520    -0.0211670
  C       -0.4523230     1.1907380    -0.1883680
  C       -0.5090170    -1.2093150     0.1506230
  C       -1.8475330     1.2224820    -0.1660350
  C       -1.9015700    -1.1704770     0.1807190
  C       -2.5738810     0.0455010     0.0269260
  C        1.7192180    -0.0901063     0.2529539
  H        0.1072720     2.1036640    -0.3785230
  H        0.0332720    -2.1453590     0.2524960
  H       -2.3684780     2.1664290    -0.3073730
  H       -2.4655310    -2.0892580     0.3223660
  H       -3.6606990     0.0738880     0.0465090
  H        1.9473050     1.6788240     0.9202200
  H        3.3908630     0.8938600     0.4225490
units angstrom
no_reorient  #important for SAPT in psi4, default
symmetry c1  #important for SAPT in psi4, default
}

set PROPERTIES_ORIGIN ["COM"]
properties('MP2/aug-cc-pvtz', properties = ['dipole'])
--------------------------------------------------------------------------

    Molecular point group: c1
  Charge       = 0
  Multiplicity = 1
  Basis Set: AUG-CC-PVTZ
    Blend: AUG-CC-PVTZ
  Basis Set: (AUG-CC-PVTZ AUX)
    Blend: AUG-CC-PVTZ-JKFIT

    Orbital Energies [Eh]
    ---------------------

    Doubly Occupied:

       1A    -20.509993     2A    -15.614069     3A    -11.368825
       4A    -11.263760     5A    -11.256903     6A    -11.252804
       7A    -11.250069     8A    -11.248044     9A    -11.246400
      10A     -1.334020    11A     -1.221871    12A     -1.164251
      13A     -1.038000    14A     -1.027616    15A     -0.881147
      16A     -0.840268    17A     -0.801091    18A     -0.754773
      19A     -0.709320    20A     -0.668504    21A     -0.638032
      22A     -0.613791    23A     -0.600106    24A     -0.578038
      25A     -0.551635    26A     -0.519433    27A     -0.506806
      28A     -0.500011    29A     -0.419107    30A     -0.406087
      31A     -0.350506    32A     -0.340768

  @DF-RHF Final Energy:  -398.56105256644980

   => Energetics <=

    Nuclear Repulsion Energy =            402.6859560641273674
    One-Electron Energy =               -1339.5419234829848847
    Two-Electron Energy =                 538.2949148524077145
    Total Energy =                       -398.5610525664498027
  Basis Set: (AUG-CC-PVTZ AUX)
    Blend: AUG-CC-PVTZ-RI
    Molecular point group: c1

    Geometry (in Angstrom), charge = 0, multiplicity = 1:

       Center              X                  Y                   Z               Mass
    ------------   -----------------  -----------------  -----------------  -----------------
         O            2.271049382574    -1.146926323897    -0.394736085380    15.994914619570
         N            2.367074382574     1.034210676103     0.280426914620    14.003074004430
         C            0.195477382574    -0.009189323897    -0.040157085380    12.000000000000
         C           -0.477576617426     1.208500676103    -0.207358085380    12.000000000000
         C           -0.534270617426    -1.191552323897     0.131632914620    12.000000000000
         C           -1.872786617426     1.240244676103    -0.185025085380    12.000000000000
         C           -1.926823617426    -1.152714323897     0.161728914620    12.000000000000
         C           -2.599134617426     0.063263676103     0.007935914620    12.000000000000
         C            1.693964382574    -0.072343623897     0.233963814620    12.000000000000
         H            0.082018382574     2.121426676103    -0.397513085380     1.007825032230
         H            0.008018382574    -2.127596323897     0.233505914620     1.007825032230
         H           -2.393731617426     2.184191676103    -0.326363085380     1.007825032230
         H           -2.490784617426    -2.071495323897     0.303375914620     1.007825032230
         H           -3.685952617426     0.091650676103     0.027518914620     1.007825032230
         H            1.922051382574     1.696586676103     0.901229914620     1.007825032230
         H            3.365609382574     0.911622676103     0.403558914620     1.007825032230

  Basis Set: AUG-CC-PVTZ
    Blend: AUG-CC-PVTZ
  Basis Set: (AUG-CC-PVTZ AUX)
    Blend: AUG-CC-PVTZ-JKFIT
	 Reference Energy          =    -398.5610525664498027 [Eh]
	 Singles Energy            =      -0.0000000000000000 [Eh]
	 Same-Spin Energy          =      -0.4295267156081499 [Eh]
	 Opposite-Spin Energy      =      -1.3135108611582269 [Eh]
	 Correlation Energy        =      -1.7430375767663768 [Eh]
	 Total Energy              =    -400.3040901432161718 [Eh]

	 ================> DF-SCS-MP2 Energies <==================
	-----------------------------------------------------------
	 SCS Same-Spin Scale       =       0.3333333333333333 [-]
	 SCS Opposite-Spin Scale   =       1.2000000000000000 [-]
	 SCS Same-Spin Energy      =      -0.1431755718693833 [Eh]
	 SCS Opposite-Spin Energy  =      -1.5762130333898723 [Eh]
	 SCS Correlation Energy    =      -1.7193886052592555 [Eh]
	 SCS Total Energy          =    -400.2804411717090716 [Eh]
	-----------------------------------------------------------

  Dipole Moment: [D]
     X:    -1.2183      Y:     3.3606      Z:     2.0306     Total:     4.1111

*** Psi4 exiting successfully. Buy a developer a beer!
