                               Psi4 1.4a2.dev612

  ==> Input File <==

--------------------------------------------------------------------------
#psi4
#
memory 32 gb

molecule  {
0 1
  O        2.2963030    -1.1646890    -0.3757460
  N        2.3923280     1.0164480     0.2994170
  C        0.2207310    -0.0269520    -0.0211670
  C       -0.4523230     1.1907380    -0.1883680
  C       -0.5090170    -1.2093150     0.1506230
  C       -1.8475330     1.2224820    -0.1660350
  C       -1.9015700    -1.1704770     0.1807190
  C       -2.5738810     0.0455010     0.0269260
  C        1.7144288    -0.1249527     0.0054406
  H        0.1072720     2.1036640    -0.3785230
  H        0.0332720    -2.1453590     0.2524960
  H       -2.3684780     2.1664290    -0.3073730
  H       -2.4655310    -2.0892580     0.3223660
  H       -3.6606990     0.0738880     0.0465090
  H        1.9473050     1.6788240     0.9202200
  H        3.3908630     0.8938600     0.4225490
units angstrom
no_reorient  #important for SAPT in psi4, default
symmetry c1  #important for SAPT in psi4, default
}

set PROPERTIES_ORIGIN ["COM"]
properties('MP2/aug-cc-pvtz', properties = ['dipole'])
--------------------------------------------------------------------------

    Molecular point group: c1
  Charge       = 0
  Multiplicity = 1
  Basis Set: AUG-CC-PVTZ
    Blend: AUG-CC-PVTZ
  Basis Set: (AUG-CC-PVTZ AUX)
    Blend: AUG-CC-PVTZ-JKFIT

    Orbital Energies [Eh]
    ---------------------

    Doubly Occupied:

       1A    -20.521519     2A    -15.592846     3A    -11.361080
       4A    -11.257875     5A    -11.255977     6A    -11.254076
       7A    -11.250127     8A    -11.249834     9A    -11.247339
      10A     -1.366792    11A     -1.219926    12A     -1.164752
      13A     -1.040593    14A     -1.028448    15A     -0.880679
      16A     -0.840967    17A     -0.791168    18A     -0.744511
      19A     -0.698588    20A     -0.671847    21A     -0.639185
      22A     -0.618888    23A     -0.601139    24A     -0.592566
      25A     -0.571140    26A     -0.522747    27A     -0.508616
      28A     -0.506388    29A     -0.433597    30A     -0.420041
      31A     -0.351985    32A     -0.347709

  @DF-RHF Final Energy:  -398.62621875603264

   => Energetics <=

    Nuclear Repulsion Energy =            403.9157492554366513
    One-Electron Energy =               -1341.9780457715298780
    Two-Electron Energy =                 539.4360777600605843
    Total Energy =                       -398.6262187560326993
  Basis Set: (AUG-CC-PVTZ AUX)
    Blend: AUG-CC-PVTZ-RI
    Molecular point group: c1

    Geometry (in Angstrom), charge = 0, multiplicity = 1:

       Center              X                  Y                   Z               Mass
    ------------   -----------------  -----------------  -----------------  -----------------
         O            2.271524137533    -1.143471988889    -0.370200011147    15.994914619570
         N            2.367549137533     1.037665011111     0.304962988853    14.003074004430
         C            0.195952137533    -0.005734988889    -0.015621011147    12.000000000000
         C           -0.477101862467     1.211955011111    -0.182822011147    12.000000000000
         C           -0.533795862467    -1.188097988889     0.156168988853    12.000000000000
         C           -1.872311862467     1.243699011111    -0.160489011147    12.000000000000
         C           -1.926348862467    -1.149259988889     0.186264988853    12.000000000000
         C           -2.598659862467     0.066718011111     0.032471988853    12.000000000000
         C            1.689649937533    -0.103735688889     0.010986588853    12.000000000000
         H            0.082493137533     2.124881011111    -0.372977011147     1.007825032230
         H            0.008493137533    -2.124141988889     0.258041988853     1.007825032230
         H           -2.393256862467     2.187646011111    -0.301827011147     1.007825032230
         H           -2.490309862467    -2.068040988889     0.327911988853     1.007825032230
         H           -3.685477862467     0.095105011111     0.052054988853     1.007825032230
         H            1.922526137533     1.700041011111     0.925765988853     1.007825032230
         H            3.366084137533     0.915077011111     0.428094988853     1.007825032230

  Basis Set: AUG-CC-PVTZ
    Blend: AUG-CC-PVTZ
  Basis Set: (AUG-CC-PVTZ AUX)
    Blend: AUG-CC-PVTZ-JKFIT
	 Reference Energy          =    -398.6262187560326424 [Eh]
	 Singles Energy            =      -0.0000000000000000 [Eh]
	 Same-Spin Energy          =      -0.4252387594793431 [Eh]
	 Opposite-Spin Energy      =      -1.3034576371505435 [Eh]
	 Correlation Energy        =      -1.7286963966298865 [Eh]
	 Total Energy              =    -400.3549151526625565 [Eh]

	 ================> DF-SCS-MP2 Energies <==================
	-----------------------------------------------------------
	 SCS Same-Spin Scale       =       0.3333333333333333 [-]
	 SCS Opposite-Spin Scale   =       1.2000000000000000 [-]
	 SCS Same-Spin Energy      =      -0.1417462531597810 [Eh]
	 SCS Opposite-Spin Energy  =      -1.5641491645806522 [Eh]
	 SCS Correlation Energy    =      -1.7058954177404333 [Eh]
	 SCS Total Energy          =    -400.3321141737730500 [Eh]
	-----------------------------------------------------------

  Dipole Moment: [D]
     X:    -1.5025      Y:     2.8356      Z:     1.7423     Total:     3.6516

*** Psi4 exiting successfully. Buy a developer a beer!
