                               Psi4 1.4a2.dev612

  ==> Input File <==

--------------------------------------------------------------------------
#psi4
#
memory 32 gb

molecule  {
0 1
  O        2.2963030    -1.1646890    -0.3757460
  N        2.3923280     1.0164480     0.2994170
  C        0.2207310    -0.0269520    -0.0211670
  C       -0.4523230     1.1907380    -0.1883680
  C       -0.5090170    -1.2093150     0.1506230
  C       -1.8475330     1.2224820    -0.1660350
  C       -1.9015700    -1.1704770     0.1807190
  C       -2.5738810     0.0455010     0.0269260
  C        1.7163445    -0.1110142     0.1044459
  H        0.1072720     2.1036640    -0.3785230
  H        0.0332720    -2.1453590     0.2524960
  H       -2.3684780     2.1664290    -0.3073730
  H       -2.4655310    -2.0892580     0.3223660
  H       -3.6606990     0.0738880     0.0465090
  H        1.9473050     1.6788240     0.9202200
  H        3.3908630     0.8938600     0.4225490
units angstrom
no_reorient  #important for SAPT in psi4, default
symmetry c1  #important for SAPT in psi4, default
}

set PROPERTIES_ORIGIN ["COM"]
properties('MP2/aug-cc-pvtz', properties = ['dipole'])
--------------------------------------------------------------------------

    Molecular point group: c1
  Charge       = 0
  Multiplicity = 1
  Basis Set: AUG-CC-PVTZ
    Blend: AUG-CC-PVTZ
  Basis Set: (AUG-CC-PVTZ AUX)
    Blend: AUG-CC-PVTZ-JKFIT

    Orbital Energies [Eh]
    ---------------------

    Doubly Occupied:

       1A    -20.515557     2A    -15.601846     3A    -11.363102
       4A    -11.258635     5A    -11.257220     6A    -11.253658
       7A    -11.250122     8A    -11.249187     9A    -11.246979
      10A     -1.347858    11A     -1.227643    12A     -1.164857
      13A     -1.039976    14A     -1.028177    15A     -0.881414
      16A     -0.840773    17A     -0.795924    18A     -0.748908
      19A     -0.703939    20A     -0.671032    21A     -0.638543
      22A     -0.616352    23A     -0.600594    24A     -0.582265
      25A     -0.567870    26A     -0.520528    27A     -0.508299
      28A     -0.505547    29A     -0.426609    30A     -0.417522
      31A     -0.351317    32A     -0.345713

  @DF-RHF Final Energy:  -398.60954032769621

   => Energetics <=

    Nuclear Repulsion Energy =            403.5782866878179789
    One-Electron Energy =               -1341.3197218891612010
    Two-Electron Energy =                 539.1318948736469565
    Total Energy =                       -398.6095403276962088
  Basis Set: (AUG-CC-PVTZ AUX)
    Blend: AUG-CC-PVTZ-RI
    Molecular point group: c1

    Geometry (in Angstrom), charge = 0, multiplicity = 1:

       Center              X                  Y                   Z               Mass
    ------------   -----------------  -----------------  -----------------  -----------------
         O            2.271334233567    -1.144853716944    -0.380014438858    15.994914619570
         N            2.367359233567     1.036283283056     0.295148561142    14.003074004430
         C            0.195762233567    -0.007116716944    -0.025435438858    12.000000000000
         C           -0.477291766433     1.210573283056    -0.192636438858    12.000000000000
         C           -0.533985766433    -1.189479716944     0.146354561142    12.000000000000
         C           -1.872501766433     1.242317283056    -0.170303438858    12.000000000000
         C           -1.926538766433    -1.150641716944     0.176450561142    12.000000000000
         C           -2.598849766433     0.065336283056     0.022657561142    12.000000000000
         C            1.691375733567    -0.091178916944     0.100177461142    12.000000000000
         H            0.082303233567     2.123499283056    -0.382791438858     1.007825032230
         H            0.008303233567    -2.125523716944     0.248227561142     1.007825032230
         H           -2.393446766433     2.186264283056    -0.311641438858     1.007825032230
         H           -2.490499766433    -2.069422716944     0.318097561142     1.007825032230
         H           -3.685667766433     0.093723283056     0.042240561142     1.007825032230
         H            1.922336233567     1.698659283056     0.915951561142     1.007825032230
         H            3.365894233567     0.913695283056     0.418280561142     1.007825032230

  Basis Set: AUG-CC-PVTZ
    Blend: AUG-CC-PVTZ
  Basis Set: (AUG-CC-PVTZ AUX)
    Blend: AUG-CC-PVTZ-JKFIT
	 Reference Energy          =    -398.6095403276962088 [Eh]
	 Singles Energy            =      -0.0000000000000000 [Eh]
	 Same-Spin Energy          =      -0.4266082811155406 [Eh]
	 Opposite-Spin Energy      =      -1.3064377900942636 [Eh]
	 Correlation Energy        =      -1.7330460712098041 [Eh]
	 Total Energy              =    -400.3425863989060076 [Eh]

	 ================> DF-SCS-MP2 Energies <==================
	-----------------------------------------------------------
	 SCS Same-Spin Scale       =       0.3333333333333333 [-]
	 SCS Opposite-Spin Scale   =       1.2000000000000000 [-]
	 SCS Same-Spin Energy      =      -0.1422027603718468 [Eh]
	 SCS Opposite-Spin Energy  =      -1.5677253481131164 [Eh]
	 SCS Correlation Energy    =      -1.7099281084849631 [Eh]
	 SCS Total Energy          =    -400.3194684361811824 [Eh]
	-----------------------------------------------------------

  Dipole Moment: [D]
     X:    -1.3988      Y:     3.0866      Z:     1.8937     Total:     3.8819

*** Psi4 exiting successfully. Buy a developer a beer!
