                               Psi4 1.4a2.dev612

  ==> Input File <==

--------------------------------------------------------------------------
#psi4
#
memory 32 gb

molecule  {
0 1
  O        2.2963030    -1.1646890    -0.3757460
  N        2.3923280     1.0164480     0.2994170
  C        0.2207849    -0.0417393     0.0265963
  C       -0.4523230     1.1907380    -0.1883680
  C       -0.5090170    -1.2093150     0.1506230
  C       -1.8475330     1.2224820    -0.1660350
  C       -1.9015700    -1.1704770     0.1807190
  C       -2.5738810     0.0455010     0.0269260
  C        1.7134710    -0.1319220    -0.0440620
  H        0.1072720     2.1036640    -0.3785230
  H        0.0332720    -2.1453590     0.2524960
  H       -2.3684780     2.1664290    -0.3073730
  H       -2.4655310    -2.0892580     0.3223660
  H       -3.6606990     0.0738880     0.0465090
  H        1.9473050     1.6788240     0.9202200
  H        3.3908630     0.8938600     0.4225490
units angstrom
no_reorient  #important for SAPT in psi4, default
symmetry c1  #important for SAPT in psi4, default
}

set PROPERTIES_ORIGIN ["COM"]
properties('MP2/aug-cc-pvtz', properties = ['dipole'])
--------------------------------------------------------------------------

    Molecular point group: c1
  Charge       = 0
  Multiplicity = 1
  Basis Set: AUG-CC-PVTZ
    Blend: AUG-CC-PVTZ
  Basis Set: (AUG-CC-PVTZ AUX)
    Blend: AUG-CC-PVTZ-JKFIT

    Orbital Energies [Eh]
    ---------------------

    Doubly Occupied:

       1A    -20.524927     2A    -15.587947     3A    -11.360765
       4A    -11.259842     5A    -11.255542     6A    -11.254391
       7A    -11.250191     8A    -11.248751     9A    -11.247429
      10A     -1.377818    11A     -1.213402    12A     -1.164552
      13A     -1.041073    14A     -1.028262    15A     -0.879949
      16A     -0.841354    17A     -0.788077    18A     -0.742085
      19A     -0.695867    20A     -0.671329    21A     -0.638917
      22A     -0.621583    23A     -0.603155    24A     -0.595214
      25A     -0.573177    26A     -0.524836    27A     -0.508638
      28A     -0.506130    29A     -0.436626    30A     -0.419302
      31A     -0.351216    32A     -0.349375

  @DF-RHF Final Energy:  -398.62823511682160

   => Energetics <=

    Nuclear Repulsion Energy =            403.9830123935497568
    One-Electron Energy =               -1342.0990486884943493
    Two-Electron Energy =                 539.4878011781230498
    Total Energy =                       -398.6282351168215428
  Basis Set: (AUG-CC-PVTZ AUX)
    Blend: AUG-CC-PVTZ-RI
    Molecular point group: c1

    Geometry (in Angstrom), charge = 0, multiplicity = 1:

       Center              X                  Y                   Z               Mass
    ------------   -----------------  -----------------  -----------------  -----------------
         O            2.271613741436    -1.141315250028    -0.370027593770    15.994914619570
         N            2.367638741436     1.039821749972     0.305135406230    14.003074004430
         C            0.196095641436    -0.018365550028     0.032314706230    12.000000000000
         C           -0.477012258564     1.214111749972    -0.182649593770    12.000000000000
         C           -0.533706258564    -1.185941250028     0.156341406230    12.000000000000
         C           -1.872222258564     1.245855749972    -0.160316593770    12.000000000000
         C           -1.926259258564    -1.147103250028     0.186437406230    12.000000000000
         C           -2.598570258564     0.068874749972     0.032644406230    12.000000000000
         C            1.688781741436    -0.108548250028    -0.038343593770    12.000000000000
         H            0.082582741436     2.127037749972    -0.372804593770     1.007825032230
         H            0.008582741436    -2.121985250028     0.258214406230     1.007825032230
         H           -2.393167258564     2.189802749972    -0.301654593770     1.007825032230
         H           -2.490220258564    -2.065884250028     0.328084406230     1.007825032230
         H           -3.685388258564     0.097261749972     0.052227406230     1.007825032230
         H            1.922615741436     1.702197749972     0.925938406230     1.007825032230
         H            3.366173741436     0.917233749972     0.428267406230     1.007825032230

  Basis Set: AUG-CC-PVTZ
    Blend: AUG-CC-PVTZ
  Basis Set: (AUG-CC-PVTZ AUX)
    Blend: AUG-CC-PVTZ-JKFIT
	 Reference Energy          =    -398.6282351168215996 [Eh]
	 Singles Energy            =      -0.0000000000000000 [Eh]
	 Same-Spin Energy          =      -0.4247621292921752 [Eh]
	 Opposite-Spin Energy      =      -1.3025120827876342 [Eh]
	 Correlation Energy        =      -1.7272742120798092 [Eh]
	 Total Energy              =    -400.3555093289014053 [Eh]

	 ================> DF-SCS-MP2 Energies <==================
	-----------------------------------------------------------
	 SCS Same-Spin Scale       =       0.3333333333333333 [-]
	 SCS Opposite-Spin Scale   =       1.2000000000000000 [-]
	 SCS Same-Spin Energy      =      -0.1415873764307251 [Eh]
	 SCS Opposite-Spin Energy  =      -1.5630144993451609 [Eh]
	 SCS Correlation Energy    =      -1.7046018757758858 [Eh]
	 SCS Total Energy          =    -400.3328369925974926 [Eh]
	-----------------------------------------------------------

  Dipole Moment: [D]
     X:    -1.5575      Y:     2.6886      Z:     1.6473     Total:     3.5168

*** Psi4 exiting successfully. Buy a developer a beer!
