                               Psi4 1.3.2 release

  ==> Input File <==

--------------------------------------------------------------------------
#psi4
#
memory 32 gb

molecule  {
0 1
  O        0.3919700     1.5293850    -0.0006790
  O       -2.1568130     0.7397400     0.0007420
  O       -1.4819380    -1.4327800    -0.0008360
  C        1.2904720    -0.7184350     0.0008240
  C        2.6798860    -0.0990590    -0.0001190
  C        0.1998040     0.3200060    -0.0000370
  C       -1.2307060    -0.2376900    -0.0001000
  H        1.1330450    -1.3706030    -0.8672720
  H        1.1334350    -1.3685260     0.8705840
  H        2.8258740     0.5280000    -0.8820420
  H        2.8261650     0.5300460     0.8802900
  H        3.4430440    -0.8810290     0.0006450
  H       -3.0240490     0.2824300     0.0005820
units angstrom
no_reorient  #important for SAPT in psi4, default
symmetry c1  #important for SAPT in psi4, default
}

set PROPERTIES_ORIGIN ["COM"]
properties('MP2/aug-cc-pvtz', properties = ['dipole'])
--------------------------------------------------------------------------

    Molecular point group: c1
  Charge       = 0
  Multiplicity = 1
  Basis Set: AUG-CC-PVTZ
    Blend: AUG-CC-PVTZ
  Basis Set: (AUG-CC-PVTZ AUX)
    Blend: AUG-CC-PVTZ-JKFIT

    Orbital Energies [Eh]
    ---------------------

    Doubly Occupied:

       1A    -20.636497     2A    -20.587438     3A    -20.583855
       4A    -11.416067     5A    -11.365453     6A    -11.254243
       7A    -11.228287     8A     -1.485890     9A     -1.409934
      10A     -1.383689    11A     -1.075248    12A     -0.965423
      13A     -0.880154    14A     -0.769569    15A     -0.729488
      16A     -0.712589    17A     -0.664394    18A     -0.654286
      19A     -0.630321    20A     -0.619270    21A     -0.547231
      22A     -0.538719    23A     -0.528779    24A     -0.520553
      25A     -0.504264    26A     -0.498519    27A     -0.437261

  @DF-RHF Final Energy:  -379.70605949329376

   => Energetics <=

    Nuclear Repulsion Energy =            296.6365211617240334
    One-Electron Energy =               -1107.4303173854116267
    Two-Electron Energy =                 431.0877367303938854
    Total Energy =                       -379.7060594932937647
  Basis Set: (AUG-CC-PVTZ AUX)
    Blend: AUG-CC-PVTZ-RI
    Molecular point group: c1

    Geometry (in Angstrom), charge = 0, multiplicity = 1:

       Center              X                  Y                   Z               Mass
    ------------   -----------------  -----------------  -----------------  -----------------
         O            0.472883657706     1.507258441156    -0.000652152846    15.994914619570
         O           -2.075899342294     0.717613441156     0.000768847154    15.994914619570
         O           -1.401024342294    -1.454906558844    -0.000809152846    15.994914619570
         C            1.371385657706    -0.740561558844     0.000850847154    12.000000000000
         C            2.760799657706    -0.121185558844    -0.000092152846    12.000000000000
         C            0.280717657706     0.297879441156    -0.000010152846    12.000000000000
         C           -1.149792342294    -0.259816558844    -0.000073152846    12.000000000000
         H            1.213958657706    -1.392729558844    -0.867245152846     1.007825032230
         H            1.214348657706    -1.390652558844     0.870610847154     1.007825032230
         H            2.906787657706     0.505873441156    -0.882015152846     1.007825032230
         H            2.907078657706     0.507919441156     0.880316847154     1.007825032230
         H            3.523957657706    -0.903155558844     0.000671847154     1.007825032230
         H           -2.943135342294     0.260303441156     0.000608847154     1.007825032230

  Basis Set: AUG-CC-PVTZ
    Blend: AUG-CC-PVTZ
  Basis Set: (AUG-CC-PVTZ AUX)
    Blend: AUG-CC-PVTZ-JKFIT
	 Reference Energy          =    -379.7060594932937647 [Eh]
	 Singles Energy            =      -0.0000000000000000 [Eh]
	 Same-Spin Energy          =      -0.3657729744657539 [Eh]
	 Opposite-Spin Energy      =      -1.1352083759238507 [Eh]
	 Correlation Energy        =      -1.5009813503896046 [Eh]
	 Total Energy              =    -381.2070408436833873 [Eh]

	 ================> DF-SCS-MP2 Energies <==================
	-----------------------------------------------------------
	 SCS Same-Spin Scale       =       0.3333333333333333 [-]
	 SCS Opposite-Spin Scale   =       1.2000000000000000 [-]
	 SCS Same-Spin Energy      =      -0.1219243248219180 [Eh]
	 SCS Opposite-Spin Energy  =      -1.3622500511086209 [Eh]
	 SCS Correlation Energy    =      -1.4841743759305388 [Eh]
	 SCS Total Energy          =    -381.1902338692243006 [Eh]
	-----------------------------------------------------------

  Dipole Moment: [D]
     X:    -0.0625      Y:    -1.1824      Z:     0.0025     Total:     1.1840

*** Psi4 exiting successfully. Buy a developer a beer!
