                               Psi4 1.3.2 release

  ==> Input File <==

--------------------------------------------------------------------------
#psi4
#
memory 32 gb

molecule  {
0 1
  O        0.3919700     1.5293850    -0.0006790
  O       -2.1568130     0.7397400     0.0007420
  O       -1.4819380    -1.4327800    -0.0008360
  C        1.2904720    -0.7184350     0.0008240
  C        2.6798860    -0.0990590    -0.0001190
  C        0.1998040     0.3200060    -0.0000370
  C       -1.2306672    -0.2377748    -0.1501000
  H        1.1330450    -1.3706030    -0.8672720
  H        1.1334350    -1.3685260     0.8705840
  H        2.8258740     0.5280000    -0.8820420
  H        2.8261650     0.5300460     0.8802900
  H        3.4430440    -0.8810290     0.0006450
  H       -3.0240490     0.2824300     0.0005820
units angstrom
no_reorient  #important for SAPT in psi4, default
symmetry c1  #important for SAPT in psi4, default
}

set PROPERTIES_ORIGIN ["COM"]
properties('MP2/aug-cc-pvtz', properties = ['dipole'])
--------------------------------------------------------------------------

    Molecular point group: c1
  Charge       = 0
  Multiplicity = 1
  Basis Set: AUG-CC-PVTZ
    Blend: AUG-CC-PVTZ
  Basis Set: (AUG-CC-PVTZ AUX)
    Blend: AUG-CC-PVTZ-JKFIT

    Orbital Energies [Eh]
    ---------------------

    Doubly Occupied:

       1A    -20.635212     2A    -20.587722     3A    -20.585580
       4A    -11.418160     5A    -11.367519     6A    -11.254899
       7A    -11.228671     8A     -1.481552     9A     -1.409952
      10A     -1.378531    11A     -1.075444    12A     -0.963580
      13A     -0.879340    14A     -0.766887    15A     -0.727776
      16A     -0.711352    17A     -0.662405    18A     -0.654090
      19A     -0.629118    20A     -0.617520    21A     -0.548378
      22A     -0.538117    23A     -0.528901    24A     -0.519645
      25A     -0.502969    26A     -0.497340    27A     -0.436884

  @DF-RHF Final Energy:  -379.69602897353798

   => Energetics <=

    Nuclear Repulsion Energy =            296.2609474711473467
    One-Electron Energy =               -1106.6988642248420547
    Two-Electron Energy =                 430.7418877801567305
    Total Energy =                       -379.6960289735379774
  Basis Set: (AUG-CC-PVTZ AUX)
    Blend: AUG-CC-PVTZ-RI
    Molecular point group: c1

    Geometry (in Angstrom), charge = 0, multiplicity = 1:

       Center              X                  Y                   Z               Mass
    ------------   -----------------  -----------------  -----------------  -----------------
         O            0.472879094418     1.507268414528     0.016989424281    15.994914619570
         O           -2.075903905582     0.717623414528     0.018410424281    15.994914619570
         O           -1.401028905582    -1.454896585472     0.016832424281    15.994914619570
         C            1.371381094418    -0.740551585472     0.018492424281    12.000000000000
         C            2.760795094418    -0.121175585472     0.017549424281    12.000000000000
         C            0.280713094418     0.297889414528     0.017631424281    12.000000000000
         C           -1.149758105582    -0.259891385472    -0.132431575719    12.000000000000
         H            1.213954094418    -1.392719585472    -0.849603575719     1.007825032230
         H            1.214344094418    -1.390642585472     0.888252424281     1.007825032230
         H            2.906783094418     0.505883414528    -0.864373575719     1.007825032230
         H            2.907074094418     0.507929414528     0.897958424281     1.007825032230
         H            3.523953094418    -0.903145585472     0.018313424281     1.007825032230
         H           -2.943139905582     0.260313414528     0.018250424281     1.007825032230

  Basis Set: AUG-CC-PVTZ
    Blend: AUG-CC-PVTZ
  Basis Set: (AUG-CC-PVTZ AUX)
    Blend: AUG-CC-PVTZ-JKFIT
	 Reference Energy          =    -379.6960289735379774 [Eh]
	 Singles Energy            =      -0.0000000000000000 [Eh]
	 Same-Spin Energy          =      -0.3664844657410063 [Eh]
	 Opposite-Spin Energy      =      -1.1369885589499034 [Eh]
	 Correlation Energy        =      -1.5034730246909098 [Eh]
	 Total Energy              =    -381.1995019982288682 [Eh]

	 ================> DF-SCS-MP2 Energies <==================
	-----------------------------------------------------------
	 SCS Same-Spin Scale       =       0.3333333333333333 [-]
	 SCS Opposite-Spin Scale   =       1.2000000000000000 [-]
	 SCS Same-Spin Energy      =      -0.1221614885803354 [Eh]
	 SCS Opposite-Spin Energy  =      -1.3643862707398839 [Eh]
	 SCS Correlation Energy    =      -1.4865477593202194 [Eh]
	 SCS Total Energy          =    -381.1825767328581946 [Eh]
	-----------------------------------------------------------

  Dipole Moment: [D]
     X:    -0.0042      Y:    -1.1993      Z:    -0.1967     Total:     1.2153

*** Psi4 exiting successfully. Buy a developer a beer!
