                               Psi4 1.3.2 release

  ==> Input File <==

--------------------------------------------------------------------------
#psi4
#
memory 32 gb

molecule  {
0 1
  O        0.3919700     1.5293850    -0.0006790
  O       -2.1568130     0.7397400     0.0007420
  O       -1.4819380    -1.4327800    -0.0008360
  C        1.2904720    -0.7184350     0.0008240
  C        2.6798860    -0.0990590    -0.0001190
  C        0.1998466     0.3198740     0.1999630
  C       -1.2307060    -0.2376900    -0.0001000
  H        1.1330450    -1.3706030    -0.8672720
  H        1.1334350    -1.3685260     0.8705840
  H        2.8258740     0.5280000    -0.8820420
  H        2.8261650     0.5300460     0.8802900
  H        3.4430440    -0.8810290     0.0006450
  H       -3.0240490     0.2824300     0.0005820
units angstrom
no_reorient  #important for SAPT in psi4, default
symmetry c1  #important for SAPT in psi4, default
}

set PROPERTIES_ORIGIN ["COM"]
properties('MP2/aug-cc-pvtz', properties = ['dipole'])
--------------------------------------------------------------------------

    Molecular point group: c1
  Charge       = 0
  Multiplicity = 1
  Basis Set: AUG-CC-PVTZ
    Blend: AUG-CC-PVTZ
  Basis Set: (AUG-CC-PVTZ AUX)
    Blend: AUG-CC-PVTZ-JKFIT

    Orbital Energies [Eh]
    ---------------------

    Doubly Occupied:

       1A    -20.636399     2A    -20.591260     3A    -20.583925
       4A    -11.418122     5A    -11.369334     6A    -11.255381
       7A    -11.227857     8A     -1.485463     9A     -1.402087
      10A     -1.383608    11A     -1.072618    12A     -0.962081
      13A     -0.878138    14A     -0.769645    15A     -0.728994
      16A     -0.710745    17A     -0.663246    18A     -0.652345
      19A     -0.627992    20A     -0.617261    21A     -0.546046
      22A     -0.535890    23A     -0.528437    24A     -0.520494
      25A     -0.502499    26A     -0.495261    27A     -0.434992

  @DF-RHF Final Energy:  -379.68683633552126

   => Energetics <=

    Nuclear Repulsion Energy =            296.0398890074436054
    One-Electron Energy =               -1106.2532088263599235
    Two-Electron Energy =                 430.5264834833949976
    Total Energy =                       -379.6868363355212637
  Basis Set: (AUG-CC-PVTZ AUX)
    Blend: AUG-CC-PVTZ-RI
    Molecular point group: c1

    Geometry (in Angstrom), charge = 0, multiplicity = 1:

       Center              X                  Y                   Z               Mass
    ------------   -----------------  -----------------  -----------------  -----------------
         O            0.472878647498     1.507273965744    -0.024174255681    15.994914619570
         O           -2.075904352502     0.717628965744    -0.022753255681    15.994914619570
         O           -1.401029352502    -1.454891034256    -0.024331255681    15.994914619570
         C            1.371380647498    -0.740546034256    -0.022671255681    12.000000000000
         C            2.760794647498    -0.121170034256    -0.023614255681    12.000000000000
         C            0.280755247498     0.297762965744     0.176467744319    12.000000000000
         C           -1.149797352502    -0.259801034256    -0.023595255681    12.000000000000
         H            1.213953647498    -1.392714034256    -0.890767255681     1.007825032230
         H            1.214343647498    -1.390637034256     0.847088744319     1.007825032230
         H            2.906782647498     0.505888965744    -0.905537255681     1.007825032230
         H            2.907073647498     0.507934965744     0.856794744319     1.007825032230
         H            3.523952647498    -0.903140034256    -0.022850255681     1.007825032230
         H           -2.943140352502     0.260318965744    -0.022913255681     1.007825032230

  Basis Set: AUG-CC-PVTZ
    Blend: AUG-CC-PVTZ
  Basis Set: (AUG-CC-PVTZ AUX)
    Blend: AUG-CC-PVTZ-JKFIT
	 Reference Energy          =    -379.6868363355212637 [Eh]
	 Singles Energy            =      -0.0000000000000000 [Eh]
	 Same-Spin Energy          =      -0.3668083115938021 [Eh]
	 Opposite-Spin Energy      =      -1.1382772651782718 [Eh]
	 Correlation Energy        =      -1.5050855767720739 [Eh]
	 Total Energy              =    -381.1919219122933100 [Eh]

	 ================> DF-SCS-MP2 Energies <==================
	-----------------------------------------------------------
	 SCS Same-Spin Scale       =       0.3333333333333333 [-]
	 SCS Opposite-Spin Scale   =       1.2000000000000000 [-]
	 SCS Same-Spin Energy      =      -0.1222694371979340 [Eh]
	 SCS Opposite-Spin Energy  =      -1.3659327182139260 [Eh]
	 SCS Correlation Energy    =      -1.4882021554118601 [Eh]
	 SCS Total Energy          =    -381.1750384909331046 [Eh]
	-----------------------------------------------------------

  Dipole Moment: [D]
     X:    -0.0934      Y:    -1.1471      Z:     0.1709     Total:     1.1635

*** Psi4 exiting successfully. Buy a developer a beer!
