                               Psi4 1.3.2 release

  ==> Input File <==

--------------------------------------------------------------------------
#psi4
#
memory 32 gb

molecule  {
0 1
  O        0.3919700     1.5293850    -0.0006790
  O       -2.1568130     0.7397400     0.0007420
  O       -1.4819380    -1.4327800    -0.0008360
  C        1.2904720    -0.7184350     0.0008240
  C        2.6798860    -0.0990590    -0.0001190
  C        0.1998146     0.3199730     0.0499630
  C       -1.2307060    -0.2376900    -0.0001000
  H        1.1330450    -1.3706030    -0.8672720
  H        1.1334350    -1.3685260     0.8705840
  H        2.8258740     0.5280000    -0.8820420
  H        2.8261650     0.5300460     0.8802900
  H        3.4430440    -0.8810290     0.0006450
  H       -3.0240490     0.2824300     0.0005820
units angstrom
no_reorient  #important for SAPT in psi4, default
symmetry c1  #important for SAPT in psi4, default
}

set PROPERTIES_ORIGIN ["COM"]
properties('MP2/aug-cc-pvtz', properties = ['dipole'])
--------------------------------------------------------------------------

    Molecular point group: c1
  Charge       = 0
  Multiplicity = 1
  Basis Set: AUG-CC-PVTZ
    Blend: AUG-CC-PVTZ
  Basis Set: (AUG-CC-PVTZ AUX)
    Blend: AUG-CC-PVTZ-JKFIT

    Orbital Energies [Eh]
    ---------------------

    Doubly Occupied:

       1A    -20.636490     2A    -20.587673     3A    -20.583859
       4A    -11.416201     5A    -11.365713     6A    -11.254319
       7A    -11.228262     8A     -1.485860     9A     -1.409404
      10A     -1.383685    11A     -1.075090    12A     -0.965212
      13A     -0.880031    14A     -0.769571    15A     -0.729453
      16A     -0.712472    17A     -0.664324    18A     -0.654141
      19A     -0.630183    20A     -0.619145    21A     -0.547155
      22A     -0.538521    23A     -0.528756    24A     -0.520572
      25A     -0.504091    26A     -0.498349    27A     -0.437125

  @DF-RHF Final Energy:  -379.70485455337791

   => Energetics <=

    Nuclear Repulsion Energy =            296.5984784019883023
    One-Electron Energy =               -1107.3553492852618092
    Two-Electron Energy =                 431.0520163298955367
    Total Energy =                       -379.7048545533779134
  Basis Set: (AUG-CC-PVTZ AUX)
    Blend: AUG-CC-PVTZ-RI
    Molecular point group: c1

    Geometry (in Angstrom), charge = 0, multiplicity = 1:

       Center              X                  Y                   Z               Mass
    ------------   -----------------  -----------------  -----------------  -----------------
         O            0.472882411034     1.507262322303    -0.006532678555    15.994914619570
         O           -2.075900588966     0.717617322303    -0.005111678555    15.994914619570
         O           -1.401025588966    -1.454902677697    -0.006689678555    15.994914619570
         C            1.371384411034    -0.740557677697    -0.005029678555    12.000000000000
         C            2.760798411034    -0.121181677697    -0.005972678555    12.000000000000
         C            0.280727011034     0.297850322303     0.044109321445    12.000000000000
         C           -1.149793588966    -0.259812677697    -0.005953678555    12.000000000000
         H            1.213957411034    -1.392725677697    -0.873125678555     1.007825032230
         H            1.214347411034    -1.390648677697     0.864730321445     1.007825032230
         H            2.906786411034     0.505877322303    -0.887895678555     1.007825032230
         H            2.907077411034     0.507923322303     0.874436321445     1.007825032230
         H            3.523956411034    -0.903151677697    -0.005208678555     1.007825032230
         H           -2.943136588966     0.260307322303    -0.005271678555     1.007825032230

  Basis Set: AUG-CC-PVTZ
    Blend: AUG-CC-PVTZ
  Basis Set: (AUG-CC-PVTZ AUX)
    Blend: AUG-CC-PVTZ-JKFIT
	 Reference Energy          =    -379.7048545533779134 [Eh]
	 Singles Energy            =      -0.0000000000000000 [Eh]
	 Same-Spin Energy          =      -0.3658388425272404 [Eh]
	 Opposite-Spin Energy      =      -1.1354023323848055 [Eh]
	 Correlation Energy        =      -1.5012411749120460 [Eh]
	 Total Energy              =    -381.2060957282899381 [Eh]

	 ================> DF-SCS-MP2 Energies <==================
	-----------------------------------------------------------
	 SCS Same-Spin Scale       =       0.3333333333333333 [-]
	 SCS Opposite-Spin Scale   =       1.2000000000000000 [-]
	 SCS Same-Spin Energy      =      -0.1219462808424135 [Eh]
	 SCS Opposite-Spin Energy  =      -1.3624827988617665 [Eh]
	 SCS Correlation Energy    =      -1.4844290797041799 [Eh]
	 SCS Total Energy          =    -381.1892836330820842 [Eh]
	-----------------------------------------------------------

  Dipole Moment: [D]
     X:    -0.0642      Y:    -1.1803      Z:     0.0462     Total:     1.1829

*** Psi4 exiting successfully. Buy a developer a beer!
