                               Psi4 1.3.2 release

  ==> Input File <==

--------------------------------------------------------------------------
#psi4
#
memory 32 gb

molecule  {
0 1
  O        0.3919700     1.5293850    -0.0006790
  O       -2.1568130     0.7397400     0.0007420
  O       -1.4819380    -1.4327800    -0.0008360
  C        1.2904720    -0.7184350     0.0008240
  C        2.6798860    -0.0990590    -0.0001190
  C        0.1998040     0.3200060    -0.0000370
  C       -1.2306413    -0.2378313    -0.2501000
  H        1.1330450    -1.3706030    -0.8672720
  H        1.1334350    -1.3685260     0.8705840
  H        2.8258740     0.5280000    -0.8820420
  H        2.8261650     0.5300460     0.8802900
  H        3.4430440    -0.8810290     0.0006450
  H       -3.0240490     0.2824300     0.0005820
units angstrom
no_reorient  #important for SAPT in psi4, default
symmetry c1  #important for SAPT in psi4, default
}

set PROPERTIES_ORIGIN ["COM"]
properties('MP2/aug-cc-pvtz', properties = ['dipole'])
--------------------------------------------------------------------------

    Molecular point group: c1
  Charge       = 0
  Multiplicity = 1
  Basis Set: AUG-CC-PVTZ
    Blend: AUG-CC-PVTZ
  Basis Set: (AUG-CC-PVTZ AUX)
    Blend: AUG-CC-PVTZ-JKFIT

    Orbital Energies [Eh]
    ---------------------

    Doubly Occupied:

       1A    -20.632898     2A    -20.588568     3A    -20.588370
       4A    -11.421504     5A    -11.371192     6A    -11.256105
       7A    -11.229378     8A     -1.474022     9A     -1.410053
      10A     -1.369690    11A     -1.075863    12A     -0.960502
      13A     -0.877937    14A     -0.762667    15A     -0.724704
      16A     -0.708830    17A     -0.659583    18A     -0.653768
      19A     -0.626642    20A     -0.614357    21A     -0.550078
      22A     -0.537542    23A     -0.529075    24A     -0.518059
      25A     -0.502416    26A     -0.493693    27A     -0.436280

  @DF-RHF Final Energy:  -379.67814376749232

   => Energetics <=

    Nuclear Repulsion Energy =            295.6091869409688684
    One-Electron Energy =               -1105.4271069517667456
    Two-Electron Energy =                 430.1397762433056187
    Total Energy =                       -379.6781437674923154
  Basis Set: (AUG-CC-PVTZ AUX)
    Blend: AUG-CC-PVTZ-RI
    Molecular point group: c1

    Geometry (in Angstrom), charge = 0, multiplicity = 1:

       Center              X                  Y                   Z               Mass
    ------------   -----------------  -----------------  -----------------  -----------------
         O            0.472876048306     1.507275059522     0.028750475699    15.994914619570
         O           -2.075906951694     0.717630059522     0.030171475699    15.994914619570
         O           -1.401031951694    -1.454889940478     0.028593475699    15.994914619570
         C            1.371378048306    -0.740544940478     0.030253475699    12.000000000000
         C            2.760792048306    -0.121168940478     0.029310475699    12.000000000000
         C            0.280710048306     0.297896059522     0.029392475699    12.000000000000
         C           -1.149735251694    -0.259941240478    -0.220670524301    12.000000000000
         H            1.213951048306    -1.392712940478    -0.837842524301     1.007825032230
         H            1.214341048306    -1.390635940478     0.900013475699     1.007825032230
         H            2.906780048306     0.505890059522    -0.852612524301     1.007825032230
         H            2.907071048306     0.507936059522     0.909719475699     1.007825032230
         H            3.523950048306    -0.903138940478     0.030074475699     1.007825032230
         H           -2.943142951694     0.260320059522     0.030011475699     1.007825032230

  Basis Set: AUG-CC-PVTZ
    Blend: AUG-CC-PVTZ
  Basis Set: (AUG-CC-PVTZ AUX)
    Blend: AUG-CC-PVTZ-JKFIT
	 Reference Energy          =    -379.6781437674923154 [Eh]
	 Singles Energy            =      -0.0000000000000000 [Eh]
	 Same-Spin Energy          =      -0.3677648184264072 [Eh]
	 Opposite-Spin Energy      =      -1.1404041625512955 [Eh]
	 Correlation Energy        =      -1.5081689809777026 [Eh]
	 Total Energy              =    -381.1863127484700158 [Eh]

	 ================> DF-SCS-MP2 Energies <==================
	-----------------------------------------------------------
	 SCS Same-Spin Scale       =       0.3333333333333333 [-]
	 SCS Opposite-Spin Scale   =       1.2000000000000000 [-]
	 SCS Same-Spin Energy      =      -0.1225882728088024 [Eh]
	 SCS Opposite-Spin Energy  =      -1.3684849950615545 [Eh]
	 SCS Correlation Energy    =      -1.4910732678703569 [Eh]
	 SCS Total Energy          =    -381.1692170353626921 [Eh]
	-----------------------------------------------------------

  Dipole Moment: [D]
     X:     0.1039      Y:    -1.2262      Z:    -0.3119     Total:     1.2695

*** Psi4 exiting successfully. Buy a developer a beer!
