                               Psi4 1.3.2 release

  ==> Input File <==

--------------------------------------------------------------------------
#psi4
#
memory 32 gb

molecule  {
0 1
  O        0.3919700     1.5293850    -0.0006790
  O       -2.1568130     0.7397400     0.0007420
  O       -1.4819380    -1.4327800    -0.0008360
  C        1.2904720    -0.7184350     0.0008240
  C        2.6798860    -0.0990590    -0.0001190
  C        0.1998359     0.3199070     0.1499630
  C       -1.2307060    -0.2376900    -0.0001000
  H        1.1330450    -1.3706030    -0.8672720
  H        1.1334350    -1.3685260     0.8705840
  H        2.8258740     0.5280000    -0.8820420
  H        2.8261650     0.5300460     0.8802900
  H        3.4430440    -0.8810290     0.0006450
  H       -3.0240490     0.2824300     0.0005820
units angstrom
no_reorient  #important for SAPT in psi4, default
symmetry c1  #important for SAPT in psi4, default
}

set PROPERTIES_ORIGIN ["COM"]
properties('MP2/aug-cc-pvtz', properties = ['dipole'])
--------------------------------------------------------------------------

    Molecular point group: c1
  Charge       = 0
  Multiplicity = 1
  Basis Set: AUG-CC-PVTZ
    Blend: AUG-CC-PVTZ
  Basis Set: (AUG-CC-PVTZ AUX)
    Blend: AUG-CC-PVTZ-JKFIT

    Orbital Energies [Eh]
    ---------------------

    Doubly Occupied:

       1A    -20.636438     2A    -20.589579     3A    -20.583888
       4A    -11.417235     5A    -11.367693     6A    -11.254895
       7A    -11.228047     8A     -1.485639     9A     -1.405442
      10A     -1.383644    11A     -1.073763    12A     -0.963528
      13A     -0.879014    14A     -0.769605    15A     -0.729196
      16A     -0.711553    17A     -0.663749    18A     -0.653132
      19A     -0.629028    20A     -0.618148    21A     -0.546557
      22A     -0.537063    23A     -0.528582    24A     -0.520599
      25A     -0.503067    26A     -0.496804    27A     -0.435986

  @DF-RHF Final Energy:  -379.69524736430168

   => Energetics <=

    Nuclear Repulsion Energy =            296.2985526771489617
    One-Electron Energy =               -1106.7638532508274238
    Two-Electron Energy =                 430.7700532093767265
    Total Energy =                       -379.6952473643016788
  Basis Set: (AUG-CC-PVTZ AUX)
    Blend: AUG-CC-PVTZ-RI
    Molecular point group: c1

    Geometry (in Angstrom), charge = 0, multiplicity = 1:

       Center              X                  Y                   Z               Mass
    ------------   -----------------  -----------------  -----------------  -----------------
         O            0.472879905930     1.507270084597    -0.018293729972    15.994914619570
         O           -2.075903094070     0.717625084597    -0.016872729972    15.994914619570
         O           -1.401028094070    -1.454894915403    -0.018450729972    15.994914619570
         C            1.371381905930    -0.740549915403    -0.016790729972    12.000000000000
         C            2.760795905930    -0.121173915403    -0.017733729972    12.000000000000
         C            0.280745805930     0.297792084597     0.132348270028    12.000000000000
         C           -1.149796094070    -0.259804915403    -0.017714729972    12.000000000000
         H            1.213954905930    -1.392717915403    -0.884886729972     1.007825032230
         H            1.214344905930    -1.390640915403     0.852969270028     1.007825032230
         H            2.906783905930     0.505885084597    -0.899656729972     1.007825032230
         H            2.907074905930     0.507931084597     0.862675270028     1.007825032230
         H            3.523953905930    -0.903143915403    -0.016969729972     1.007825032230
         H           -2.943139094070     0.260315084597    -0.017032729972     1.007825032230

  Basis Set: AUG-CC-PVTZ
    Blend: AUG-CC-PVTZ
  Basis Set: (AUG-CC-PVTZ AUX)
    Blend: AUG-CC-PVTZ-JKFIT
	 Reference Energy          =    -379.6952473643016788 [Eh]
	 Singles Energy            =      -0.0000000000000000 [Eh]
	 Same-Spin Energy          =      -0.3663555541137606 [Eh]
	 Opposite-Spin Energy      =      -1.1369368722638835 [Eh]
	 Correlation Energy        =      -1.5032924263776442 [Eh]
	 Total Energy              =    -381.1985397906793196 [Eh]

	 ================> DF-SCS-MP2 Energies <==================
	-----------------------------------------------------------
	 SCS Same-Spin Scale       =       0.3333333333333333 [-]
	 SCS Opposite-Spin Scale   =       1.2000000000000000 [-]
	 SCS Same-Spin Energy      =      -0.1221185180379202 [Eh]
	 SCS Opposite-Spin Energy  =      -1.3643242467166601 [Eh]
	 SCS Correlation Energy    =      -1.4864427647545804 [Eh]
	 SCS Total Energy          =    -381.1816901290562782 [Eh]
	-----------------------------------------------------------

  Dipole Moment: [D]
     X:    -0.0795      Y:    -1.1624      Z:     0.1310     Total:     1.1725

*** Psi4 exiting successfully. Buy a developer a beer!
