                               Psi4 1.3.2 release

  ==> Input File <==

--------------------------------------------------------------------------
#psi4
#
memory 32 gb

molecule  {
0 1
  O        0.3919700     1.5293850    -0.0006790
  O       -2.1568130     0.7397400     0.0007420
  O       -1.4819380    -1.4327800    -0.0008360
  C        1.2904720    -0.7184350     0.0008240
  C        2.6798860    -0.0990590    -0.0001190
  C        0.1998572     0.3198410     0.2499629
  C       -1.2307060    -0.2376900    -0.0001000
  H        1.1330450    -1.3706030    -0.8672720
  H        1.1334350    -1.3685260     0.8705840
  H        2.8258740     0.5280000    -0.8820420
  H        2.8261650     0.5300460     0.8802900
  H        3.4430440    -0.8810290     0.0006450
  H       -3.0240490     0.2824300     0.0005820
units angstrom
no_reorient  #important for SAPT in psi4, default
symmetry c1  #important for SAPT in psi4, default
}

set PROPERTIES_ORIGIN ["COM"]
properties('MP2/aug-cc-pvtz', properties = ['dipole'])
--------------------------------------------------------------------------

    Molecular point group: c1
  Charge       = 0
  Multiplicity = 1
  Basis Set: AUG-CC-PVTZ
    Blend: AUG-CC-PVTZ
  Basis Set: (AUG-CC-PVTZ AUX)
    Blend: AUG-CC-PVTZ-JKFIT

    Orbital Energies [Eh]
    ---------------------

    Doubly Occupied:

       1A    -20.636358     2A    -20.593441     3A    -20.583987
       4A    -11.419239     5A    -11.371325     6A    -11.255984
       7A    -11.227613     8A     -1.485257     9A     -1.397909
      10A     -1.383554    11A     -1.071177    12A     -0.960259
      13A     -0.877036    14A     -0.769709    15A     -0.728763
      16A     -0.709702    17A     -0.662609    18A     -0.651437
      19A     -0.626651    20A     -0.616095    21A     -0.545409
      22A     -0.534514    23A     -0.528259    24A     -0.520218
      25A     -0.501997    26A     -0.493192    27A     -0.433719

  @DF-RHF Final Energy:  -379.67602448019124

   => Energetics <=

    Nuclear Repulsion Energy =            295.7121131481984548
    One-Electron Energy =               -1105.6054483915177116
    Two-Electron Energy =                 430.2173107631280118
    Total Energy =                       -379.6760244801912449
  Basis Set: (AUG-CC-PVTZ AUX)
    Blend: AUG-CC-PVTZ-RI
    Molecular point group: c1

    Geometry (in Angstrom), charge = 0, multiplicity = 1:

       Center              X                  Y                   Z               Mass
    ------------   -----------------  -----------------  -----------------  -----------------
         O            0.472877400826     1.507277846891    -0.030054769629    15.994914619570
         O           -2.075905599174     0.717632846891    -0.028633769629    15.994914619570
         O           -1.401030599174    -1.454887153109    -0.030211769629    15.994914619570
         C            1.371379400826    -0.740542153109    -0.028551769629    12.000000000000
         C            2.760793400826    -0.121166153109    -0.029494769629    12.000000000000
         C            0.280764600826     0.297733846891     0.220587130371    12.000000000000
         C           -1.149798599174    -0.259797153109    -0.029475769629    12.000000000000
         H            1.213952400826    -1.392710153109    -0.896647769629     1.007825032230
         H            1.214342400826    -1.390633153109     0.841208230371     1.007825032230
         H            2.906781400826     0.505892846891    -0.911417769629     1.007825032230
         H            2.907072400826     0.507938846891     0.850914230371     1.007825032230
         H            3.523951400826    -0.903136153109    -0.028730769629     1.007825032230
         H           -2.943141599174     0.260322846891    -0.028793769629     1.007825032230

  Basis Set: AUG-CC-PVTZ
    Blend: AUG-CC-PVTZ
  Basis Set: (AUG-CC-PVTZ AUX)
    Blend: AUG-CC-PVTZ-JKFIT
	 Reference Energy          =    -379.6760244801912449 [Eh]
	 Singles Energy            =      -0.0000000000000000 [Eh]
	 Same-Spin Energy          =      -0.3673912228388322 [Eh]
	 Opposite-Spin Energy      =      -1.1400040118021826 [Eh]
	 Correlation Energy        =      -1.5073952346410149 [Eh]
	 Total Energy              =    -381.1834197148322687 [Eh]

	 ================> DF-SCS-MP2 Energies <==================
	-----------------------------------------------------------
	 SCS Same-Spin Scale       =       0.3333333333333333 [-]
	 SCS Opposite-Spin Scale   =       1.2000000000000000 [-]
	 SCS Same-Spin Energy      =      -0.1224637409462774 [Eh]
	 SCS Opposite-Spin Energy  =      -1.3680048141626191 [Eh]
	 SCS Correlation Energy    =      -1.4904685551088965 [Eh]
	 SCS Total Energy          =    -381.1664930353001637 [Eh]
	-----------------------------------------------------------

  Dipole Moment: [D]
     X:    -0.1119      Y:    -1.1281      Z:     0.2084     Total:     1.1526

*** Psi4 exiting successfully. Buy a developer a beer!
