                               Psi4 1.3.2 release

  ==> Input File <==

--------------------------------------------------------------------------
#psi4
#
memory 32 gb

molecule  {
0 1
  O        0.3919700     1.5293850    -0.0006790
  O       -2.1568130     0.7397400     0.0007420
  O       -1.4819380    -1.4327800    -0.0008360
  C        1.2904720    -0.7184350     0.0008240
  C        2.6798860    -0.0990590    -0.0001190
  C        0.1998040     0.3200060    -0.0000370
  C       -1.2306801    -0.2377465    -0.1001000
  H        1.1330450    -1.3706030    -0.8672720
  H        1.1334350    -1.3685260     0.8705840
  H        2.8258740     0.5280000    -0.8820420
  H        2.8261650     0.5300460     0.8802900
  H        3.4430440    -0.8810290     0.0006450
  H       -3.0240490     0.2824300     0.0005820
units angstrom
no_reorient  #important for SAPT in psi4, default
symmetry c1  #important for SAPT in psi4, default
}

set PROPERTIES_ORIGIN ["COM"]
properties('MP2/aug-cc-pvtz', properties = ['dipole'])
--------------------------------------------------------------------------

    Molecular point group: c1
  Charge       = 0
  Multiplicity = 1
  Basis Set: AUG-CC-PVTZ
    Blend: AUG-CC-PVTZ
  Basis Set: (AUG-CC-PVTZ AUX)
    Blend: AUG-CC-PVTZ-JKFIT

    Orbital Energies [Eh]
    ---------------------

    Doubly Occupied:

       1A    -20.635919     2A    -20.587557     3A    -20.584632
       4A    -11.417015     5A    -11.366371     6A    -11.254534
       7A    -11.228457     8A     -1.483947     9A     -1.409937
      10A     -1.381389    11A     -1.075332    12A     -0.964592
      13A     -0.879786    14A     -0.768344    15A     -0.728728
      16A     -0.712055    17A     -0.663472    18A     -0.654196
      19A     -0.629802    20A     -0.618499    21A     -0.547767
      22A     -0.538416    23A     -0.528836    24A     -0.520153
      25A     -0.503578    26A     -0.498102    27A     -0.437089

  @DF-RHF Final Energy:  -379.70160677944784

   => Energetics <=

    Nuclear Repulsion Energy =            296.4688191282112939
    One-Electron Energy =               -1107.1038379853484912
    Two-Electron Energy =                 430.9334120776893542
    Total Energy =                       -379.7016067794478431
  Basis Set: (AUG-CC-PVTZ AUX)
    Blend: AUG-CC-PVTZ-RI
    Molecular point group: c1

    Geometry (in Angstrom), charge = 0, multiplicity = 1:

       Center              X                  Y                   Z               Mass
    ------------   -----------------  -----------------  -----------------  -----------------
         O            0.472880611593     1.507265086150     0.011108898572    15.994914619570
         O           -2.075902388407     0.717620086150     0.012529898572    15.994914619570
         O           -1.401027388407    -1.454899913850     0.010951898572    15.994914619570
         C            1.371382611593    -0.740554913850     0.012611898572    12.000000000000
         C            2.760796611593    -0.121178913850     0.011668898572    12.000000000000
         C            0.280714611593     0.297886086150     0.011750898572    12.000000000000
         C           -1.149769488407    -0.259866413850    -0.088312101428    12.000000000000
         H            1.213955611593    -1.392722913850    -0.855484101428     1.007825032230
         H            1.214345611593    -1.390645913850     0.882371898572     1.007825032230
         H            2.906784611593     0.505880086150    -0.870254101428     1.007825032230
         H            2.907075611593     0.507926086150     0.892077898572     1.007825032230
         H            3.523954611593    -0.903148913850     0.012432898572     1.007825032230
         H           -2.943138388407     0.260310086150     0.012369898572     1.007825032230

  Basis Set: AUG-CC-PVTZ
    Blend: AUG-CC-PVTZ
  Basis Set: (AUG-CC-PVTZ AUX)
    Blend: AUG-CC-PVTZ-JKFIT
	 Reference Energy          =    -379.7016067794478431 [Eh]
	 Singles Energy            =      -0.0000000000000000 [Eh]
	 Same-Spin Energy          =      -0.3660875933617986 [Eh]
	 Opposite-Spin Energy      =      -1.1359741207834206 [Eh]
	 Correlation Energy        =      -1.5020617141452193 [Eh]
	 Total Energy              =    -381.2036684935930566 [Eh]

	 ================> DF-SCS-MP2 Energies <==================
	-----------------------------------------------------------
	 SCS Same-Spin Scale       =       0.3333333333333333 [-]
	 SCS Opposite-Spin Scale   =       1.2000000000000000 [-]
	 SCS Same-Spin Energy      =      -0.1220291977872662 [Eh]
	 SCS Opposite-Spin Energy  =      -1.3631689449401048 [Eh]
	 SCS Correlation Energy    =      -1.4851981427273711 [Eh]
	 SCS Total Energy          =    -381.1868049221752131 [Eh]
	-----------------------------------------------------------

  Dipole Moment: [D]
     X:    -0.0366      Y:    -1.1902      Z:    -0.1325     Total:     1.1981

*** Psi4 exiting successfully. Buy a developer a beer!
