                               Psi4 1.3.2 release

  ==> Input File <==

--------------------------------------------------------------------------
#psi4
#
memory 32 gb

molecule  {
0 1
  O        0.3919700     1.5293850    -0.0006790
  O       -2.1568130     0.7397400     0.0007420
  O       -1.4819380    -1.4327800    -0.0008360
  C        1.2904720    -0.7184350     0.0008240
  C        2.6798860    -0.0990590    -0.0001190
  C        0.1998040     0.3200060    -0.0000370
  C       -1.2306543    -0.2378030    -0.2001000
  H        1.1330450    -1.3706030    -0.8672720
  H        1.1334350    -1.3685260     0.8705840
  H        2.8258740     0.5280000    -0.8820420
  H        2.8261650     0.5300460     0.8802900
  H        3.4430440    -0.8810290     0.0006450
  H       -3.0240490     0.2824300     0.0005820
units angstrom
no_reorient  #important for SAPT in psi4, default
symmetry c1  #important for SAPT in psi4, default
}

set PROPERTIES_ORIGIN ["COM"]
properties('MP2/aug-cc-pvtz', properties = ['dipole'])
--------------------------------------------------------------------------

    Molecular point group: c1
  Charge       = 0
  Multiplicity = 1
  Basis Set: AUG-CC-PVTZ
    Blend: AUG-CC-PVTZ
  Basis Set: (AUG-CC-PVTZ AUX)
    Blend: AUG-CC-PVTZ-JKFIT

    Orbital Energies [Eh]
    ---------------------

    Doubly Occupied:

       1A    -20.634211     2A    -20.587984     3A    -20.586895
       4A    -11.419683     5A    -11.369126     6A    -11.255420
       7A    -11.228976     8A     -1.478232     9A     -1.409987
      10A     -1.374605    11A     -1.075616    12A     -0.962204
      13A     -0.878723    14A     -0.764957    15A     -0.726436
      16A     -0.710300    17A     -0.661061    18A     -0.653949
      19A     -0.628087    20A     -0.616141    21A     -0.549160
      22A     -0.537804    23A     -0.528982    24A     -0.518942
      25A     -0.502535    26A     -0.495900    27A     -0.436611

  @DF-RHF Final Energy:  -379.68820810545719

   => Energetics <=

    Nuclear Repulsion Energy =            295.9733125574956603
    One-Electron Energy =               -1106.1379882721107606
    Two-Electron Energy =                 430.4764676091579076
    Total Energy =                       -379.6882081054571927
  Basis Set: (AUG-CC-PVTZ AUX)
    Blend: AUG-CC-PVTZ-RI
    Molecular point group: c1

    Geometry (in Angstrom), charge = 0, multiplicity = 1:

       Center              X                  Y                   Z               Mass
    ------------   -----------------  -----------------  -----------------  -----------------
         O            0.472877577242     1.507271731144     0.022869949990    15.994914619570
         O           -2.075905422758     0.717626731144     0.024290949990    15.994914619570
         O           -1.401030422758    -1.454893268856     0.022712949990    15.994914619570
         C            1.371379577242    -0.740548268856     0.024372949990    12.000000000000
         C            2.760793577242    -0.121172268856     0.023429949990    12.000000000000
         C            0.280711577242     0.297892731144     0.023511949990    12.000000000000
         C           -1.149746722758    -0.259916268856    -0.176551050010    12.000000000000
         H            1.213952577242    -1.392716268856    -0.843723050010     1.007825032230
         H            1.214342577242    -1.390639268856     0.894132949990     1.007825032230
         H            2.906781577242     0.505886731144    -0.858493050010     1.007825032230
         H            2.907072577242     0.507932731144     0.903838949990     1.007825032230
         H            3.523951577242    -0.903142268856     0.024193949990     1.007825032230
         H           -2.943141422758     0.260316731144     0.024130949990     1.007825032230

  Basis Set: AUG-CC-PVTZ
    Blend: AUG-CC-PVTZ
  Basis Set: (AUG-CC-PVTZ AUX)
    Blend: AUG-CC-PVTZ-JKFIT
	 Reference Energy          =    -379.6882081054571927 [Eh]
	 Singles Energy            =      -0.0000000000000000 [Eh]
	 Same-Spin Energy          =      -0.3670431571920114 [Eh]
	 Opposite-Spin Energy      =      -1.1384617854674355 [Eh]
	 Correlation Energy        =      -1.5055049426594469 [Eh]
	 Total Energy              =    -381.1937130481166491 [Eh]

	 ================> DF-SCS-MP2 Energies <==================
	-----------------------------------------------------------
	 SCS Same-Spin Scale       =       0.3333333333333333 [-]
	 SCS Opposite-Spin Scale   =       1.2000000000000000 [-]
	 SCS Same-Spin Energy      =      -0.1223477190640038 [Eh]
	 SCS Opposite-Spin Energy  =      -1.3661541425609225 [Eh]
	 SCS Correlation Energy    =      -1.4885018616249264 [Eh]
	 SCS Total Energy          =    -381.1767099670821040 [Eh]
	-----------------------------------------------------------

  Dipole Moment: [D]
     X:     0.0423      Y:    -1.2114      Z:    -0.2569     Total:     1.2391

*** Psi4 exiting successfully. Buy a developer a beer!
