                               Psi4 1.3.2 release

  ==> Input File <==

--------------------------------------------------------------------------
#psi4
#
memory 32 gb

molecule  {
0 1
  O        0.3919700     1.5293850    -0.0006790
  O       -2.1568130     0.7397400     0.0007420
  O       -1.4819380    -1.4327800    -0.0008360
  C        1.2904720    -0.7184350     0.0008240
  C        2.6798860    -0.0990590    -0.0001190
  C        0.1998253     0.3199400     0.0999630
  C       -1.2307060    -0.2376900    -0.0001000
  H        1.1330450    -1.3706030    -0.8672720
  H        1.1334350    -1.3685260     0.8705840
  H        2.8258740     0.5280000    -0.8820420
  H        2.8261650     0.5300460     0.8802900
  H        3.4430440    -0.8810290     0.0006450
  H       -3.0240490     0.2824300     0.0005820
units angstrom
no_reorient  #important for SAPT in psi4, default
symmetry c1  #important for SAPT in psi4, default
}

set PROPERTIES_ORIGIN ["COM"]
properties('MP2/aug-cc-pvtz', properties = ['dipole'])
--------------------------------------------------------------------------

    Molecular point group: c1
  Charge       = 0
  Multiplicity = 1
  Basis Set: AUG-CC-PVTZ
    Blend: AUG-CC-PVTZ
  Basis Set: (AUG-CC-PVTZ AUX)
    Blend: AUG-CC-PVTZ-JKFIT

    Orbital Energies [Eh]
    ---------------------

    Doubly Occupied:

       1A    -20.636470     2A    -20.588385     3A    -20.583868
       4A    -11.416592     5A    -11.366469     6A    -11.254538
       7A    -11.228182     8A     -1.485775     9A     -1.407897
      10A     -1.383669    11A     -1.074592    12A     -0.964577
      13A     -0.879649    14A     -0.769582    15A     -0.729353
      16A     -0.712128    17A     -0.664109    18A     -0.653746
      19A     -0.629755    20A     -0.618773    21A     -0.546928
      22A     -0.537958    23A     -0.528689    24A     -0.520604
      25A     -0.503645    26A     -0.497809    27A     -0.436699

  @DF-RHF Final Energy:  -379.70125229540196

   => Energetics <=

    Nuclear Repulsion Energy =            296.4854130361916305
    One-Electron Energy =               -1107.1324477176012806
    Two-Electron Energy =                 430.9457823860076928
    Total Energy =                       -379.7012522954019573
  Basis Set: (AUG-CC-PVTZ AUX)
    Blend: AUG-CC-PVTZ-RI
    Molecular point group: c1

    Geometry (in Angstrom), charge = 0, multiplicity = 1:

       Center              X                  Y                   Z               Mass
    ------------   -----------------  -----------------  -----------------  -----------------
         O            0.472881152602     1.507266203450    -0.012413204264    15.994914619570
         O           -2.075901847398     0.717621203450    -0.010992204264    15.994914619570
         O           -1.401026847398    -1.454898796550    -0.012570204264    15.994914619570
         C            1.371383152602    -0.740553796550    -0.010910204264    12.000000000000
         C            2.760797152602    -0.121177796550    -0.011853204264    12.000000000000
         C            0.280736452602     0.297821203450     0.088228795736    12.000000000000
         C           -1.149794847398    -0.259808796550    -0.011834204264    12.000000000000
         H            1.213956152602    -1.392721796550    -0.879006204264     1.007825032230
         H            1.214346152602    -1.390644796550     0.858849795736     1.007825032230
         H            2.906785152602     0.505881203450    -0.893776204264     1.007825032230
         H            2.907076152602     0.507927203450     0.868555795736     1.007825032230
         H            3.523955152602    -0.903147796550    -0.011089204264     1.007825032230
         H           -2.943137847398     0.260311203450    -0.011152204264     1.007825032230

  Basis Set: AUG-CC-PVTZ
    Blend: AUG-CC-PVTZ
  Basis Set: (AUG-CC-PVTZ AUX)
    Blend: AUG-CC-PVTZ-JKFIT
	 Reference Energy          =    -379.7012522954019573 [Eh]
	 Singles Energy            =      -0.0000000000000000 [Eh]
	 Same-Spin Energy          =      -0.3660326941528897 [Eh]
	 Opposite-Spin Energy      =      -1.1359782043148408 [Eh]
	 Correlation Energy        =      -1.5020108984677305 [Eh]
	 Total Energy              =    -381.2032631938697023 [Eh]

	 ================> DF-SCS-MP2 Energies <==================
	-----------------------------------------------------------
	 SCS Same-Spin Scale       =       0.3333333333333333 [-]
	 SCS Opposite-Spin Scale   =       1.2000000000000000 [-]
	 SCS Same-Spin Energy      =      -0.1220108980509632 [Eh]
	 SCS Opposite-Spin Energy  =      -1.3631738451778088 [Eh]
	 SCS Correlation Energy    =      -1.4851847432287721 [Eh]
	 SCS Total Energy          =    -381.1864370386307428 [Eh]
	-----------------------------------------------------------

  Dipole Moment: [D]
     X:    -0.0699      Y:    -1.1736      Z:     0.0892     Total:     1.1790

*** Psi4 exiting successfully. Buy a developer a beer!
