                               Psi4 1.3.2 release

  ==> Input File <==

--------------------------------------------------------------------------
#psi4
#
memory 32 gb

molecule  {
0 1
  O        0.3919700     1.5293850    -0.0006790
  O       -2.1568130     0.7397400     0.0007420
  O       -1.4819380    -1.4327800    -0.0008360
  C        1.2904720    -0.7184350     0.0008240
  C        2.6798860    -0.0990590    -0.0001190
  C        0.1998040     0.3200060    -0.0000370
  C       -1.2306284    -0.2378596    -0.3000999
  H        1.1330450    -1.3706030    -0.8672720
  H        1.1334350    -1.3685260     0.8705840
  H        2.8258740     0.5280000    -0.8820420
  H        2.8261650     0.5300460     0.8802900
  H        3.4430440    -0.8810290     0.0006450
  H       -3.0240490     0.2824300     0.0005820
units angstrom
no_reorient  #important for SAPT in psi4, default
symmetry c1  #important for SAPT in psi4, default
}

set PROPERTIES_ORIGIN ["COM"]
properties('MP2/aug-cc-pvtz', properties = ['dipole'])
--------------------------------------------------------------------------

    Molecular point group: c1
  Charge       = 0
  Multiplicity = 1
  Basis Set: AUG-CC-PVTZ
    Blend: AUG-CC-PVTZ
  Basis Set: (AUG-CC-PVTZ AUX)
    Blend: AUG-CC-PVTZ-JKFIT

    Orbital Energies [Eh]
    ---------------------

    Doubly Occupied:

       1A    -20.631251     2A    -20.590589     3A    -20.588918
       4A    -11.423533     5A    -11.373718     6A    -11.256966
       7A    -11.229885     8A     -1.468972     9A     -1.410151
      10A     -1.363886    11A     -1.076203    12A     -0.958529
      13A     -0.876984    14A     -0.760166    15A     -0.722576
      16A     -0.706851    17A     -0.658148    18A     -0.653533
      19A     -0.624714    20A     -0.612163    21A     -0.551107
      22A     -0.537385    23A     -0.529176    24A     -0.517009
      25A     -0.502577    26A     -0.490812    27A     -0.435904

  @DF-RHF Final Energy:  -379.66585058531575

   => Energetics <=

    Nuclear Repulsion Energy =            295.1725845014646552
    One-Electron Energy =               -1104.5734557503922133
    Two-Electron Energy =                 429.7350206636118628
    Total Energy =                       -379.6658505853157521
  Basis Set: (AUG-CC-PVTZ AUX)
    Blend: AUG-CC-PVTZ-RI
    Molecular point group: c1

    Geometry (in Angstrom), charge = 0, multiplicity = 1:

       Center              X                  Y                   Z               Mass
    ------------   -----------------  -----------------  -----------------  -----------------
         O            0.472874531130     1.507278387899     0.034630989647    15.994914619570
         O           -2.075908468870     0.717633387899     0.036051989647    15.994914619570
         O           -1.401033468870    -1.454886612101     0.034473989647    15.994914619570
         C            1.371376531130    -0.740541612101     0.036133989647    12.000000000000
         C            2.760790531130    -0.121165612101     0.035190989647    12.000000000000
         C            0.280708531130     0.297899387899     0.035272989647    12.000000000000
         C           -1.149723868870    -0.259966212101    -0.264789910353    12.000000000000
         H            1.213949531130    -1.392709612101    -0.831962010353     1.007825032230
         H            1.214339531130    -1.390632612101     0.905893989647     1.007825032230
         H            2.906778531130     0.505893387899    -0.846732010353     1.007825032230
         H            2.907069531130     0.507939387899     0.915599989647     1.007825032230
         H            3.523948531130    -0.903135612101     0.035954989647     1.007825032230
         H           -2.943144468870     0.260323387899     0.035891989647     1.007825032230

  Basis Set: AUG-CC-PVTZ
    Blend: AUG-CC-PVTZ
  Basis Set: (AUG-CC-PVTZ AUX)
    Blend: AUG-CC-PVTZ-JKFIT
	 Reference Energy          =    -379.6658505853157521 [Eh]
	 Singles Energy            =      -0.0000000000000000 [Eh]
	 Same-Spin Energy          =      -0.3686500724694698 [Eh]
	 Opposite-Spin Energy      =      -1.1428193676989351 [Eh]
	 Correlation Energy        =      -1.5114694401684048 [Eh]
	 Total Energy              =    -381.1773200254841640 [Eh]

	 ================> DF-SCS-MP2 Energies <==================
	-----------------------------------------------------------
	 SCS Same-Spin Scale       =       0.3333333333333333 [-]
	 SCS Opposite-Spin Scale   =       1.2000000000000000 [-]
	 SCS Same-Spin Energy      =      -0.1228833574898233 [Eh]
	 SCS Opposite-Spin Energy  =      -1.3713832412387221 [Eh]
	 SCS Correlation Energy    =      -1.4942665987285455 [Eh]
	 SCS Total Energy          =    -381.1601171840442817 [Eh]
	-----------------------------------------------------------

  Dipole Moment: [D]
     X:     0.1822      Y:    -1.2429      Z:    -0.3606     Total:     1.3069

*** Psi4 exiting successfully. Buy a developer a beer!
