                               Psi4 1.3.2 release

  ==> Input File <==

--------------------------------------------------------------------------
#psi4
#
memory 32 gb

molecule  {
0 1
  O        0.3919700     1.5293850    -0.0006790
  O       -2.1568130     0.7397400     0.0007420
  O       -1.4819380    -1.4327800    -0.0008360
  C        1.2904720    -0.7184350     0.0008240
  C        2.6798860    -0.0990590    -0.0001190
  C        0.1998040     0.3200060    -0.0000370
  C       -1.2306931    -0.2377183    -0.0501000
  H        1.1330450    -1.3706030    -0.8672720
  H        1.1334350    -1.3685260     0.8705840
  H        2.8258740     0.5280000    -0.8820420
  H        2.8261650     0.5300460     0.8802900
  H        3.4430440    -0.8810290     0.0006450
  H       -3.0240490     0.2824300     0.0005820
units angstrom
no_reorient  #important for SAPT in psi4, default
symmetry c1  #important for SAPT in psi4, default
}

set PROPERTIES_ORIGIN ["COM"]
properties('MP2/aug-cc-pvtz', properties = ['dipole'])
--------------------------------------------------------------------------

    Molecular point group: c1
  Charge       = 0
  Multiplicity = 1
  Basis Set: AUG-CC-PVTZ
    Blend: AUG-CC-PVTZ
  Basis Set: (AUG-CC-PVTZ AUX)
    Blend: AUG-CC-PVTZ-JKFIT

    Orbital Energies [Eh]
    ---------------------

    Doubly Occupied:

       1A    -20.636345     2A    -20.587466     3A    -20.584055
       4A    -11.416305     5A    -11.365682     6A    -11.254317
       7A    -11.228330     8A     -1.485398     9A     -1.409934
      10A     -1.383120    11A     -1.075269    12A     -0.965212
      13A     -0.880058    14A     -0.769253    15A     -0.729297
      16A     -0.712459    17A     -0.664156    18A     -0.654262
      19A     -0.630192    20A     -0.619082    21A     -0.547371
      22A     -0.538636    23A     -0.528794    24A     -0.520458
      25A     -0.504081    26A     -0.498432    27A     -0.437217

  @DF-RHF Final Energy:  -379.70494824845360

   => Energetics <=

    Nuclear Repulsion Energy =            296.5945059266712178
    One-Electron Energy =               -1107.3485477713365981
    Two-Electron Energy =                 431.0490935962117760
    Total Energy =                       -379.7049482484536043
  Basis Set: (AUG-CC-PVTZ AUX)
    Blend: AUG-CC-PVTZ-RI
    Molecular point group: c1

    Geometry (in Angstrom), charge = 0, multiplicity = 1:

       Center              X                  Y                   Z               Mass
    ------------   -----------------  -----------------  -----------------  -----------------
         O            0.472882140530     1.507261769534     0.005228372863    15.994914619570
         O           -2.075900859470     0.717616769534     0.006649372863    15.994914619570
         O           -1.401025859470    -1.454903230466     0.005071372863    15.994914619570
         C            1.371384140530    -0.740558230466     0.006731372863    12.000000000000
         C            2.760798140530    -0.121182230466     0.005788372863    12.000000000000
         C            0.280716140530     0.297882769534     0.005870372863    12.000000000000
         C           -1.149780959470    -0.259841530466    -0.044192627137    12.000000000000
         H            1.213957140530    -1.392726230466    -0.861364627137     1.007825032230
         H            1.214347140530    -1.390649230466     0.876491372863     1.007825032230
         H            2.906786140530     0.505876769534    -0.876134627137     1.007825032230
         H            2.907077140530     0.507922769534     0.886197372863     1.007825032230
         H            3.523956140530    -0.903152230466     0.006552372863     1.007825032230
         H           -2.943136859470     0.260306769534     0.006489372863     1.007825032230

  Basis Set: AUG-CC-PVTZ
    Blend: AUG-CC-PVTZ
  Basis Set: (AUG-CC-PVTZ AUX)
    Blend: AUG-CC-PVTZ-JKFIT
	 Reference Energy          =    -379.7049482484536043 [Eh]
	 Singles Energy            =      -0.0000000000000000 [Eh]
	 Same-Spin Energy          =      -0.3658509698216705 [Eh]
	 Opposite-Spin Energy      =      -1.1353935948444720 [Eh]
	 Correlation Energy        =      -1.5012445646661425 [Eh]
	 Total Energy              =    -381.2061928131197419 [Eh]

	 ================> DF-SCS-MP2 Energies <==================
	-----------------------------------------------------------
	 SCS Same-Spin Scale       =       0.3333333333333333 [-]
	 SCS Opposite-Spin Scale   =       1.2000000000000000 [-]
	 SCS Same-Spin Energy      =      -0.1219503232738902 [Eh]
	 SCS Opposite-Spin Energy  =      -1.3624723138133663 [Eh]
	 SCS Correlation Energy    =      -1.4844226370872564 [Eh]
	 SCS Total Energy          =    -381.1893708855408818 [Eh]
	-----------------------------------------------------------

  Dipole Moment: [D]
     X:    -0.0559      Y:    -1.1846      Z:    -0.0657     Total:     1.1877

*** Psi4 exiting successfully. Buy a developer a beer!
