                               Psi4 1.3.2 release

  ==> Input File <==

--------------------------------------------------------------------------
#psi4
#
memory 32 gb

molecule  {
0 1
  O        0.3919700     1.5293850    -0.0006790
  O       -2.1568130     0.7397400     0.0007420
  O       -1.4819380    -1.4327800    -0.0008360
  C        1.2904720    -0.7184350     0.0008240
  C        2.6798860    -0.0990590    -0.0001190
  C        0.1998679     0.3198079     0.2999629
  C       -1.2307060    -0.2376900    -0.0001000
  H        1.1330450    -1.3706030    -0.8672720
  H        1.1334350    -1.3685260     0.8705840
  H        2.8258740     0.5280000    -0.8820420
  H        2.8261650     0.5300460     0.8802900
  H        3.4430440    -0.8810290     0.0006450
  H       -3.0240490     0.2824300     0.0005820
units angstrom
no_reorient  #important for SAPT in psi4, default
symmetry c1  #important for SAPT in psi4, default
}

set PROPERTIES_ORIGIN ["COM"]
properties('MP2/aug-cc-pvtz', properties = ['dipole'])
--------------------------------------------------------------------------

    Molecular point group: c1
  Charge       = 0
  Multiplicity = 1
  Basis Set: AUG-CC-PVTZ
    Blend: AUG-CC-PVTZ
  Basis Set: (AUG-CC-PVTZ AUX)
    Blend: AUG-CC-PVTZ-JKFIT

    Orbital Energies [Eh]
    ---------------------

    Doubly Occupied:

       1A    -20.636319     2A    -20.596131     3A    -20.584086
       4A    -11.420569     5A    -11.373587     6A    -11.256688
       7A    -11.227319     8A     -1.485033     9A     -1.393030
      10A     -1.383450    11A     -1.069466    12A     -0.958090
      13A     -0.875729    14A     -0.769805    15A     -0.728520
      16A     -0.708424    17A     -0.661853    18A     -0.650447
      19A     -0.625027    20A     -0.614630    21A     -0.544660
      22A     -0.533039    23A     -0.528044    24A     -0.519699
      25A     -0.501536    26A     -0.490689    27A     -0.432168

  @DF-RHF Final Energy:  -379.66283354062136

   => Energetics <=

    Nuclear Repulsion Energy =            295.3185243468908538
    One-Electron Energy =               -1104.8266389204984534
    Two-Electron Energy =                 429.8452810329862359
    Total Energy =                       -379.6628335406213637
  Basis Set: (AUG-CC-PVTZ AUX)
    Blend: AUG-CC-PVTZ-RI
    Molecular point group: c1

    Geometry (in Angstrom), charge = 0, multiplicity = 1:

       Center              X                  Y                   Z               Mass
    ------------   -----------------  -----------------  -----------------  -----------------
         O            0.472876142394     1.507281739799    -0.035935295338    15.994914619570
         O           -2.075906857606     0.717636739799    -0.034514295338    15.994914619570
         O           -1.401031857606    -1.454883260201    -0.036092295338    15.994914619570
         C            1.371378142394    -0.740538260201    -0.034432295338    12.000000000000
         C            2.760792142394    -0.121162260201    -0.035375295338    12.000000000000
         C            0.280774042394     0.297704639799     0.264706604662    12.000000000000
         C           -1.149799857606    -0.259793260201    -0.035356295338    12.000000000000
         H            1.213951142394    -1.392706260201    -0.902528295338     1.007825032230
         H            1.214341142394    -1.390629260201     0.835327704662     1.007825032230
         H            2.906780142394     0.505896739799    -0.917298295338     1.007825032230
         H            2.907071142394     0.507942739799     0.845033704662     1.007825032230
         H            3.523950142394    -0.903132260201    -0.034611295338     1.007825032230
         H           -2.943142857606     0.260326739799    -0.034674295338     1.007825032230

  Basis Set: AUG-CC-PVTZ
    Blend: AUG-CC-PVTZ
  Basis Set: (AUG-CC-PVTZ AUX)
    Blend: AUG-CC-PVTZ-JKFIT
	 Reference Energy          =    -379.6628335406213637 [Eh]
	 Singles Energy            =      -0.0000000000000000 [Eh]
	 Same-Spin Energy          =      -0.3681035917231944 [Eh]
	 Opposite-Spin Energy      =      -1.1421303814246597 [Eh]
	 Correlation Energy        =      -1.5102339731478542 [Eh]
	 Total Energy              =    -381.1730675137692401 [Eh]

	 ================> DF-SCS-MP2 Energies <==================
	-----------------------------------------------------------
	 SCS Same-Spin Scale       =       0.3333333333333333 [-]
	 SCS Opposite-Spin Scale   =       1.2000000000000000 [-]
	 SCS Same-Spin Energy      =      -0.1227011972410648 [Eh]
	 SCS Opposite-Spin Energy  =      -1.3705564577095917 [Eh]
	 SCS Correlation Energy    =      -1.4932576549506564 [Eh]
	 SCS Total Energy          =    -381.1560911955720030 [Eh]
	-----------------------------------------------------------

  Dipole Moment: [D]
     X:    -0.1355      Y:    -1.1061      Z:     0.2432     Total:     1.1406

*** Psi4 exiting successfully. Buy a developer a beer!
