                               Psi4 1.4a3.dev225

  ==> Input File <==

--------------------------------------------------------------------------
#psi4
#
memory 32 gb

molecule  {
0 1
  O        0.1371160     2.1442200    -0.7498900
  N       -0.9079200     0.2138270    -0.0832910
  C       -2.2101840     0.8219870    -0.4048790
  C       -3.1715160    -0.2856370    -0.8447810
  C       -3.2543810    -1.4343410     0.1597440
  C       -1.8582660    -1.9851710     0.4427670
  C       -0.9333470    -0.8668740     0.9054230
  C       -2.7330240     1.6830710     0.7442420
  C        0.1926105     0.9710002    -0.3217583
  C        1.5466860     0.3366220    -0.1329200
  C        1.8387470    -0.9259720    -0.6670270
  C        2.5575830     1.0808050     0.4866160
  C        3.1278360    -1.4488340    -0.5554450
  C        3.8398480     0.5472150     0.6113220
  C        4.1275660    -0.7178550     0.0911790
  H       -2.0189590     1.4850890    -1.2525130
  H       -2.8205670    -0.6804150    -1.8065990
  H       -4.1624350     0.1514200    -1.0190010
  H       -3.9082830    -2.2246930    -0.2264870
  H       -3.7050990    -1.0869340     1.0980480
  H       -1.8940300    -2.7681710     1.2100160
  H       -1.4444710    -2.4355870    -0.4683360
  H       -1.2866520    -0.4768830     1.8722860
  H        0.0828400    -1.2295020     1.0584050
  H       -3.6731810     2.1637340     0.4547800
  H       -2.9192060     1.1010660     1.6506870
  H       -2.0023200     2.4636420     0.9693550
  H        1.0609540    -1.4829580    -1.1859370
  H        2.3266460     2.0767070     0.8563740
  H        3.3548360    -2.4238320    -0.9804540
  H        4.6199280     1.1225680     1.1042590
  H        5.1302370    -1.1288490     0.1814620
units angstrom
no_reorient  #important for SAPT in psi4, default
symmetry c1  #important for SAPT in psi4, default
}

set PROPERTIES_ORIGIN ["COM"]
properties('MP2/aug-cc-pvtz', properties = ['dipole'])
--------------------------------------------------------------------------

    Molecular point group: c1
  Charge       = 0
  Multiplicity = 1
  Basis Set: AUG-CC-PVTZ
    Blend: AUG-CC-PVTZ
  Basis Set: (AUG-CC-PVTZ AUX)
    Blend: AUG-CC-PVTZ-JKFIT

    Orbital Energies [Eh]
    ---------------------

    Doubly Occupied:

       1A    -20.510791     2A    -15.582496     3A    -11.348261
       4A    -11.267194     5A    -11.259307     6A    -11.250376
       7A    -11.248463     8A    -11.246504     9A    -11.244444
      10A    -11.244321    11A    -11.242369    12A    -11.230982
      13A    -11.227467    14A    -11.224237    15A    -11.211922
      16A     -1.362671    17A     -1.250232    18A     -1.159655
      19A     -1.087508    20A     -1.053827    21A     -1.029577
      22A     -1.022148    23A     -0.961736    24A     -0.899332
      25A     -0.866020    26A     -0.836712    27A     -0.833648
      28A     -0.788758    29A     -0.728952    30A     -0.719121
      31A     -0.680650    32A     -0.655581    33A     -0.638725
      34A     -0.628482    35A     -0.625408    36A     -0.607334
      37A     -0.598345    38A     -0.592651    39A     -0.587601
      40A     -0.577576    41A     -0.565381    42A     -0.542825
      43A     -0.526030    44A     -0.519939    45A     -0.506527
      46A     -0.502227    47A     -0.495098    48A     -0.491392
      49A     -0.470270    50A     -0.463377    51A     -0.453053
      52A     -0.418861    53A     -0.370165    54A     -0.343773
      55A     -0.340447

  @DF-RHF Final Energy:  -631.72836313140704

   => Energetics <=

    Nuclear Repulsion Energy =            998.7986012828177991
    One-Electron Energy =               -2840.7724241879463989
    Two-Electron Energy =                1210.2454597737214499
    Total Energy =                       -631.7283631314071499
  Basis Set: (AUG-CC-PVTZ AUX)
    Blend: AUG-CC-PVTZ-RI
    Molecular point group: c1

    Geometry (in Angstrom), charge = 0, multiplicity = 1:

       Center              X                  Y                   Z               Mass
    ------------   -----------------  -----------------  -----------------  -----------------
         O            0.073325299448     2.118682792034    -0.732939837751    15.994914619570
         N           -0.971710700552     0.188289792034    -0.066340837751    14.003074004430
         C           -2.273974700552     0.796449792034    -0.387928837751    12.000000000000
         C           -3.235306700552    -0.311174207966    -0.827830837751    12.000000000000
         C           -3.318171700552    -1.459878207966     0.176694162249    12.000000000000
         C           -1.922056700552    -2.010708207966     0.459717162249    12.000000000000
         C           -0.997137700552    -0.892411207966     0.922373162249    12.000000000000
         C           -2.796814700552     1.657533792034     0.761192162249    12.000000000000
         C            0.128819799448     0.945462992034    -0.304808137751    12.000000000000
         C            1.482895299448     0.311084792034    -0.115969837751    12.000000000000
         C            1.774956299448    -0.951509207966    -0.650076837751    12.000000000000
         C            2.493792299448     1.055267792034     0.503566162249    12.000000000000
         C            3.064045299448    -1.474371207966    -0.538494837751    12.000000000000
         C            3.776057299448     0.521677792034     0.628272162249    12.000000000000
         C            4.063775299448    -0.743392207966     0.108129162249    12.000000000000
         H           -2.082749700552     1.459551792034    -1.235562837751     1.007825032230
         H           -2.884357700552    -0.705952207966    -1.789648837751     1.007825032230
         H           -4.226225700552     0.125882792034    -1.002050837751     1.007825032230
         H           -3.972073700552    -2.250230207966    -0.209536837751     1.007825032230
         H           -3.768889700552    -1.112471207966     1.114998162249     1.007825032230
         H           -1.957820700552    -2.793708207966     1.226966162249     1.007825032230
         H           -1.508261700552    -2.461124207966    -0.451385837751     1.007825032230
         H           -1.350442700552    -0.502420207966     1.889236162249     1.007825032230
         H            0.019049299448    -1.255039207966     1.075355162249     1.007825032230
         H           -3.736971700552     2.138196792034     0.471730162249     1.007825032230
         H           -2.982996700552     1.075528792034     1.667637162249     1.007825032230
         H           -2.066110700552     2.438104792034     0.986305162249     1.007825032230
         H            0.997163299448    -1.508495207966    -1.168986837751     1.007825032230
         H            2.262855299448     2.051169792034     0.873324162249     1.007825032230
         H            3.291045299448    -2.449369207966    -0.963503837751     1.007825032230
         H            4.556137299448     1.097030792034     1.121209162249     1.007825032230
         H            5.066446299448    -1.154386207966     0.198412162249     1.007825032230

  Basis Set: AUG-CC-PVTZ
    Blend: AUG-CC-PVTZ
  Basis Set: (AUG-CC-PVTZ AUX)
    Blend: AUG-CC-PVTZ-JKFIT
	 Reference Energy          =    -631.7283631314070362 [Eh]
	 Singles Energy            =      -0.0000000000000000 [Eh]
	 Same-Spin Energy          =      -0.6887457841034237 [Eh]
	 Opposite-Spin Energy      =      -2.2118134478156328 [Eh]
	 Correlation Energy        =      -2.9005592319190567 [Eh]
	 Total Energy              =    -634.6289223633260690 [Eh]

	 ================> DF-SCS-MP2 Energies <==================
	-----------------------------------------------------------
	 SCS Same-Spin Scale       =       0.3333333333333333 [-]
	 SCS Opposite-Spin Scale   =       1.2000000000000000 [-]
	 SCS Same-Spin Energy      =      -0.2295819280344746 [Eh]
	 SCS Opposite-Spin Energy  =      -2.6541761373787591 [Eh]
	 SCS Correlation Energy    =      -2.8837580654132338 [Eh]
	 SCS Total Energy          =    -634.6121211968202260 [Eh]
	-----------------------------------------------------------

  Dipole Moment: [D]
     X:    -1.0180      Y:    -3.2193      Z:     1.5117     Total:     3.6994

*** Psi4 exiting successfully. Buy a developer a beer!
