                               Psi4 1.4a3.dev225

  ==> Input File <==

--------------------------------------------------------------------------
#psi4
#
memory 32 gb

molecule  {
0 1
  O        0.1371160     2.1442200    -0.7498900
  N       -0.9079200     0.2138270    -0.0832910
  C       -2.1924999     0.8137285    -0.4005120
  C       -3.1715160    -0.2856370    -0.8447810
  C       -3.2543810    -1.4343410     0.1597440
  C       -1.8582660    -1.9851710     0.4427670
  C       -0.9333470    -0.8668740     0.9054230
  C       -2.7330240     1.6830710     0.7442420
  C        0.2088310     0.9821600    -0.3252730
  C        1.5466860     0.3366220    -0.1329200
  C        1.8387470    -0.9259720    -0.6670270
  C        2.5575830     1.0808050     0.4866160
  C        3.1278360    -1.4488340    -0.5554450
  C        3.8398480     0.5472150     0.6113220
  C        4.1275660    -0.7178550     0.0911790
  H       -2.0189590     1.4850890    -1.2525130
  H       -2.8205670    -0.6804150    -1.8065990
  H       -4.1624350     0.1514200    -1.0190010
  H       -3.9082830    -2.2246930    -0.2264870
  H       -3.7050990    -1.0869340     1.0980480
  H       -1.8940300    -2.7681710     1.2100160
  H       -1.4444710    -2.4355870    -0.4683360
  H       -1.2866520    -0.4768830     1.8722860
  H        0.0828400    -1.2295020     1.0584050
  H       -3.6731810     2.1637340     0.4547800
  H       -2.9192060     1.1010660     1.6506870
  H       -2.0023200     2.4636420     0.9693550
  H        1.0609540    -1.4829580    -1.1859370
  H        2.3266460     2.0767070     0.8563740
  H        3.3548360    -2.4238320    -0.9804540
  H        4.6199280     1.1225680     1.1042590
  H        5.1302370    -1.1288490     0.1814620
units angstrom
no_reorient  #important for SAPT in psi4, default
symmetry c1  #important for SAPT in psi4, default
}

set PROPERTIES_ORIGIN ["COM"]
properties('MP2/aug-cc-pvtz', properties = ['dipole'])
--------------------------------------------------------------------------

    Molecular point group: c1
  Charge       = 0
  Multiplicity = 1
  Basis Set: AUG-CC-PVTZ
    Blend: AUG-CC-PVTZ
  Basis Set: (AUG-CC-PVTZ AUX)
    Blend: AUG-CC-PVTZ-JKFIT

    Orbital Energies [Eh]
    ---------------------

    Doubly Occupied:

       1A    -20.515183     2A    -15.579999     3A    -11.349770
       4A    -11.265631     5A    -11.256900     6A    -11.251039
       7A    -11.249791     8A    -11.247833     9A    -11.245778
      10A    -11.245439    11A    -11.243427    12A    -11.229707
      13A    -11.225839    14A    -11.222608    15A    -11.210207
      16A     -1.369767    17A     -1.250135    18A     -1.161221
      19A     -1.084380    20A     -1.052111    21A     -1.030679
      22A     -1.023344    23A     -0.958295    24A     -0.897234
      25A     -0.867067    26A     -0.837778    27A     -0.833249
      28A     -0.788194    29A     -0.728757    30A     -0.718773
      31A     -0.682230    32A     -0.655157    33A     -0.638375
      34A     -0.627865    35A     -0.626284    36A     -0.606963
      37A     -0.598780    38A     -0.593759    39A     -0.587920
      40A     -0.577481    41A     -0.564102    42A     -0.542762
      43A     -0.526859    44A     -0.519282    45A     -0.508120
      46A     -0.503113    47A     -0.493041    48A     -0.492971
      49A     -0.468282    50A     -0.463780    51A     -0.449165
      52A     -0.422114    53A     -0.367732    54A     -0.344840
      55A     -0.342174

  @DF-RHF Final Energy:  -631.72886797642138

   => Energetics <=

    Nuclear Repulsion Energy =            999.0024470104353895
    One-Electron Energy =               -2841.1760626386312651
    Two-Electron Energy =                1210.4447476517743780
    Total Energy =                       -631.7288679764214976
  Basis Set: (AUG-CC-PVTZ AUX)
    Blend: AUG-CC-PVTZ-RI
    Molecular point group: c1

    Geometry (in Angstrom), charge = 0, multiplicity = 1:

       Center              X                  Y                   Z               Mass
    ------------   -----------------  -----------------  -----------------  -----------------
         O            0.071322379305     2.118511397232    -0.732990187522    15.994914619570
         N           -0.973713620695     0.188118397232    -0.066391187522    14.003074004430
         C           -2.258293520695     0.788019897232    -0.383612187522    12.000000000000
         C           -3.237309620695    -0.311345602768    -0.827881187522    12.000000000000
         C           -3.320174620695    -1.460049602768     0.176643812478    12.000000000000
         C           -1.924059620695    -2.010879602768     0.459666812478    12.000000000000
         C           -0.999140620695    -0.892582602768     0.922322812478    12.000000000000
         C           -2.798817620695     1.657362397232     0.761141812478    12.000000000000
         C            0.143037379305     0.956451397232    -0.308373187522    12.000000000000
         C            1.480892379305     0.310913397232    -0.116020187522    12.000000000000
         C            1.772953379305    -0.951680602768    -0.650127187522    12.000000000000
         C            2.491789379305     1.055096397232     0.503515812478    12.000000000000
         C            3.062042379305    -1.474542602768    -0.538545187522    12.000000000000
         C            3.774054379305     0.521506397232     0.628221812478    12.000000000000
         C            4.061772379305    -0.743563602768     0.108078812478    12.000000000000
         H           -2.084752620695     1.459380397232    -1.235613187522     1.007825032230
         H           -2.886360620695    -0.706123602768    -1.789699187522     1.007825032230
         H           -4.228228620695     0.125711397232    -1.002101187522     1.007825032230
         H           -3.974076620695    -2.250401602768    -0.209587187522     1.007825032230
         H           -3.770892620695    -1.112642602768     1.114947812478     1.007825032230
         H           -1.959823620695    -2.793879602768     1.226915812478     1.007825032230
         H           -1.510264620695    -2.461295602768    -0.451436187522     1.007825032230
         H           -1.352445620695    -0.502591602768     1.889185812478     1.007825032230
         H            0.017046379305    -1.255210602768     1.075304812478     1.007825032230
         H           -3.738974620695     2.138025397232     0.471679812478     1.007825032230
         H           -2.984999620695     1.075357397232     1.667586812478     1.007825032230
         H           -2.068113620695     2.437933397232     0.986254812478     1.007825032230
         H            0.995160379305    -1.508666602768    -1.169037187522     1.007825032230
         H            2.260852379305     2.050998397232     0.873273812478     1.007825032230
         H            3.289042379305    -2.449540602768    -0.963554187522     1.007825032230
         H            4.554134379305     1.096859397232     1.121158812478     1.007825032230
         H            5.064443379305    -1.154557602768     0.198361812478     1.007825032230

  Basis Set: AUG-CC-PVTZ
    Blend: AUG-CC-PVTZ
  Basis Set: (AUG-CC-PVTZ AUX)
    Blend: AUG-CC-PVTZ-JKFIT
	 Reference Energy          =    -631.7288679764213839 [Eh]
	 Singles Energy            =      -0.0000000000000000 [Eh]
	 Same-Spin Energy          =      -0.6886806078402048 [Eh]
	 Opposite-Spin Energy      =      -2.2116007926895893 [Eh]
	 Correlation Energy        =      -2.9002814005297939 [Eh]
	 Total Energy              =    -634.6291493769512044 [Eh]

	 ================> DF-SCS-MP2 Energies <==================
	-----------------------------------------------------------
	 SCS Same-Spin Scale       =       0.3333333333333333 [-]
	 SCS Opposite-Spin Scale   =       1.2000000000000000 [-]
	 SCS Same-Spin Energy      =      -0.2295602026134016 [Eh]
	 SCS Opposite-Spin Energy  =      -2.6539209512275073 [Eh]
	 SCS Correlation Energy    =      -2.8834811538409086 [Eh]
	 SCS Total Energy          =    -634.6123491302622597 [Eh]
	-----------------------------------------------------------

  Dipole Moment: [D]
     X:    -0.7684      Y:    -3.1419      Z:     1.4629     Total:     3.5499

*** Psi4 exiting successfully. Buy a developer a beer!
