                               Psi4 1.3.2 release

  ==> Input File <==

--------------------------------------------------------------------------
#psi4
#
memory 32 gb

molecule  {
0 1
  O        0.1803164     2.1463269    -0.7492169
  N       -0.9079200     0.2138270    -0.0832910
  C       -2.2101840     0.8219870    -0.4048790
  C       -3.1715160    -0.2856370    -0.8447810
  C       -3.2543810    -1.4343410     0.1597440
  C       -1.8582660    -1.9851710     0.4427670
  C       -0.9333470    -0.8668740     0.9054230
  C       -2.7330240     1.6830710     0.7442420
  C        0.2088310     0.9821600    -0.3252730
  C        1.5466860     0.3366220    -0.1329200
  C        1.8387470    -0.9259720    -0.6670270
  C        2.5575830     1.0808050     0.4866160
  C        3.1278360    -1.4488340    -0.5554450
  C        3.8398480     0.5472150     0.6113220
  C        4.1275660    -0.7178550     0.0911790
  H       -2.0189590     1.4850890    -1.2525130
  H       -2.8205670    -0.6804150    -1.8065990
  H       -4.1624350     0.1514200    -1.0190010
  H       -3.9082830    -2.2246930    -0.2264870
  H       -3.7050990    -1.0869340     1.0980480
  H       -1.8940300    -2.7681710     1.2100160
  H       -1.4444710    -2.4355870    -0.4683360
  H       -1.2866520    -0.4768830     1.8722860
  H        0.0828400    -1.2295020     1.0584050
  H       -3.6731810     2.1637340     0.4547800
  H       -2.9192060     1.1010660     1.6506870
  H       -2.0023200     2.4636420     0.9693550
  H        1.0609540    -1.4829580    -1.1859370
  H        2.3266460     2.0767070     0.8563740
  H        3.3548360    -2.4238320    -0.9804540
  H        4.6199280     1.1225680     1.1042590
  H        5.1302370    -1.1288490     0.1814620
units angstrom
no_reorient  #important for SAPT in psi4, default
symmetry c1  #important for SAPT in psi4, default
}

set PROPERTIES_ORIGIN ["COM"]
properties('MP2/aug-cc-pvtz', properties = ['dipole'])
--------------------------------------------------------------------------

    Molecular point group: c1
  Charge       = 0
  Multiplicity = 1
  Basis Set: AUG-CC-PVTZ
    Blend: AUG-CC-PVTZ
  Basis Set: (AUG-CC-PVTZ AUX)
    Blend: AUG-CC-PVTZ-JKFIT

    Orbital Energies [Eh]
    ---------------------

    Doubly Occupied:

       1A    -20.515172     2A    -15.581098     3A    -11.349312
       4A    -11.266130     5A    -11.259257     6A    -11.249019
       7A    -11.247849     8A    -11.246214     9A    -11.244050
      10A    -11.243913    11A    -11.241982    12A    -11.230308
      13A    -11.227083    14A    -11.223965    15A    -11.211926
      16A     -1.368344    17A     -1.248819    18A     -1.159444
      19A     -1.085715    20A     -1.053212    21A     -1.029831
      22A     -1.021821    23A     -0.960223    24A     -0.898021
      25A     -0.865494    26A     -0.836786    27A     -0.833262
      28A     -0.787029    29A     -0.729243    30A     -0.718231
      31A     -0.681328    32A     -0.654711    33A     -0.638574
      34A     -0.628060    35A     -0.626363    36A     -0.606193
      37A     -0.598942    38A     -0.592569    39A     -0.587317
      40A     -0.578427    41A     -0.565348    42A     -0.543494
      43A     -0.526134    44A     -0.520126    45A     -0.507044
      46A     -0.501952    47A     -0.494589    48A     -0.492568
      49A     -0.470852    50A     -0.463472    51A     -0.452726
      52A     -0.420828    53A     -0.369693    54A     -0.343426
      55A     -0.339999

  @DF-RHF Final Energy:  -631.72887040077012

   => Energetics <=

    Nuclear Repulsion Energy =            998.4931353442026420
    One-Electron Energy =               -2840.1690324282085385
    Two-Electron Energy =                1209.9470266832358902
    Total Energy =                       -631.7288704007701199
  Basis Set: (AUG-CC-PVTZ AUX)
    Blend: AUG-CC-PVTZ-RI
    Molecular point group: c1

    Geometry (in Angstrom), charge = 0, multiplicity = 1:

       Center              X                  Y                   Z               Mass
    ------------   -----------------  -----------------  -----------------  -----------------
         O            0.112165790583     2.119964523675    -0.732112107385    15.994914619570
         N           -0.976070609417     0.187464623675    -0.066186207385    14.003074004430
         C           -2.278334609417     0.795624623675    -0.387774207385    12.000000000000
         C           -3.239666609417    -0.311999376325    -0.827676207385    12.000000000000
         C           -3.322531609417    -1.460703376325     0.176848792615    12.000000000000
         C           -1.926416609417    -2.011533376325     0.459871792615    12.000000000000
         C           -1.001497609417    -0.893236376325     0.922527792615    12.000000000000
         C           -2.801174609417     1.656708623675     0.761346792615    12.000000000000
         C            0.140680390583     0.955797623675    -0.308168207385    12.000000000000
         C            1.478535390583     0.310259623675    -0.115815207385    12.000000000000
         C            1.770596390583    -0.952334376325    -0.649922207385    12.000000000000
         C            2.489432390583     1.054442623675     0.503720792615    12.000000000000
         C            3.059685390583    -1.475196376325    -0.538340207385    12.000000000000
         C            3.771697390583     0.520852623675     0.628426792615    12.000000000000
         C            4.059415390583    -0.744217376325     0.108283792615    12.000000000000
         H           -2.087109609417     1.458726623675    -1.235408207385     1.007825032230
         H           -2.888717609417    -0.706777376325    -1.789494207385     1.007825032230
         H           -4.230585609417     0.125057623675    -1.001896207385     1.007825032230
         H           -3.976433609417    -2.251055376325    -0.209382207385     1.007825032230
         H           -3.773249609417    -1.113296376325     1.115152792615     1.007825032230
         H           -1.962180609417    -2.794533376325     1.227120792615     1.007825032230
         H           -1.512621609417    -2.461949376325    -0.451231207385     1.007825032230
         H           -1.354802609417    -0.503245376325     1.889390792615     1.007825032230
         H            0.014689390583    -1.255864376325     1.075509792615     1.007825032230
         H           -3.741331609417     2.137371623675     0.471884792615     1.007825032230
         H           -2.987356609417     1.074703623675     1.667791792615     1.007825032230
         H           -2.070470609417     2.437279623675     0.986459792615     1.007825032230
         H            0.992803390583    -1.509320376325    -1.168832207385     1.007825032230
         H            2.258495390583     2.050344623675     0.873478792615     1.007825032230
         H            3.286685390583    -2.450194376325    -0.963349207385     1.007825032230
         H            4.551777390583     1.096205623675     1.121363792615     1.007825032230
         H            5.062086390583    -1.155211376325     0.198566792615     1.007825032230

  Basis Set: AUG-CC-PVTZ
    Blend: AUG-CC-PVTZ
  Basis Set: (AUG-CC-PVTZ AUX)
    Blend: AUG-CC-PVTZ-JKFIT
	 Reference Energy          =    -631.7288704007701199 [Eh]
	 Singles Energy            =      -0.0000000000000000 [Eh]
	 Same-Spin Energy          =      -0.6885859261094629 [Eh]
	 Opposite-Spin Energy      =      -2.2116061292659208 [Eh]
	 Correlation Energy        =      -2.9001920553753839 [Eh]
	 Total Energy              =    -634.6290624561454479 [Eh]

	 ================> DF-SCS-MP2 Energies <==================
	-----------------------------------------------------------
	 SCS Same-Spin Scale       =       0.3333333333333333 [-]
	 SCS Opposite-Spin Scale   =       1.2000000000000000 [-]
	 SCS Same-Spin Energy      =      -0.2295286420364876 [Eh]
	 SCS Opposite-Spin Energy  =      -2.6539273551191047 [Eh]
	 SCS Correlation Energy    =      -2.8834559971555924 [Eh]
	 SCS Total Energy          =    -634.6123263979256990 [Eh]
	-----------------------------------------------------------

  Dipole Moment: [D]
     X:    -1.0104      Y:    -3.1208      Z:     1.4690     Total:     3.5941

*** Psi4 exiting successfully. Buy a developer a beer!
