                               Psi4 1.4a3.dev225

  ==> Input File <==

--------------------------------------------------------------------------
#psi4
#
memory 32 gb

molecule  {
0 1
  O        0.1371160     2.1442200    -0.7498900
  N       -0.9079200     0.2138270    -0.0832910
  C       -2.2101840     0.8219870    -0.4048790
  C       -3.1715160    -0.2856370    -0.8447810
  C       -3.2543810    -1.4343410     0.1597440
  C       -1.8582660    -1.9851710     0.4427670
  C       -0.9333470    -0.8668740     0.9054230
  C       -2.7330240     1.6830710     0.7442420
  C        0.2059376     1.0290443    -0.3424045
  C        1.5466860     0.3366220    -0.1329200
  C        1.8387470    -0.9259720    -0.6670270
  C        2.5575830     1.0808050     0.4866160
  C        3.1278360    -1.4488340    -0.5554450
  C        3.8398480     0.5472150     0.6113220
  C        4.1275660    -0.7178550     0.0911790
  H       -2.0189590     1.4850890    -1.2525130
  H       -2.8205670    -0.6804150    -1.8065990
  H       -4.1624350     0.1514200    -1.0190010
  H       -3.9082830    -2.2246930    -0.2264870
  H       -3.7050990    -1.0869340     1.0980480
  H       -1.8940300    -2.7681710     1.2100160
  H       -1.4444710    -2.4355870    -0.4683360
  H       -1.2866520    -0.4768830     1.8722860
  H        0.0828400    -1.2295020     1.0584050
  H       -3.6731810     2.1637340     0.4547800
  H       -2.9192060     1.1010660     1.6506870
  H       -2.0023200     2.4636420     0.9693550
  H        1.0609540    -1.4829580    -1.1859370
  H        2.3266460     2.0767070     0.8563740
  H        3.3548360    -2.4238320    -0.9804540
  H        4.6199280     1.1225680     1.1042590
  H        5.1302370    -1.1288490     0.1814620
units angstrom
no_reorient  #important for SAPT in psi4, default
symmetry c1  #important for SAPT in psi4, default
}

set PROPERTIES_ORIGIN ["COM"]
properties('MP2/aug-cc-pvtz', properties = ['dipole'])
--------------------------------------------------------------------------

    Molecular point group: c1
  Charge       = 0
  Multiplicity = 1
  Basis Set: AUG-CC-PVTZ
    Blend: AUG-CC-PVTZ
  Basis Set: (AUG-CC-PVTZ AUX)
    Blend: AUG-CC-PVTZ-JKFIT

    Orbital Energies [Eh]
    ---------------------

    Doubly Occupied:

       1A    -20.525053     2A    -15.572355     3A    -11.348937
       4A    -11.262552     5A    -11.255170     6A    -11.249440
       7A    -11.248108     8A    -11.246250     9A    -11.244281
      10A    -11.243979    11A    -11.242222    12A    -11.227627
      13A    -11.224672    14A    -11.221175    15A    -11.209907
      16A     -1.402086    17A     -1.243207    18A     -1.159170
      19A     -1.080683    20A     -1.049808    21A     -1.028088
      22A     -1.021856    23A     -0.956143    24A     -0.893258
      25A     -0.861589    26A     -0.835922    27A     -0.830893
      28A     -0.783097    29A     -0.726808    30A     -0.716631
      31A     -0.684020    32A     -0.655785    33A     -0.637268
      34A     -0.631977    35A     -0.626210    36A     -0.605235
      37A     -0.602050    38A     -0.593006    39A     -0.587646
      40A     -0.577697    41A     -0.563252    42A     -0.547599
      43A     -0.526712    44A     -0.519750    45A     -0.509728
      46A     -0.502339    47A     -0.498163    48A     -0.492041
      49A     -0.470078    50A     -0.462045    51A     -0.450146
      52A     -0.420698    53A     -0.366882    54A     -0.343541
      55A     -0.341384

  @DF-RHF Final Energy:  -631.72914180352655

   => Energetics <=

    Nuclear Repulsion Energy =            998.5152977396527376
    One-Electron Energy =               -2840.2364496373616021
    Two-Electron Energy =                1209.9920100941822056
    Total Energy =                       -631.7291418035265451
  Basis Set: (AUG-CC-PVTZ AUX)
    Blend: AUG-CC-PVTZ-RI
    Molecular point group: c1

    Geometry (in Angstrom), charge = 0, multiplicity = 1:

       Center              X                  Y                   Z               Mass
    ------------   -----------------  -----------------  -----------------  -----------------
         O            0.072537998697     2.115253826729    -0.731720159894    15.994914619570
         N           -0.972498001303     0.184860826729    -0.065121159894    14.003074004430
         C           -2.274762001303     0.793020826729    -0.386709159894    12.000000000000
         C           -3.236094001303    -0.314603173271    -0.826611159894    12.000000000000
         C           -3.318959001303    -1.463307173271     0.177913840106    12.000000000000
         C           -1.922844001303    -2.014137173271     0.460936840106    12.000000000000
         C           -0.997925001303    -0.895840173271     0.923592840106    12.000000000000
         C           -2.797602001303     1.654104826729     0.762411840106    12.000000000000
         C            0.141359598697     1.000078126729    -0.324234659894    12.000000000000
         C            1.482107998697     0.307655826729    -0.114750159894    12.000000000000
         C            1.774168998697    -0.954938173271    -0.648857159894    12.000000000000
         C            2.493004998697     1.051838826729     0.504785840106    12.000000000000
         C            3.063257998697    -1.477800173271    -0.537275159894    12.000000000000
         C            3.775269998697     0.518248826729     0.629491840106    12.000000000000
         C            4.062987998697    -0.746821173271     0.109348840106    12.000000000000
         H           -2.083537001303     1.456122826729    -1.234343159894     1.007825032230
         H           -2.885145001303    -0.709381173271    -1.788429159894     1.007825032230
         H           -4.227013001303     0.122453826729    -1.000831159894     1.007825032230
         H           -3.972861001303    -2.253659173271    -0.208317159894     1.007825032230
         H           -3.769677001303    -1.115900173271     1.116217840106     1.007825032230
         H           -1.958608001303    -2.797137173271     1.228185840106     1.007825032230
         H           -1.509049001303    -2.464553173271    -0.450166159894     1.007825032230
         H           -1.351230001303    -0.505849173271     1.890455840106     1.007825032230
         H            0.018261998697    -1.258468173271     1.076574840106     1.007825032230
         H           -3.737759001303     2.134767826729     0.472949840106     1.007825032230
         H           -2.983784001303     1.072099826729     1.668856840106     1.007825032230
         H           -2.066898001303     2.434675826729     0.987524840106     1.007825032230
         H            0.996375998697    -1.511924173271    -1.167767159894     1.007825032230
         H            2.262067998697     2.047740826729     0.874543840106     1.007825032230
         H            3.290257998697    -2.452798173271    -0.962284159894     1.007825032230
         H            4.555349998697     1.093601826729     1.122428840106     1.007825032230
         H            5.065658998697    -1.157815173271     0.199631840106     1.007825032230

  Basis Set: AUG-CC-PVTZ
    Blend: AUG-CC-PVTZ
  Basis Set: (AUG-CC-PVTZ AUX)
    Blend: AUG-CC-PVTZ-JKFIT
	 Reference Energy          =    -631.7291418035265451 [Eh]
	 Singles Energy            =      -0.0000000000000000 [Eh]
	 Same-Spin Energy          =      -0.6874959734840806 [Eh]
	 Opposite-Spin Energy      =      -2.2094183873835891 [Eh]
	 Correlation Energy        =      -2.8969143608676697 [Eh]
	 Total Energy              =    -634.6260561643941855 [Eh]

	 ================> DF-SCS-MP2 Energies <==================
	-----------------------------------------------------------
	 SCS Same-Spin Scale       =       0.3333333333333333 [-]
	 SCS Opposite-Spin Scale   =       1.2000000000000000 [-]
	 SCS Same-Spin Energy      =      -0.2291653244946935 [Eh]
	 SCS Opposite-Spin Energy  =      -2.6513020648603067 [Eh]
	 SCS Correlation Energy    =      -2.8804673893550001 [Eh]
	 SCS Total Energy          =    -634.6096091928815213 [Eh]
	-----------------------------------------------------------

  Dipole Moment: [D]
     X:    -0.7179      Y:    -2.8101      Z:     1.3333     Total:     3.1921

*** Psi4 exiting successfully. Buy a developer a beer!
