                               Psi4 1.3.2 release

  ==> Input File <==

--------------------------------------------------------------------------
#psi4
#
memory 32 gb

molecule  {
0 1
  O        0.1371160     2.1442200    -0.7498900
  N       -0.9079200     0.2138270    -0.0832910
  C       -2.2101840     0.8219870    -0.4048790
  C       -3.1715160    -0.2856370    -0.8447810
  C       -3.2543810    -1.4343410     0.1597440
  C       -1.8582660    -1.9851710     0.4427670
  C       -0.9333470    -0.8668740     0.9054230
  C       -2.7330240     1.6830710     0.7442420
  C        0.2088310     0.9821600    -0.3252730
  C        1.3680501     0.4228169    -0.1586038
  C        1.8387470    -0.9259720    -0.6670270
  C        2.5575830     1.0808050     0.4866160
  C        3.1278360    -1.4488340    -0.5554450
  C        3.8398480     0.5472150     0.6113220
  C        4.1275660    -0.7178550     0.0911790
  H       -2.0189590     1.4850890    -1.2525130
  H       -2.8205670    -0.6804150    -1.8065990
  H       -4.1624350     0.1514200    -1.0190010
  H       -3.9082830    -2.2246930    -0.2264870
  H       -3.7050990    -1.0869340     1.0980480
  H       -1.8940300    -2.7681710     1.2100160
  H       -1.4444710    -2.4355870    -0.4683360
  H       -1.2866520    -0.4768830     1.8722860
  H        0.0828400    -1.2295020     1.0584050
  H       -3.6731810     2.1637340     0.4547800
  H       -2.9192060     1.1010660     1.6506870
  H       -2.0023200     2.4636420     0.9693550
  H        1.0609540    -1.4829580    -1.1859370
  H        2.3266460     2.0767070     0.8563740
  H        3.3548360    -2.4238320    -0.9804540
  H        4.6199280     1.1225680     1.1042590
  H        5.1302370    -1.1288490     0.1814620
units angstrom
no_reorient  #important for SAPT in psi4, default
symmetry c1  #important for SAPT in psi4, default
}

set PROPERTIES_ORIGIN ["COM"]
properties('MP2/aug-cc-pvtz', properties = ['dipole'])
--------------------------------------------------------------------------

    Molecular point group: c1
  Charge       = 0
  Multiplicity = 1
  Basis Set: AUG-CC-PVTZ
    Blend: AUG-CC-PVTZ
  Basis Set: (AUG-CC-PVTZ AUX)
    Blend: AUG-CC-PVTZ-JKFIT

    Orbital Energies [Eh]
    ---------------------

    Doubly Occupied:

       1A    -20.508594     2A    -15.575627     3A    -11.331978
       4A    -11.270007     5A    -11.264890     6A    -11.263088
       7A    -11.258050     8A    -11.255701     9A    -11.255559
      10A    -11.248954    11A    -11.246774    12A    -11.228210
      13A    -11.224933    14A    -11.221430    15A    -11.209140
      16A     -1.373068    17A     -1.245802    18A     -1.149975
      19A     -1.090226    20A     -1.056482    21A     -1.035366
      22A     -1.019585    23A     -0.958153    24A     -0.913560
      25A     -0.877729    26A     -0.837246    27A     -0.826926
      28A     -0.781835    29A     -0.736020    30A     -0.717970
      31A     -0.694909    32A     -0.658514    33A     -0.639422
      34A     -0.626608    35A     -0.623045    36A     -0.603044
      37A     -0.599533    38A     -0.588298    39A     -0.585952
      40A     -0.575734    41A     -0.563710    42A     -0.543639
      43A     -0.534678    44A     -0.519493    45A     -0.511921
      46A     -0.494553    47A     -0.490452    48A     -0.469064
      49A     -0.467788    50A     -0.459472    51A     -0.449281
      52A     -0.426819    53A     -0.366195    54A     -0.346109
      55A     -0.329442

  @DF-RHF Final Energy:  -631.66533793854410

   => Energetics <=

    Nuclear Repulsion Energy =            999.7832313393327013
    One-Electron Energy =               -2842.5960269320044063
    Two-Electron Energy =                1211.1474576541274928
    Total Energy =                       -631.6653379385440985
  Basis Set: (AUG-CC-PVTZ AUX)
    Blend: AUG-CC-PVTZ-RI
    Molecular point group: c1

    Geometry (in Angstrom), charge = 0, multiplicity = 1:

       Center              X                  Y                   Z               Mass
    ------------   -----------------  -----------------  -----------------  -----------------
         O            0.082920017458     2.112931546196    -0.731214931284    15.994914619570
         N           -0.962115982542     0.182538546196    -0.064615931284    14.003074004430
         C           -2.264379982542     0.790698546196    -0.386203931284    12.000000000000
         C           -3.225711982542    -0.316925453804    -0.826105931284    12.000000000000
         C           -3.308576982542    -1.465629453804     0.178419068716    12.000000000000
         C           -1.912461982542    -2.016459453804     0.461442068716    12.000000000000
         C           -0.987542982542    -0.898162453804     0.924098068716    12.000000000000
         C           -2.787219982542     1.651782546196     0.762917068716    12.000000000000
         C            0.154635017458     0.950871546196    -0.306597931284    12.000000000000
         C            1.313854117458     0.391528446196    -0.139928731284    12.000000000000
         C            1.784551017458    -0.957260453804    -0.648351931284    12.000000000000
         C            2.503387017458     1.049516546196     0.505291068716    12.000000000000
         C            3.073640017458    -1.480122453804    -0.536769931284    12.000000000000
         C            3.785652017458     0.515926546196     0.629997068716    12.000000000000
         C            4.073370017458    -0.749143453804     0.109854068716    12.000000000000
         H           -2.073154982542     1.453800546196    -1.233837931284     1.007825032230
         H           -2.874762982542    -0.711703453804    -1.787923931284     1.007825032230
         H           -4.216630982542     0.120131546196    -1.000325931284     1.007825032230
         H           -3.962478982542    -2.255981453804    -0.207811931284     1.007825032230
         H           -3.759294982542    -1.118222453804     1.116723068716     1.007825032230
         H           -1.948225982542    -2.799459453804     1.228691068716     1.007825032230
         H           -1.498666982542    -2.466875453804    -0.449660931284     1.007825032230
         H           -1.340847982542    -0.508171453804     1.890961068716     1.007825032230
         H            0.028644017458    -1.260790453804     1.077080068716     1.007825032230
         H           -3.727376982542     2.132445546196     0.473455068716     1.007825032230
         H           -2.973401982542     1.069777546196     1.669362068716     1.007825032230
         H           -2.056515982542     2.432353546196     0.988030068716     1.007825032230
         H            1.006758017458    -1.514246453804    -1.167261931284     1.007825032230
         H            2.272450017458     2.045418546196     0.875049068716     1.007825032230
         H            3.300640017458    -2.455120453804    -0.961778931284     1.007825032230
         H            4.565732017458     1.091279546196     1.122934068716     1.007825032230
         H            5.076041017458    -1.160137453804     0.200137068716     1.007825032230

  Basis Set: AUG-CC-PVTZ
    Blend: AUG-CC-PVTZ
  Basis Set: (AUG-CC-PVTZ AUX)
    Blend: AUG-CC-PVTZ-JKFIT
	 Reference Energy          =    -631.6653379385440985 [Eh]
	 Singles Energy            =      -0.0000000000000000 [Eh]
	 Same-Spin Energy          =      -0.6931098895790039 [Eh]
	 Opposite-Spin Energy      =      -2.2195788088916504 [Eh]
	 Correlation Energy        =      -2.9126886984706544 [Eh]
	 Total Energy              =    -634.5780266370147729 [Eh]

	 ================> DF-SCS-MP2 Energies <==================
	-----------------------------------------------------------
	 SCS Same-Spin Scale       =       0.3333333333333333 [-]
	 SCS Opposite-Spin Scale   =       1.2000000000000000 [-]
	 SCS Same-Spin Energy      =      -0.2310366298596679 [Eh]
	 SCS Opposite-Spin Energy  =      -2.6634945706699802 [Eh]
	 SCS Correlation Energy    =      -2.8945312005296482 [Eh]
	 SCS Total Energy          =    -634.5598691390737258 [Eh]
	-----------------------------------------------------------

  Dipole Moment: [D]
     X:    -0.5580      Y:    -3.2458      Z:     1.4890     Total:     3.6144

*** Psi4 exiting successfully. Buy a developer a beer!
