                               Psi4 1.3.2 release

  ==> Input File <==

--------------------------------------------------------------------------
#psi4
#
memory 32 gb

molecule  {
0 1
  O        0.1371160     2.1442200    -0.7498900
  N       -0.9079200     0.2138270    -0.0832910
  C       -2.0333433     0.7394020    -0.3612090
  C       -3.1715160    -0.2856370    -0.8447810
  C       -3.2543810    -1.4343410     0.1597440
  C       -1.8582660    -1.9851710     0.4427670
  C       -0.9333470    -0.8668740     0.9054230
  C       -2.7330240     1.6830710     0.7442420
  C        0.2088310     0.9821600    -0.3252730
  C        1.5466860     0.3366220    -0.1329200
  C        1.8387470    -0.9259720    -0.6670270
  C        2.5575830     1.0808050     0.4866160
  C        3.1278360    -1.4488340    -0.5554450
  C        3.8398480     0.5472150     0.6113220
  C        4.1275660    -0.7178550     0.0911790
  H       -2.0189590     1.4850890    -1.2525130
  H       -2.8205670    -0.6804150    -1.8065990
  H       -4.1624350     0.1514200    -1.0190010
  H       -3.9082830    -2.2246930    -0.2264870
  H       -3.7050990    -1.0869340     1.0980480
  H       -1.8940300    -2.7681710     1.2100160
  H       -1.4444710    -2.4355870    -0.4683360
  H       -1.2866520    -0.4768830     1.8722860
  H        0.0828400    -1.2295020     1.0584050
  H       -3.6731810     2.1637340     0.4547800
  H       -2.9192060     1.1010660     1.6506870
  H       -2.0023200     2.4636420     0.9693550
  H        1.0609540    -1.4829580    -1.1859370
  H        2.3266460     2.0767070     0.8563740
  H        3.3548360    -2.4238320    -0.9804540
  H        4.6199280     1.1225680     1.1042590
  H        5.1302370    -1.1288490     0.1814620
units angstrom
no_reorient  #important for SAPT in psi4, default
symmetry c1  #important for SAPT in psi4, default
}

set PROPERTIES_ORIGIN ["COM"]
properties('MP2/aug-cc-pvtz', properties = ['dipole'])
--------------------------------------------------------------------------

    Molecular point group: c1
  Charge       = 0
  Multiplicity = 1
  Basis Set: AUG-CC-PVTZ
    Blend: AUG-CC-PVTZ
  Basis Set: (AUG-CC-PVTZ AUX)
    Blend: AUG-CC-PVTZ-JKFIT

    Orbital Energies [Eh]
    ---------------------

    Doubly Occupied:

       1A    -20.523293     2A    -15.584172     3A    -11.356286
       4A    -11.270866     5A    -11.254753     6A    -11.254625
       7A    -11.253333     8A    -11.250773     9A    -11.249005
      10A    -11.248333    11A    -11.246228    12A    -11.231550
      13A    -11.222342    14A    -11.220456    15A    -11.204862
      16A     -1.385338    17A     -1.292466    18A     -1.164931
      19A     -1.084262    20A     -1.053415    21A     -1.027471
      22A     -1.024489    23A     -0.950630    24A     -0.901992
      25A     -0.881430    26A     -0.841765    27A     -0.832750
      28A     -0.800261    29A     -0.731421    30A     -0.722955
      31A     -0.685947    32A     -0.659884    33A     -0.638808
      34A     -0.633005    35A     -0.627800    36A     -0.615076
      37A     -0.603941    38A     -0.598776    39A     -0.595092
      40A     -0.575887    41A     -0.557040    42A     -0.542056
      43A     -0.531609    44A     -0.521440    45A     -0.508738
      46A     -0.505923    47A     -0.495049    48A     -0.487257
      49A     -0.471473    50A     -0.459172    51A     -0.431369
      52A     -0.421017    53A     -0.353139    54A     -0.347812
      55A     -0.344451

  @DF-RHF Final Energy:  -631.68239895695297

   => Energetics <=

    Nuclear Repulsion Energy =           1002.2733668402622698
    One-Electron Energy =               -2847.3551064572266114
    Two-Electron Energy =                1213.3993406600113758
    Total Energy =                       -631.6823989569529658
  Basis Set: (AUG-CC-PVTZ AUX)
    Blend: AUG-CC-PVTZ-RI
    Molecular point group: c1

    Geometry (in Angstrom), charge = 0, multiplicity = 1:

       Center              X                  Y                   Z               Mass
    ------------   -----------------  -----------------  -----------------  -----------------
         O            0.061920175472     2.122902248150    -0.735312019084    15.994914619570
         N           -0.983115824528     0.192509248150    -0.068713019084    14.003074004430
         C           -2.108539124528     0.718084248150    -0.346631019084    12.000000000000
         C           -3.246711824528    -0.306954751850    -0.830203019084    12.000000000000
         C           -3.329576824528    -1.455658751850     0.174321980916    12.000000000000
         C           -1.933461824528    -2.006488751850     0.457344980916    12.000000000000
         C           -1.008542824528    -0.888191751850     0.920000980916    12.000000000000
         C           -2.808219824528     1.661753248150     0.758819980916    12.000000000000
         C            0.133635175472     0.960842248150    -0.310695019084    12.000000000000
         C            1.471490175472     0.315304248150    -0.118342019084    12.000000000000
         C            1.763551175472    -0.947289751850    -0.652449019084    12.000000000000
         C            2.482387175472     1.059487248150     0.501193980916    12.000000000000
         C            3.052640175472    -1.470151751850    -0.540867019084    12.000000000000
         C            3.764652175472     0.525897248150     0.625899980916    12.000000000000
         C            4.052370175472    -0.739172751850     0.105756980916    12.000000000000
         H           -2.094154824528     1.463771248150    -1.237935019084     1.007825032230
         H           -2.895762824528    -0.701732751850    -1.792021019084     1.007825032230
         H           -4.237630824528     0.130102248150    -1.004423019084     1.007825032230
         H           -3.983478824528    -2.246010751850    -0.211909019084     1.007825032230
         H           -3.780294824528    -1.108251751850     1.112625980916     1.007825032230
         H           -1.969225824528    -2.789488751850     1.224593980916     1.007825032230
         H           -1.519666824528    -2.456904751850    -0.453758019084     1.007825032230
         H           -1.361847824528    -0.498200751850     1.886863980916     1.007825032230
         H            0.007644175472    -1.250819751850     1.072982980916     1.007825032230
         H           -3.748376824528     2.142416248150     0.469357980916     1.007825032230
         H           -2.994401824528     1.079748248150     1.665264980916     1.007825032230
         H           -2.077515824528     2.442324248150     0.983932980916     1.007825032230
         H            0.985758175472    -1.504275751850    -1.171359019084     1.007825032230
         H            2.251450175472     2.055389248150     0.870951980916     1.007825032230
         H            3.279640175472    -2.445149751850    -0.965876019084     1.007825032230
         H            4.544732175472     1.101250248150     1.118836980916     1.007825032230
         H            5.055041175472    -1.150166751850     0.196039980916     1.007825032230

  Basis Set: AUG-CC-PVTZ
    Blend: AUG-CC-PVTZ
  Basis Set: (AUG-CC-PVTZ AUX)
    Blend: AUG-CC-PVTZ-JKFIT
	 Reference Energy          =    -631.6823989569529658 [Eh]
	 Singles Energy            =      -0.0000000000000000 [Eh]
	 Same-Spin Energy          =      -0.6911956805962189 [Eh]
	 Opposite-Spin Energy      =      -2.2148589377836072 [Eh]
	 Correlation Energy        =      -2.9060546183798261 [Eh]
	 Total Energy              =    -634.5884535753327782 [Eh]

	 ================> DF-SCS-MP2 Energies <==================
	-----------------------------------------------------------
	 SCS Same-Spin Scale       =       0.3333333333333333 [-]
	 SCS Opposite-Spin Scale   =       1.2000000000000000 [-]
	 SCS Same-Spin Energy      =      -0.2303985601987396 [Eh]
	 SCS Opposite-Spin Energy  =      -2.6578307253403284 [Eh]
	 SCS Correlation Energy    =      -2.8882292855390679 [Eh]
	 SCS Total Energy          =    -634.5706282424920346 [Eh]
	-----------------------------------------------------------

  Dipole Moment: [D]
     X:    -0.1585      Y:    -3.2860      Z:     1.4527     Total:     3.5963

*** Psi4 exiting successfully. Buy a developer a beer!
