                               Psi4 1.4a3.dev225

  ==> Input File <==

--------------------------------------------------------------------------
#psi4
#
memory 32 gb

molecule  {
0 1
  O        0.1371160     2.1442200    -0.7498900
  N       -0.9079200     0.2138270    -0.0832910
  C       -2.2101840     0.8219870    -0.4048790
  C       -3.1715160    -0.2856370    -0.8447810
  C       -3.2543810    -1.4343410     0.1597440
  C       -1.8582660    -1.9851710     0.4427670
  C       -0.9333470    -0.8668740     0.9054230
  C       -2.7330240     1.6830710     0.7442420
  C        0.2250515     0.9933198    -0.3287877
  C        1.5466860     0.3366220    -0.1329200
  C        1.8387470    -0.9259720    -0.6670270
  C        2.5575830     1.0808050     0.4866160
  C        3.1278360    -1.4488340    -0.5554450
  C        3.8398480     0.5472150     0.6113220
  C        4.1275660    -0.7178550     0.0911790
  H       -2.0189590     1.4850890    -1.2525130
  H       -2.8205670    -0.6804150    -1.8065990
  H       -4.1624350     0.1514200    -1.0190010
  H       -3.9082830    -2.2246930    -0.2264870
  H       -3.7050990    -1.0869340     1.0980480
  H       -1.8940300    -2.7681710     1.2100160
  H       -1.4444710    -2.4355870    -0.4683360
  H       -1.2866520    -0.4768830     1.8722860
  H        0.0828400    -1.2295020     1.0584050
  H       -3.6731810     2.1637340     0.4547800
  H       -2.9192060     1.1010660     1.6506870
  H       -2.0023200     2.4636420     0.9693550
  H        1.0609540    -1.4829580    -1.1859370
  H        2.3266460     2.0767070     0.8563740
  H        3.3548360    -2.4238320    -0.9804540
  H        4.6199280     1.1225680     1.1042590
  H        5.1302370    -1.1288490     0.1814620
units angstrom
no_reorient  #important for SAPT in psi4, default
symmetry c1  #important for SAPT in psi4, default
}

set PROPERTIES_ORIGIN ["COM"]
properties('MP2/aug-cc-pvtz', properties = ['dipole'])
--------------------------------------------------------------------------

    Molecular point group: c1
  Charge       = 0
  Multiplicity = 1
  Basis Set: AUG-CC-PVTZ
    Blend: AUG-CC-PVTZ
  Basis Set: (AUG-CC-PVTZ AUX)
    Blend: AUG-CC-PVTZ-JKFIT

    Orbital Energies [Eh]
    ---------------------

    Doubly Occupied:

       1A    -20.517878     2A    -15.575700     3A    -11.349724
       4A    -11.262971     5A    -11.256034     6A    -11.251290
       7A    -11.249971     8A    -11.248512     9A    -11.246415
      10A    -11.245894    11A    -11.243856    12A    -11.228102
      13A    -11.225081    14A    -11.221706    15A    -11.209635
      16A     -1.375069    17A     -1.242233    18A     -1.161982
      19A     -1.082150    20A     -1.051210    21A     -1.031907
      22A     -1.023874    23A     -0.956725    24A     -0.895494
      25A     -0.865091    26A     -0.838202    27A     -0.832677
      28A     -0.784940    29A     -0.729144    30A     -0.716508
      31A     -0.683095    32A     -0.654464    33A     -0.638603
      34A     -0.627850    35A     -0.626253    36A     -0.605137
      37A     -0.599521    38A     -0.594382    39A     -0.585760
      40A     -0.576963    41A     -0.563637    42A     -0.543275
      43A     -0.526403    44A     -0.518847    45A     -0.508668
      46A     -0.503414    47A     -0.494157    48A     -0.492445
      49A     -0.469305    50A     -0.461474    51A     -0.449877
      52A     -0.422682    53A     -0.365737    54A     -0.345249
      55A     -0.343113

  @DF-RHF Final Energy:  -631.72902416692750

   => Energetics <=

    Nuclear Repulsion Energy =            998.5356084364136677
    One-Electron Energy =               -2840.2886858199603921
    Two-Electron Energy =                1210.0240532166192224
    Total Energy =                       -631.7290241669275019
  Basis Set: (AUG-CC-PVTZ AUX)
    Blend: AUG-CC-PVTZ-RI
    Molecular point group: c1

    Geometry (in Angstrom), charge = 0, multiplicity = 1:

       Center              X                  Y                   Z               Mass
    ------------   -----------------  -----------------  -----------------  -----------------
         O            0.071408841729     2.117364257782    -0.732524574723    15.994914619570
         N           -0.973627158271     0.186971257782    -0.065925574723    14.003074004430
         C           -2.275891158271     0.795131257782    -0.387513574723    12.000000000000
         C           -3.237223158271    -0.312492742218    -0.827415574723    12.000000000000
         C           -3.320088158271    -1.461196742218     0.177109425277    12.000000000000
         C           -1.923973158271    -2.012026742218     0.460132425277    12.000000000000
         C           -0.999054158271    -0.893729742218     0.922788425277    12.000000000000
         C           -2.798731158271     1.656215257782     0.761607425277    12.000000000000
         C            0.159344341729     0.966464057782    -0.311422274723    12.000000000000
         C            1.480978841729     0.309766257782    -0.115554574723    12.000000000000
         C            1.773039841729    -0.952827742218    -0.649661574723    12.000000000000
         C            2.491875841729     1.053949257782     0.503981425277    12.000000000000
         C            3.062128841729    -1.475689742218    -0.538079574723    12.000000000000
         C            3.774140841729     0.520359257782     0.628687425277    12.000000000000
         C            4.061858841729    -0.744710742218     0.108544425277    12.000000000000
         H           -2.084666158271     1.458233257782    -1.235147574723     1.007825032230
         H           -2.886274158271    -0.707270742218    -1.789233574723     1.007825032230
         H           -4.228142158271     0.124564257782    -1.001635574723     1.007825032230
         H           -3.973990158271    -2.251548742218    -0.209121574723     1.007825032230
         H           -3.770806158271    -1.113789742218     1.115413425277     1.007825032230
         H           -1.959737158271    -2.795026742218     1.227381425277     1.007825032230
         H           -1.510178158271    -2.462442742218    -0.450970574723     1.007825032230
         H           -1.352359158271    -0.503738742218     1.889651425277     1.007825032230
         H            0.017132841729    -1.256357742218     1.075770425277     1.007825032230
         H           -3.738888158271     2.136878257782     0.472145425277     1.007825032230
         H           -2.984913158271     1.074210257782     1.668052425277     1.007825032230
         H           -2.068027158271     2.436786257782     0.986720425277     1.007825032230
         H            0.995246841729    -1.509813742218    -1.168571574723     1.007825032230
         H            2.260938841729     2.049851257782     0.873739425277     1.007825032230
         H            3.289128841729    -2.450687742218    -0.963088574723     1.007825032230
         H            4.554220841729     1.095712257782     1.121624425277     1.007825032230
         H            5.064529841729    -1.155704742218     0.198827425277     1.007825032230

  Basis Set: AUG-CC-PVTZ
    Blend: AUG-CC-PVTZ
  Basis Set: (AUG-CC-PVTZ AUX)
    Blend: AUG-CC-PVTZ-JKFIT
	 Reference Energy          =    -631.7290241669275019 [Eh]
	 Singles Energy            =      -0.0000000000000000 [Eh]
	 Same-Spin Energy          =      -0.6885299722445295 [Eh]
	 Opposite-Spin Energy      =      -2.2114146764628186 [Eh]
	 Correlation Energy        =      -2.8999446487073479 [Eh]
	 Total Energy              =    -634.6289688156348348 [Eh]

	 ================> DF-SCS-MP2 Energies <==================
	-----------------------------------------------------------
	 SCS Same-Spin Scale       =       0.3333333333333333 [-]
	 SCS Opposite-Spin Scale   =       1.2000000000000000 [-]
	 SCS Same-Spin Energy      =      -0.2295099907481765 [Eh]
	 SCS Opposite-Spin Energy  =      -2.6536976117553821 [Eh]
	 SCS Correlation Energy    =      -2.8832076025035587 [Eh]
	 SCS Total Energy          =    -634.6122317694311050 [Eh]
	-----------------------------------------------------------

  Dipole Moment: [D]
     X:    -0.6458      Y:    -3.0386      Z:     1.4155     Total:     3.4137

*** Psi4 exiting successfully. Buy a developer a beer!
