                               Psi4 1.3.2 release

  ==> Input File <==

--------------------------------------------------------------------------
#psi4
#
memory 32 gb

molecule  {
0 1
  O        0.1371160     2.1442200    -0.7498900
  N       -0.9127171     0.1491418    -0.2231433
  C       -2.2101840     0.8219870    -0.4048790
  C       -3.1715160    -0.2856370    -0.8447810
  C       -3.2543810    -1.4343410     0.1597440
  C       -1.8582660    -1.9851710     0.4427670
  C       -0.9333470    -0.8668740     0.9054230
  C       -2.7330240     1.6830710     0.7442420
  C        0.2088310     0.9821600    -0.3252730
  C        1.5466860     0.3366220    -0.1329200
  C        1.8387470    -0.9259720    -0.6670270
  C        2.5575830     1.0808050     0.4866160
  C        3.1278360    -1.4488340    -0.5554450
  C        3.8398480     0.5472150     0.6113220
  C        4.1275660    -0.7178550     0.0911790
  H       -2.0189590     1.4850890    -1.2525130
  H       -2.8205670    -0.6804150    -1.8065990
  H       -4.1624350     0.1514200    -1.0190010
  H       -3.9082830    -2.2246930    -0.2264870
  H       -3.7050990    -1.0869340     1.0980480
  H       -1.8940300    -2.7681710     1.2100160
  H       -1.4444710    -2.4355870    -0.4683360
  H       -1.2866520    -0.4768830     1.8722860
  H        0.0828400    -1.2295020     1.0584050
  H       -3.6731810     2.1637340     0.4547800
  H       -2.9192060     1.1010660     1.6506870
  H       -2.0023200     2.4636420     0.9693550
  H        1.0609540    -1.4829580    -1.1859370
  H        2.3266460     2.0767070     0.8563740
  H        3.3548360    -2.4238320    -0.9804540
  H        4.6199280     1.1225680     1.1042590
  H        5.1302370    -1.1288490     0.1814620
units angstrom
no_reorient  #important for SAPT in psi4, default
symmetry c1  #important for SAPT in psi4, default
}

set PROPERTIES_ORIGIN ["COM"]
properties('MP2/aug-cc-pvtz', properties = ['dipole'])
--------------------------------------------------------------------------

    Molecular point group: c1
  Charge       = 0
  Multiplicity = 1
  Basis Set: AUG-CC-PVTZ
    Blend: AUG-CC-PVTZ
  Basis Set: (AUG-CC-PVTZ AUX)
    Blend: AUG-CC-PVTZ-JKFIT

    Orbital Energies [Eh]
    ---------------------

    Doubly Occupied:

       1A    -20.523027     2A    -15.581104     3A    -11.351686
       4A    -11.266645     5A    -11.254673     6A    -11.251309
       7A    -11.249740     8A    -11.248186     9A    -11.246310
      10A    -11.245381    11A    -11.243617    12A    -11.227025
      13A    -11.224061    14A    -11.218851    15A    -11.213468
      16A     -1.371274    17A     -1.237819    18A     -1.161364
      19A     -1.080735    20A     -1.050213    21A     -1.029563
      22A     -1.023276    23A     -0.958542    24A     -0.894423
      25A     -0.863247    26A     -0.837651    27A     -0.828123
      28A     -0.780371    29A     -0.730547    30A     -0.716589
      31A     -0.682524    32A     -0.651876    33A     -0.637966
      34A     -0.627440    35A     -0.624512    36A     -0.602548
      37A     -0.599828    38A     -0.593305    39A     -0.585684
      40A     -0.570939    41A     -0.561308    42A     -0.544421
      43A     -0.526644    44A     -0.518137    45A     -0.507635
      46A     -0.502083    47A     -0.495107    48A     -0.492162
      49A     -0.466576    50A     -0.459453    51A     -0.444508
      52A     -0.425665    53A     -0.378589    54A     -0.344843
      55A     -0.342550

  @DF-RHF Final Energy:  -631.71955955343674

   => Energetics <=

    Nuclear Repulsion Energy =            997.7591480552785015
    One-Electron Energy =               -2838.7671680236371685
    Two-Electron Energy =                1209.2884604149219285
    Total Energy =                       -631.7195595534367385
  Basis Set: (AUG-CC-PVTZ AUX)
    Blend: AUG-CC-PVTZ-RI
    Molecular point group: c1

    Geometry (in Angstrom), charge = 0, multiplicity = 1:

       Center              X                  Y                   Z               Mass
    ------------   -----------------  -----------------  -----------------  -----------------
         O            0.072697764287     2.122482674813    -0.723091324393    15.994914619570
         N           -0.977135335713     0.127404474813    -0.196344624393    14.003074004430
         C           -2.274602235713     0.800249674813    -0.378080324393    12.000000000000
         C           -3.235934235713    -0.307374325187    -0.817982324393    12.000000000000
         C           -3.318799235713    -1.456078325187     0.186542675607    12.000000000000
         C           -1.922684235713    -2.006908325187     0.469565675607    12.000000000000
         C           -0.997765235713    -0.888611325187     0.932221675607    12.000000000000
         C           -2.797442235713     1.661333674813     0.771040675607    12.000000000000
         C            0.144412764287     0.960422674813    -0.298474324393    12.000000000000
         C            1.482267764287     0.314884674813    -0.106121324393    12.000000000000
         C            1.774328764287    -0.947709325187    -0.640228324393    12.000000000000
         C            2.493164764287     1.059067674813     0.513414675607    12.000000000000
         C            3.063417764287    -1.470571325187    -0.528646324393    12.000000000000
         C            3.775429764287     0.525477674813     0.638120675607    12.000000000000
         C            4.063147764287    -0.739592325187     0.117977675607    12.000000000000
         H           -2.083377235713     1.463351674813    -1.225714324393     1.007825032230
         H           -2.884985235713    -0.702152325187    -1.779800324393     1.007825032230
         H           -4.226853235713     0.129682674813    -0.992202324393     1.007825032230
         H           -3.972701235713    -2.246430325187    -0.199688324393     1.007825032230
         H           -3.769517235713    -1.108671325187     1.124846675607     1.007825032230
         H           -1.958448235713    -2.789908325187     1.236814675607     1.007825032230
         H           -1.508889235713    -2.457324325187    -0.441537324393     1.007825032230
         H           -1.351070235713    -0.498620325187     1.899084675607     1.007825032230
         H            0.018421764287    -1.251239325187     1.085203675607     1.007825032230
         H           -3.737599235713     2.141996674813     0.481578675607     1.007825032230
         H           -2.983624235713     1.079328674813     1.677485675607     1.007825032230
         H           -2.066738235713     2.441904674813     0.996153675607     1.007825032230
         H            0.996535764287    -1.504695325187    -1.159138324393     1.007825032230
         H            2.262227764287     2.054969674813     0.883172675607     1.007825032230
         H            3.290417764287    -2.445569325187    -0.953655324393     1.007825032230
         H            4.555509764287     1.100830674813     1.131057675607     1.007825032230
         H            5.065818764287    -1.150586325187     0.208260675607     1.007825032230

  Basis Set: AUG-CC-PVTZ
    Blend: AUG-CC-PVTZ
  Basis Set: (AUG-CC-PVTZ AUX)
    Blend: AUG-CC-PVTZ-JKFIT
	 Reference Energy          =    -631.7195595534367385 [Eh]
	 Singles Energy            =      -0.0000000000000000 [Eh]
	 Same-Spin Energy          =      -0.6888878264193472 [Eh]
	 Opposite-Spin Energy      =      -2.2132609797926599 [Eh]
	 Correlation Energy        =      -2.9021488062120069 [Eh]
	 Total Energy              =    -634.6217083596487782 [Eh]

	 ================> DF-SCS-MP2 Energies <==================
	-----------------------------------------------------------
	 SCS Same-Spin Scale       =       0.3333333333333333 [-]
	 SCS Opposite-Spin Scale   =       1.2000000000000000 [-]
	 SCS Same-Spin Energy      =      -0.2296292754731157 [Eh]
	 SCS Opposite-Spin Energy  =      -2.6559131757511918 [Eh]
	 SCS Correlation Energy    =      -2.8855424512243077 [Eh]
	 SCS Total Energy          =    -634.6051020046610347 [Eh]
	-----------------------------------------------------------

  Dipole Moment: [D]
     X:    -0.5898      Y:    -2.8295      Z:     1.5922     Total:     3.2998

*** Psi4 exiting successfully. Buy a developer a beer!
