                               Psi4 1.3.2 release

  ==> Input File <==

--------------------------------------------------------------------------
#psi4
#
memory 32 gb

molecule  {
0 1
  O        0.1371160     2.1442200    -0.7498900
  N       -0.9079200     0.2138270    -0.0832910
  C       -2.2101840     0.8219870    -0.4048790
  C       -3.1715160    -0.2856370    -0.8447810
  C       -3.2543810    -1.4343410     0.1597440
  C       -1.8582660    -1.9851710     0.4427670
  C       -0.9333470    -0.8668740     0.9054230
  C       -2.7330240     1.6830710     0.7442420
  C        0.2204046     0.7946228    -0.2567468
  C        1.5466860     0.3366220    -0.1329200
  C        1.8387470    -0.9259720    -0.6670270
  C        2.5575830     1.0808050     0.4866160
  C        3.1278360    -1.4488340    -0.5554450
  C        3.8398480     0.5472150     0.6113220
  C        4.1275660    -0.7178550     0.0911790
  H       -2.0189590     1.4850890    -1.2525130
  H       -2.8205670    -0.6804150    -1.8065990
  H       -4.1624350     0.1514200    -1.0190010
  H       -3.9082830    -2.2246930    -0.2264870
  H       -3.7050990    -1.0869340     1.0980480
  H       -1.8940300    -2.7681710     1.2100160
  H       -1.4444710    -2.4355870    -0.4683360
  H       -1.2866520    -0.4768830     1.8722860
  H        0.0828400    -1.2295020     1.0584050
  H       -3.6731810     2.1637340     0.4547800
  H       -2.9192060     1.1010660     1.6506870
  H       -2.0023200     2.4636420     0.9693550
  H        1.0609540    -1.4829580    -1.1859370
  H        2.3266460     2.0767070     0.8563740
  H        3.3548360    -2.4238320    -0.9804540
  H        4.6199280     1.1225680     1.1042590
  H        5.1302370    -1.1288490     0.1814620
units angstrom
no_reorient  #important for SAPT in psi4, default
symmetry c1  #important for SAPT in psi4, default
}

set PROPERTIES_ORIGIN ["COM"]
properties('MP2/aug-cc-pvtz', properties = ['dipole'])
--------------------------------------------------------------------------

    Molecular point group: c1
  Charge       = 0
  Multiplicity = 1
  Basis Set: AUG-CC-PVTZ
    Blend: AUG-CC-PVTZ
  Basis Set: (AUG-CC-PVTZ AUX)
    Blend: AUG-CC-PVTZ-JKFIT

    Orbital Energies [Eh]
    ---------------------

    Doubly Occupied:

       1A    -20.472709     2A    -15.605516     3A    -11.343723
       4A    -11.274167     5A    -11.268022     6A    -11.253848
       7A    -11.252534     8A    -11.251193     9A    -11.249989
      10A    -11.247386    11A    -11.245607    12A    -11.236664
      13A    -11.232526    14A    -11.230195    15A    -11.214970
      16A     -1.330129    17A     -1.203276    18A     -1.163119
      19A     -1.098572    20A     -1.063252    21A     -1.041086
      22A     -1.025981    23A     -0.971071    24A     -0.910228
      25A     -0.881294    26A     -0.846541    27A     -0.839942
      28A     -0.801338    29A     -0.740120    30A     -0.726253
      31A     -0.683705    32A     -0.662106    33A     -0.646101
      34A     -0.635780    35A     -0.622059    36A     -0.613981
      37A     -0.599728    38A     -0.594791    39A     -0.593746
      40A     -0.573580    41A     -0.555536    42A     -0.529368
      43A     -0.528609    44A     -0.517940    45A     -0.512530
      46A     -0.501837    47A     -0.491900    48A     -0.481830
      49A     -0.468508    50A     -0.456031    51A     -0.451815
      52A     -0.390325    53A     -0.358307    54A     -0.346928
      55A     -0.335744

  @DF-RHF Final Energy:  -631.66666328523343

   => Energetics <=

    Nuclear Repulsion Energy =            999.7162142312454307
    One-Electron Energy =               -2842.4176838694925209
    Two-Electron Energy =                1211.0348063530136642
    Total Energy =                       -631.6666632852334260
  Basis Set: (AUG-CC-PVTZ AUX)
    Blend: AUG-CC-PVTZ-RI
    Molecular point group: c1

    Geometry (in Angstrom), charge = 0, multiplicity = 1:

       Center              X                  Y                   Z               Mass
    ------------   -----------------  -----------------  -----------------  -----------------
         O            0.071683358155     2.129102317623    -0.736780403423    15.994914619570
         N           -0.973352641845     0.198709317623    -0.070181403423    14.003074004430
         C           -2.275616641845     0.806869317623    -0.391769403423    12.000000000000
         C           -3.236948641845    -0.300754682377    -0.831671403423    12.000000000000
         C           -3.319813641845    -1.449458682377     0.172853596577    12.000000000000
         C           -1.923698641845    -2.000288682377     0.455876596577    12.000000000000
         C           -0.998779641845    -0.881991682377     0.918532596577    12.000000000000
         C           -2.798456641845     1.667953317623     0.757351596577    12.000000000000
         C            0.154971958155     0.779505117623    -0.243637203423    12.000000000000
         C            1.481253358155     0.321504317623    -0.119810403423    12.000000000000
         C            1.773314358155    -0.941089682377    -0.653917403423    12.000000000000
         C            2.492150358155     1.065687317623     0.499725596577    12.000000000000
         C            3.062403358155    -1.463951682377    -0.542335403423    12.000000000000
         C            3.774415358155     0.532097317623     0.624431596577    12.000000000000
         C            4.062133358155    -0.732972682377     0.104288596577    12.000000000000
         H           -2.084391641845     1.469971317623    -1.239403403423     1.007825032230
         H           -2.885999641845    -0.695532682377    -1.793489403423     1.007825032230
         H           -4.227867641845     0.136302317623    -1.005891403423     1.007825032230
         H           -3.973715641845    -2.239810682377    -0.213377403423     1.007825032230
         H           -3.770531641845    -1.102051682377     1.111157596577     1.007825032230
         H           -1.959462641845    -2.783288682377     1.223125596577     1.007825032230
         H           -1.509903641845    -2.450704682377    -0.455226403423     1.007825032230
         H           -1.352084641845    -0.492000682377     1.885395596577     1.007825032230
         H            0.017407358155    -1.244619682377     1.071514596577     1.007825032230
         H           -3.738613641845     2.148616317623     0.467889596577     1.007825032230
         H           -2.984638641845     1.085948317623     1.663796596577     1.007825032230
         H           -2.067752641845     2.448524317623     0.982464596577     1.007825032230
         H            0.995521358155    -1.498075682377    -1.172827403423     1.007825032230
         H            2.261213358155     2.061589317623     0.869483596577     1.007825032230
         H            3.289403358155    -2.438949682377    -0.967344403423     1.007825032230
         H            4.554495358155     1.107450317623     1.117368596577     1.007825032230
         H            5.064804358155    -1.143966682377     0.194571596577     1.007825032230

  Basis Set: AUG-CC-PVTZ
    Blend: AUG-CC-PVTZ
  Basis Set: (AUG-CC-PVTZ AUX)
    Blend: AUG-CC-PVTZ-JKFIT
	 Reference Energy          =    -631.6666632852334260 [Eh]
	 Singles Energy            =      -0.0000000000000000 [Eh]
	 Same-Spin Energy          =      -0.6935467689551033 [Eh]
	 Opposite-Spin Energy      =      -2.2212163794833675 [Eh]
	 Correlation Energy        =      -2.9147631484384706 [Eh]
	 Total Energy              =    -634.5814264336719361 [Eh]

	 ================> DF-SCS-MP2 Energies <==================
	-----------------------------------------------------------
	 SCS Same-Spin Scale       =       0.3333333333333333 [-]
	 SCS Opposite-Spin Scale   =       1.2000000000000000 [-]
	 SCS Same-Spin Energy      =      -0.2311822563183678 [Eh]
	 SCS Opposite-Spin Energy  =      -2.6654596553800407 [Eh]
	 SCS Correlation Energy    =      -2.8966419116984086 [Eh]
	 SCS Total Energy          =    -634.5633051969318785 [Eh]
	-----------------------------------------------------------

  Dipole Moment: [D]
     X:    -1.3144      Y:    -4.1979      Z:     1.9107     Total:     4.7959

*** Psi4 exiting successfully. Buy a developer a beer!
