                               Psi4 1.3.2 release

  ==> Input File <==

--------------------------------------------------------------------------
#psi4
#
memory 32 gb

molecule  {
0 1
  O        0.1371160     2.1442200    -0.7498900
  N       -0.9079200     0.2138270    -0.0832910
  C       -2.2525958     0.8364812    -0.4337991
  C       -3.1715160    -0.2856370    -0.8447810
  C       -3.2543810    -1.4343410     0.1597440
  C       -1.8582660    -1.9851710     0.4427670
  C       -0.9333470    -0.8668740     0.9054230
  C       -2.7330240     1.6830710     0.7442420
  C        0.2088310     0.9821600    -0.3252730
  C        1.5466860     0.3366220    -0.1329200
  C        1.8387470    -0.9259720    -0.6670270
  C        2.5575830     1.0808050     0.4866160
  C        3.1278360    -1.4488340    -0.5554450
  C        3.8398480     0.5472150     0.6113220
  C        4.1275660    -0.7178550     0.0911790
  H       -2.0189590     1.4850890    -1.2525130
  H       -2.8205670    -0.6804150    -1.8065990
  H       -4.1624350     0.1514200    -1.0190010
  H       -3.9082830    -2.2246930    -0.2264870
  H       -3.7050990    -1.0869340     1.0980480
  H       -1.8940300    -2.7681710     1.2100160
  H       -1.4444710    -2.4355870    -0.4683360
  H       -1.2866520    -0.4768830     1.8722860
  H        0.0828400    -1.2295020     1.0584050
  H       -3.6731810     2.1637340     0.4547800
  H       -2.9192060     1.1010660     1.6506870
  H       -2.0023200     2.4636420     0.9693550
  H        1.0609540    -1.4829580    -1.1859370
  H        2.3266460     2.0767070     0.8563740
  H        3.3548360    -2.4238320    -0.9804540
  H        4.6199280     1.1225680     1.1042590
  H        5.1302370    -1.1288490     0.1814620
units angstrom
no_reorient  #important for SAPT in psi4, default
symmetry c1  #important for SAPT in psi4, default
}

set PROPERTIES_ORIGIN ["COM"]
properties('MP2/aug-cc-pvtz', properties = ['dipole'])
--------------------------------------------------------------------------

    Molecular point group: c1
  Charge       = 0
  Multiplicity = 1
  Basis Set: AUG-CC-PVTZ
    Blend: AUG-CC-PVTZ
  Basis Set: (AUG-CC-PVTZ AUX)
    Blend: AUG-CC-PVTZ-JKFIT

    Orbital Energies [Eh]
    ---------------------

    Doubly Occupied:

       1A    -20.512314     2A    -15.576460     3A    -11.347056
       4A    -11.263835     5A    -11.260060     6A    -11.249516
       7A    -11.248330     8A    -11.246638     9A    -11.244433
      10A    -11.244269    11A    -11.242269    12A    -11.229348
      13A    -11.227802    14A    -11.223894    15A    -11.212521
      16A     -1.365625    17A     -1.237763    18A     -1.159737
      19A     -1.086505    20A     -1.052895    21A     -1.030731
      22A     -1.022139    23A     -0.959699    24A     -0.898052
      25A     -0.862306    26A     -0.836964    27A     -0.833958
      28A     -0.783423    29A     -0.730191    30A     -0.716053
      31A     -0.681143    32A     -0.654282    33A     -0.639352
      34A     -0.628547    35A     -0.625202    36A     -0.603482
      37A     -0.599078    38A     -0.592647    39A     -0.583912
      40A     -0.577200    41A     -0.565474    42A     -0.543776
      43A     -0.524213    44A     -0.521758    45A     -0.506324
      46A     -0.502109    47A     -0.493472    48A     -0.491577
      49A     -0.474113    50A     -0.459394    51A     -0.457733
      52A     -0.418100    53A     -0.367116    54A     -0.343630
      55A     -0.340826

  @DF-RHF Final Energy:  -631.72660835565443

   => Energetics <=

    Nuclear Repulsion Energy =            997.7651842755964253
    One-Electron Energy =               -2838.7850937850280388
    Two-Electron Energy =                1209.2933011537772927
    Total Energy =                       -631.7266083556544345
  Basis Set: (AUG-CC-PVTZ AUX)
    Blend: AUG-CC-PVTZ-RI
    Molecular point group: c1

    Geometry (in Angstrom), charge = 0, multiplicity = 1:

       Center              X                  Y                   Z               Mass
    ------------   -----------------  -----------------  -----------------  -----------------
         O            0.074872555052     2.117167277521    -0.731023746298    15.994914619570
         N           -0.970163444948     0.186774277521    -0.064424746298    14.003074004430
         C           -2.314839244948     0.809428477521    -0.414932846298    12.000000000000
         C           -3.233759444948    -0.312689722479    -0.825914746298    12.000000000000
         C           -3.316624444948    -1.461393722479     0.178610253702    12.000000000000
         C           -1.920509444948    -2.012223722479     0.461633253702    12.000000000000
         C           -0.995590444948    -0.893926722479     0.924289253702    12.000000000000
         C           -2.795267444948     1.656018277521     0.763108253702    12.000000000000
         C            0.146587555052     0.955107277521    -0.306406746298    12.000000000000
         C            1.484442555052     0.309569277521    -0.114053746298    12.000000000000
         C            1.776503555052    -0.953024722479    -0.648160746298    12.000000000000
         C            2.495339555052     1.053752277521     0.505482253702    12.000000000000
         C            3.065592555052    -1.475886722479    -0.536578746298    12.000000000000
         C            3.777604555052     0.520162277521     0.630188253702    12.000000000000
         C            4.065322555052    -0.744907722479     0.110045253702    12.000000000000
         H           -2.081202444948     1.458036277521    -1.233646746298     1.007825032230
         H           -2.882810444948    -0.707467722479    -1.787732746298     1.007825032230
         H           -4.224678444948     0.124367277521    -1.000134746298     1.007825032230
         H           -3.970526444948    -2.251745722479    -0.207620746298     1.007825032230
         H           -3.767342444948    -1.113986722479     1.116914253702     1.007825032230
         H           -1.956273444948    -2.795223722479     1.228882253702     1.007825032230
         H           -1.506714444948    -2.462639722479    -0.449469746298     1.007825032230
         H           -1.348895444948    -0.503935722479     1.891152253702     1.007825032230
         H            0.020596555052    -1.256554722479     1.077271253702     1.007825032230
         H           -3.735424444948     2.136681277521     0.473646253702     1.007825032230
         H           -2.981449444948     1.074013277521     1.669553253702     1.007825032230
         H           -2.064563444948     2.436589277521     0.988221253702     1.007825032230
         H            0.998710555052    -1.510010722479    -1.167070746298     1.007825032230
         H            2.264402555052     2.049654277521     0.875240253702     1.007825032230
         H            3.292592555052    -2.450884722479    -0.961587746298     1.007825032230
         H            4.557684555052     1.095515277521     1.123125253702     1.007825032230
         H            5.067993555052    -1.155901722479     0.200328253702     1.007825032230

  Basis Set: AUG-CC-PVTZ
    Blend: AUG-CC-PVTZ
  Basis Set: (AUG-CC-PVTZ AUX)
    Blend: AUG-CC-PVTZ-JKFIT
	 Reference Energy          =    -631.7266083556544345 [Eh]
	 Singles Energy            =      -0.0000000000000000 [Eh]
	 Same-Spin Energy          =      -0.6885829154734184 [Eh]
	 Opposite-Spin Energy      =      -2.2117508933504038 [Eh]
	 Correlation Energy        =      -2.9003338088238220 [Eh]
	 Total Energy              =    -634.6269421644782369 [Eh]

	 ================> DF-SCS-MP2 Energies <==================
	-----------------------------------------------------------
	 SCS Same-Spin Scale       =       0.3333333333333333 [-]
	 SCS Opposite-Spin Scale   =       1.2000000000000000 [-]
	 SCS Same-Spin Energy      =      -0.2295276384911395 [Eh]
	 SCS Opposite-Spin Energy  =      -2.6541010720204845 [Eh]
	 SCS Correlation Energy    =      -2.8836287105116241 [Eh]
	 SCS Total Energy          =    -634.6102370661660643 [Eh]
	-----------------------------------------------------------

  Dipole Moment: [D]
     X:    -0.9991      Y:    -3.1213      Z:     1.4474     Total:     3.5827

*** Psi4 exiting successfully. Buy a developer a beer!
