                               Psi4 1.3.2 release

  ==> Input File <==

--------------------------------------------------------------------------
#psi4
#
memory 32 gb

molecule  {
0 1
  O        0.1371160     2.1442200    -0.7498900
  N       -0.9860013     0.3297134    -0.1186022
  C       -2.2101840     0.8219870    -0.4048790
  C       -3.1715160    -0.2856370    -0.8447810
  C       -3.2543810    -1.4343410     0.1597440
  C       -1.8582660    -1.9851710     0.4427670
  C       -0.9333470    -0.8668740     0.9054230
  C       -2.7330240     1.6830710     0.7442420
  C        0.2088310     0.9821600    -0.3252730
  C        1.5466860     0.3366220    -0.1329200
  C        1.8387470    -0.9259720    -0.6670270
  C        2.5575830     1.0808050     0.4866160
  C        3.1278360    -1.4488340    -0.5554450
  C        3.8398480     0.5472150     0.6113220
  C        4.1275660    -0.7178550     0.0911790
  H       -2.0189590     1.4850890    -1.2525130
  H       -2.8205670    -0.6804150    -1.8065990
  H       -4.1624350     0.1514200    -1.0190010
  H       -3.9082830    -2.2246930    -0.2264870
  H       -3.7050990    -1.0869340     1.0980480
  H       -1.8940300    -2.7681710     1.2100160
  H       -1.4444710    -2.4355870    -0.4683360
  H       -1.2866520    -0.4768830     1.8722860
  H        0.0828400    -1.2295020     1.0584050
  H       -3.6731810     2.1637340     0.4547800
  H       -2.9192060     1.1010660     1.6506870
  H       -2.0023200     2.4636420     0.9693550
  H        1.0609540    -1.4829580    -1.1859370
  H        2.3266460     2.0767070     0.8563740
  H        3.3548360    -2.4238320    -0.9804540
  H        4.6199280     1.1225680     1.1042590
  H        5.1302370    -1.1288490     0.1814620
units angstrom
no_reorient  #important for SAPT in psi4, default
symmetry c1  #important for SAPT in psi4, default
}

set PROPERTIES_ORIGIN ["COM"]
properties('MP2/aug-cc-pvtz', properties = ['dipole'])
--------------------------------------------------------------------------

    Molecular point group: c1
  Charge       = 0
  Multiplicity = 1
  Basis Set: AUG-CC-PVTZ
    Blend: AUG-CC-PVTZ
  Basis Set: (AUG-CC-PVTZ AUX)
    Blend: AUG-CC-PVTZ-JKFIT

    Orbital Energies [Eh]
    ---------------------

    Doubly Occupied:

       1A    -20.507441     2A    -15.575949     3A    -11.347623
       4A    -11.271719     5A    -11.256294     6A    -11.252669
       7A    -11.249993     8A    -11.248559     9A    -11.247458
      10A    -11.246528    11A    -11.245497    12A    -11.231657
      13A    -11.226198    14A    -11.221419    15A    -11.204635
      16A     -1.369805    17A     -1.249302    18A     -1.163892
      19A     -1.082640    20A     -1.056074    21A     -1.029149
      22A     -1.025159    23A     -0.956426    24A     -0.895606
      25A     -0.874469    26A     -0.840598    27A     -0.832981
      28A     -0.792699    29A     -0.731531    30A     -0.715205
      31A     -0.683314    32A     -0.650159    33A     -0.640272
      34A     -0.628368    35A     -0.625926    36A     -0.611767
      37A     -0.600531    38A     -0.596819    39A     -0.592704
      40A     -0.567665    41A     -0.562951    42A     -0.540234
      43A     -0.525940    44A     -0.517428    45A     -0.509105
      46A     -0.504707    47A     -0.494406    48A     -0.492362
      49A     -0.472234    50A     -0.467332    51A     -0.439532
      52A     -0.420084    53A     -0.357193    54A     -0.346918
      55A     -0.344222

  @DF-RHF Final Energy:  -631.70698892025007

   => Energetics <=

    Nuclear Repulsion Energy =            998.7632812245293508
    One-Electron Energy =               -2840.6578456882225510
    Two-Electron Energy =                1210.1875755434432449
    Total Energy =                       -631.7069889202500690
  Basis Set: (AUG-CC-PVTZ AUX)
    Blend: AUG-CC-PVTZ-RI
    Molecular point group: c1

    Geometry (in Angstrom), charge = 0, multiplicity = 1:

       Center              X                  Y                   Z               Mass
    ------------   -----------------  -----------------  -----------------  -----------------
         O            0.077749696313     2.110034760406    -0.730297987372    15.994914619570
         N           -1.045367603687     0.295528160406    -0.099010187372    14.003074004430
         C           -2.269550303687     0.787801760406    -0.385286987372    12.000000000000
         C           -3.230882303687    -0.319822239594    -0.825188987372    12.000000000000
         C           -3.313747303687    -1.468526239594     0.179336012628    12.000000000000
         C           -1.917632303687    -2.019356239594     0.462359012628    12.000000000000
         C           -0.992713303687    -0.901059239594     0.925015012628    12.000000000000
         C           -2.792390303687     1.648885760406     0.763834012628    12.000000000000
         C            0.149464696313     0.947974760406    -0.305680987372    12.000000000000
         C            1.487319696313     0.302436760406    -0.113327987372    12.000000000000
         C            1.779380696313    -0.960157239594    -0.647434987372    12.000000000000
         C            2.498216696313     1.046619760406     0.506208012628    12.000000000000
         C            3.068469696313    -1.483019239594    -0.535852987372    12.000000000000
         C            3.780481696313     0.513029760406     0.630914012628    12.000000000000
         C            4.068199696313    -0.752040239594     0.110771012628    12.000000000000
         H           -2.078325303687     1.450903760406    -1.232920987372     1.007825032230
         H           -2.879933303687    -0.714600239594    -1.787006987372     1.007825032230
         H           -4.221801303687     0.117234760406    -0.999408987372     1.007825032230
         H           -3.967649303687    -2.258878239594    -0.206894987372     1.007825032230
         H           -3.764465303687    -1.121119239594     1.117640012628     1.007825032230
         H           -1.953396303687    -2.802356239594     1.229608012628     1.007825032230
         H           -1.503837303687    -2.469772239594    -0.448743987372     1.007825032230
         H           -1.346018303687    -0.511068239594     1.891878012628     1.007825032230
         H            0.023473696313    -1.263687239594     1.077997012628     1.007825032230
         H           -3.732547303687     2.129548760406     0.474372012628     1.007825032230
         H           -2.978572303687     1.066880760406     1.670279012628     1.007825032230
         H           -2.061686303687     2.429456760406     0.988947012628     1.007825032230
         H            1.001587696313    -1.517143239594    -1.166344987372     1.007825032230
         H            2.267279696313     2.042521760406     0.875966012628     1.007825032230
         H            3.295469696313    -2.458017239594    -0.960861987372     1.007825032230
         H            4.560561696313     1.088382760406     1.123851012628     1.007825032230
         H            5.070870696313    -1.163034239594     0.201054012628     1.007825032230

  Basis Set: AUG-CC-PVTZ
    Blend: AUG-CC-PVTZ
  Basis Set: (AUG-CC-PVTZ AUX)
    Blend: AUG-CC-PVTZ-JKFIT
	 Reference Energy          =    -631.7069889202500690 [Eh]
	 Singles Energy            =      -0.0000000000000000 [Eh]
	 Same-Spin Energy          =      -0.6894548361670014 [Eh]
	 Opposite-Spin Energy      =      -2.2129970551847009 [Eh]
	 Correlation Energy        =      -2.9024518913517023 [Eh]
	 Total Energy              =    -634.6094408116017576 [Eh]

	 ================> DF-SCS-MP2 Energies <==================
	-----------------------------------------------------------
	 SCS Same-Spin Scale       =       0.3333333333333333 [-]
	 SCS Opposite-Spin Scale   =       1.2000000000000000 [-]
	 SCS Same-Spin Energy      =      -0.2298182787223338 [Eh]
	 SCS Opposite-Spin Energy  =      -2.6555964662216409 [Eh]
	 SCS Correlation Energy    =      -2.8854147449439749 [Eh]
	 SCS Total Energy          =    -634.5924036651940696 [Eh]
	-----------------------------------------------------------

  Dipole Moment: [D]
     X:    -0.5619      Y:    -3.4414      Z:     1.5412     Total:     3.8124

*** Psi4 exiting successfully. Buy a developer a beer!
