                               Psi4 1.3.2 release

  ==> Input File <==

--------------------------------------------------------------------------
#psi4
#
memory 32 gb

molecule  {
0 1
  O        0.1587085     2.1449841    -0.7508948
  N       -0.9079200     0.2138270    -0.0832910
  C       -2.2101840     0.8219870    -0.4048790
  C       -3.1715160    -0.2856370    -0.8447810
  C       -3.2543810    -1.4343410     0.1597440
  C       -1.8582660    -1.9851710     0.4427670
  C       -0.9333470    -0.8668740     0.9054230
  C       -2.7330240     1.6830710     0.7442420
  C        0.2088310     0.9821600    -0.3252730
  C        1.5466860     0.3366220    -0.1329200
  C        1.8387470    -0.9259720    -0.6670270
  C        2.5575830     1.0808050     0.4866160
  C        3.1278360    -1.4488340    -0.5554450
  C        3.8398480     0.5472150     0.6113220
  C        4.1275660    -0.7178550     0.0911790
  H       -2.0189590     1.4850890    -1.2525130
  H       -2.8205670    -0.6804150    -1.8065990
  H       -4.1624350     0.1514200    -1.0190010
  H       -3.9082830    -2.2246930    -0.2264870
  H       -3.7050990    -1.0869340     1.0980480
  H       -1.8940300    -2.7681710     1.2100160
  H       -1.4444710    -2.4355870    -0.4683360
  H       -1.2866520    -0.4768830     1.8722860
  H        0.0828400    -1.2295020     1.0584050
  H       -3.6731810     2.1637340     0.4547800
  H       -2.9192060     1.1010660     1.6506870
  H       -2.0023200     2.4636420     0.9693550
  H        1.0609540    -1.4829580    -1.1859370
  H        2.3266460     2.0767070     0.8563740
  H        3.3548360    -2.4238320    -0.9804540
  H        4.6199280     1.1225680     1.1042590
  H        5.1302370    -1.1288490     0.1814620
units angstrom
no_reorient  #important for SAPT in psi4, default
symmetry c1  #important for SAPT in psi4, default
}

set PROPERTIES_ORIGIN ["COM"]
properties('MP2/aug-cc-pvtz', properties = ['dipole'])
--------------------------------------------------------------------------

    Molecular point group: c1
  Charge       = 0
  Multiplicity = 1
  Basis Set: AUG-CC-PVTZ
    Blend: AUG-CC-PVTZ
  Basis Set: (AUG-CC-PVTZ AUX)
    Blend: AUG-CC-PVTZ-JKFIT

    Orbital Energies [Eh]
    ---------------------

    Doubly Occupied:

       1A    -20.514771     2A    -15.580132     3A    -11.349164
       4A    -11.265609     5A    -11.258465     6A    -11.249822
       7A    -11.248625     8A    -11.246856     9A    -11.244694
      10A    -11.244558    11A    -11.242552    12A    -11.229930
      13A    -11.226682    14A    -11.223471    15A    -11.211367
      16A     -1.368417    17A     -1.247634    18A     -1.160130
      19A     -1.085249    20A     -1.052829    21A     -1.030329
      22A     -1.022423    23A     -0.959713    24A     -0.897658
      25A     -0.865523    26A     -0.837049    27A     -0.833336
      28A     -0.786918    29A     -0.729111    30A     -0.718082
      31A     -0.681594    32A     -0.654761    33A     -0.638559
      34A     -0.627900    35A     -0.626344    36A     -0.606172
      37A     -0.598914    38A     -0.593022    39A     -0.586969
      40A     -0.577968    41A     -0.564981    42A     -0.543214
      43A     -0.526109    44A     -0.519839    45A     -0.507346
      46A     -0.502394    47A     -0.494202    48A     -0.492637
      49A     -0.470369    50A     -0.462944    51A     -0.452087
      52A     -0.420946    53A     -0.368873    54A     -0.343969
      55A     -0.340911

  @DF-RHF Final Energy:  -631.72912146314650

   => Energetics <=

    Nuclear Repulsion Energy =            998.5716564130790402
    One-Electron Energy =               -2840.3333132929656131
    Two-Electron Energy =                1210.0325354167403020
    Total Energy =                       -631.7291214631463845
  Basis Set: (AUG-CC-PVTZ AUX)
    Blend: AUG-CC-PVTZ-RI
    Molecular point group: c1

    Geometry (in Angstrom), charge = 0, multiplicity = 1:

       Center              X                  Y                   Z               Mass
    ------------   -----------------  -----------------  -----------------  -----------------
         O            0.092259336898     2.118727458250    -0.733657886412    15.994914619570
         N           -0.974369163102     0.187570358250    -0.066054086412    14.003074004430
         C           -2.276633163102     0.795730358250    -0.387642086412    12.000000000000
         C           -3.237965163102    -0.311893641750    -0.827544086412    12.000000000000
         C           -3.320830163102    -1.460597641750     0.176980913588    12.000000000000
         C           -1.924715163102    -2.011427641750     0.460003913588    12.000000000000
         C           -0.999796163102    -0.893130641750     0.922659913588    12.000000000000
         C           -2.799473163102     1.656814358250     0.761478913588    12.000000000000
         C            0.142381836898     0.955903358250    -0.308036086412    12.000000000000
         C            1.480236836898     0.310365358250    -0.115683086412    12.000000000000
         C            1.772297836898    -0.952228641750    -0.649790086412    12.000000000000
         C            2.491133836898     1.054548358250     0.503852913588    12.000000000000
         C            3.061386836898    -1.475090641750    -0.538208086412    12.000000000000
         C            3.773398836898     0.520958358250     0.628558913588    12.000000000000
         C            4.061116836898    -0.744111641750     0.108415913588    12.000000000000
         H           -2.085408163102     1.458832358250    -1.235276086412     1.007825032230
         H           -2.887016163102    -0.706671641750    -1.789362086412     1.007825032230
         H           -4.228884163102     0.125163358250    -1.001764086412     1.007825032230
         H           -3.974732163102    -2.250949641750    -0.209250086412     1.007825032230
         H           -3.771548163102    -1.113190641750     1.115284913588     1.007825032230
         H           -1.960479163102    -2.794427641750     1.227252913588     1.007825032230
         H           -1.510920163102    -2.461843641750    -0.451099086412     1.007825032230
         H           -1.353101163102    -0.503139641750     1.889522913588     1.007825032230
         H            0.016390836898    -1.255758641750     1.075641913588     1.007825032230
         H           -3.739630163102     2.137477358250     0.472016913588     1.007825032230
         H           -2.985655163102     1.074809358250     1.667923913588     1.007825032230
         H           -2.068769163102     2.437385358250     0.986591913588     1.007825032230
         H            0.994504836898    -1.509214641750    -1.168700086412     1.007825032230
         H            2.260196836898     2.050450358250     0.873610913588     1.007825032230
         H            3.288386836898    -2.450088641750    -0.963217086412     1.007825032230
         H            4.553478836898     1.096311358250     1.121495913588     1.007825032230
         H            5.063787836898    -1.155105641750     0.198698913588     1.007825032230

  Basis Set: AUG-CC-PVTZ
    Blend: AUG-CC-PVTZ
  Basis Set: (AUG-CC-PVTZ AUX)
    Blend: AUG-CC-PVTZ-JKFIT
	 Reference Energy          =    -631.7291214631464982 [Eh]
	 Singles Energy            =      -0.0000000000000000 [Eh]
	 Same-Spin Energy          =      -0.6886029547858092 [Eh]
	 Opposite-Spin Energy      =      -2.2115947673259706 [Eh]
	 Correlation Energy        =      -2.9001977221117796 [Eh]
	 Total Energy              =    -634.6293191852582822 [Eh]

	 ================> DF-SCS-MP2 Energies <==================
	-----------------------------------------------------------
	 SCS Same-Spin Scale       =       0.3333333333333333 [-]
	 SCS Opposite-Spin Scale   =       1.2000000000000000 [-]
	 SCS Same-Spin Energy      =      -0.2295343182619364 [Eh]
	 SCS Opposite-Spin Energy  =      -2.6539137207911647 [Eh]
	 SCS Correlation Energy    =      -2.8834480390531012 [Eh]
	 SCS Total Energy          =    -634.6125695021995625 [Eh]
	-----------------------------------------------------------

  Dipole Moment: [D]
     X:    -0.9224      Y:    -3.1249      Z:     1.4684     Total:     3.5738

*** Psi4 exiting successfully. Buy a developer a beer!
