                               Psi4 1.3.2 release

  ==> Input File <==

--------------------------------------------------------------------------
#psi4
#
memory 32 gb

molecule  {
0 1
  O        0.1155454     2.1431019    -0.7487558
  N       -0.9079200     0.2138270    -0.0832910
  C       -2.2101840     0.8219870    -0.4048790
  C       -3.1715160    -0.2856370    -0.8447810
  C       -3.2543810    -1.4343410     0.1597440
  C       -1.8582660    -1.9851710     0.4427670
  C       -0.9333470    -0.8668740     0.9054230
  C       -2.7330240     1.6830710     0.7442420
  C        0.2088310     0.9821600    -0.3252730
  C        1.5466860     0.3366220    -0.1329200
  C        1.8387470    -0.9259720    -0.6670270
  C        2.5575830     1.0808050     0.4866160
  C        3.1278360    -1.4488340    -0.5554450
  C        3.8398480     0.5472150     0.6113220
  C        4.1275660    -0.7178550     0.0911790
  H       -2.0189590     1.4850890    -1.2525130
  H       -2.8205670    -0.6804150    -1.8065990
  H       -4.1624350     0.1514200    -1.0190010
  H       -3.9082830    -2.2246930    -0.2264870
  H       -3.7050990    -1.0869340     1.0980480
  H       -1.8940300    -2.7681710     1.2100160
  H       -1.4444710    -2.4355870    -0.4683360
  H       -1.2866520    -0.4768830     1.8722860
  H        0.0828400    -1.2295020     1.0584050
  H       -3.6731810     2.1637340     0.4547800
  H       -2.9192060     1.1010660     1.6506870
  H       -2.0023200     2.4636420     0.9693550
  H        1.0609540    -1.4829580    -1.1859370
  H        2.3266460     2.0767070     0.8563740
  H        3.3548360    -2.4238320    -0.9804540
  H        4.6199280     1.1225680     1.1042590
  H        5.1302370    -1.1288490     0.1814620
units angstrom
no_reorient  #important for SAPT in psi4, default
symmetry c1  #important for SAPT in psi4, default
}

set PROPERTIES_ORIGIN ["COM"]
properties('MP2/aug-cc-pvtz', properties = ['dipole'])
--------------------------------------------------------------------------

    Molecular point group: c1
  Charge       = 0
  Multiplicity = 1
  Basis Set: AUG-CC-PVTZ
    Blend: AUG-CC-PVTZ
  Basis Set: (AUG-CC-PVTZ AUX)
    Blend: AUG-CC-PVTZ-JKFIT

    Orbital Energies [Eh]
    ---------------------

    Doubly Occupied:

       1A    -20.513951     2A    -15.578134     3A    -11.348907
       4A    -11.264541     5A    -11.256856     6A    -11.251430
       7A    -11.250148     8A    -11.248141     9A    -11.246138
      10A    -11.245658    11A    -11.243663    12A    -11.229142
      13A    -11.225855    14A    -11.222456    15A    -11.210182
      16A     -1.368708    17A     -1.245195    18A     -1.161485
      19A     -1.084301    20A     -1.052082    21A     -1.031244
      22A     -1.023605    23A     -0.958666    24A     -0.896931
      25A     -0.865567    26A     -0.837769    27A     -0.833235
      28A     -0.786680    29A     -0.728922    30A     -0.717670
      31A     -0.682163    32A     -0.654892    33A     -0.638609
      34A     -0.627940    35A     -0.625803    36A     -0.606118
      37A     -0.598883    38A     -0.593918    39A     -0.586226
      40A     -0.577028    41A     -0.564218    42A     -0.542712
      43A     -0.526154    44A     -0.519139    45A     -0.507897
      46A     -0.503306    47A     -0.493365    48A     -0.492667
      49A     -0.469385    50A     -0.461834    51A     -0.450797
      52A     -0.421023    53A     -0.367193    54A     -0.345041
      55A     -0.342688

  @DF-RHF Final Energy:  -631.72904517210463

   => Energetics <=

    Nuclear Repulsion Energy =            998.7659659600329860
    One-Electron Energy =               -2840.7374998862223947
    Two-Electron Energy =                1210.2424887540846612
    Total Energy =                       -631.7290451721046338
  Basis Set: (AUG-CC-PVTZ AUX)
    Blend: AUG-CC-PVTZ-RI
    Molecular point group: c1

    Geometry (in Angstrom), charge = 0, multiplicity = 1:

       Center              X                  Y                   Z               Mass
    ------------   -----------------  -----------------  -----------------  -----------------
         O            0.052494979833     2.116993466186    -0.731687315259    15.994914619570
         N           -0.970970420167     0.187718566186    -0.066222515259    14.003074004430
         C           -2.273234420167     0.795878566186    -0.387810515259    12.000000000000
         C           -3.234566420167    -0.311745433814    -0.827712515259    12.000000000000
         C           -3.317431420167    -1.460449433814     0.176812484741    12.000000000000
         C           -1.921316420167    -2.011279433814     0.459835484741    12.000000000000
         C           -0.996397420167    -0.892982433814     0.922491484741    12.000000000000
         C           -2.796074420167     1.656962566186     0.761310484741    12.000000000000
         C            0.145780579833     0.956051566186    -0.308204515259    12.000000000000
         C            1.483635579833     0.310513566186    -0.115851515259    12.000000000000
         C            1.775696579833    -0.952080433814    -0.649958515259    12.000000000000
         C            2.494532579833     1.054696566186     0.503684484741    12.000000000000
         C            3.064785579833    -1.474942433814    -0.538376515259    12.000000000000
         C            3.776797579833     0.521106566186     0.628390484741    12.000000000000
         C            4.064515579833    -0.743963433814     0.108247484741    12.000000000000
         H           -2.082009420167     1.458980566186    -1.235444515259     1.007825032230
         H           -2.883617420167    -0.706523433814    -1.789530515259     1.007825032230
         H           -4.225485420167     0.125311566186    -1.001932515259     1.007825032230
         H           -3.971333420167    -2.250801433814    -0.209418515259     1.007825032230
         H           -3.768149420167    -1.113042433814     1.115116484741     1.007825032230
         H           -1.957080420167    -2.794279433814     1.227084484741     1.007825032230
         H           -1.507521420167    -2.461695433814    -0.451267515259     1.007825032230
         H           -1.349702420167    -0.502991433814     1.889354484741     1.007825032230
         H            0.019789579833    -1.255610433814     1.075473484741     1.007825032230
         H           -3.736231420167     2.137625566186     0.471848484741     1.007825032230
         H           -2.982256420167     1.074957566186     1.667755484741     1.007825032230
         H           -2.065370420167     2.437533566186     0.986423484741     1.007825032230
         H            0.997903579833    -1.509066433814    -1.168868515259     1.007825032230
         H            2.263595579833     2.050598566186     0.873442484741     1.007825032230
         H            3.291785579833    -2.449940433814    -0.963385515259     1.007825032230
         H            4.556877579833     1.096459566186     1.121327484741     1.007825032230
         H            5.067186579833    -1.154957433814     0.198530484741     1.007825032230

  Basis Set: AUG-CC-PVTZ
    Blend: AUG-CC-PVTZ
  Basis Set: (AUG-CC-PVTZ AUX)
    Blend: AUG-CC-PVTZ-JKFIT
	 Reference Energy          =    -631.7290451721046338 [Eh]
	 Singles Energy            =      -0.0000000000000000 [Eh]
	 Same-Spin Energy          =      -0.6886655413358206 [Eh]
	 Opposite-Spin Energy      =      -2.2116172510960523 [Eh]
	 Correlation Energy        =      -2.9002827924318728 [Eh]
	 Total Energy              =    -634.6293279645365146 [Eh]

	 ================> DF-SCS-MP2 Energies <==================
	-----------------------------------------------------------
	 SCS Same-Spin Scale       =       0.3333333333333333 [-]
	 SCS Opposite-Spin Scale   =       1.2000000000000000 [-]
	 SCS Same-Spin Energy      =      -0.2295551804452735 [Eh]
	 SCS Opposite-Spin Energy  =      -2.6539407013152627 [Eh]
	 SCS Correlation Energy    =      -2.8834958817605361 [Eh]
	 SCS Total Energy          =    -634.6125410538651295 [Eh]
	-----------------------------------------------------------

  Dipole Moment: [D]
     X:    -0.7445      Y:    -3.1316      Z:     1.4583     Total:     3.5338

*** Psi4 exiting successfully. Buy a developer a beer!
