                               Psi4 1.3.2 release

  ==> Input File <==

--------------------------------------------------------------------------
#psi4
#
memory 32 gb

molecule  {
0 1
  O        0.1371160     2.1442200    -0.7498900
  N       -0.9079331     0.1914883    -0.1295920
  C       -2.2101840     0.8219870    -0.4048790
  C       -3.1715160    -0.2856370    -0.8447810
  C       -3.2543810    -1.4343410     0.1597440
  C       -1.8582660    -1.9851710     0.4427670
  C       -0.9333470    -0.8668740     0.9054230
  C       -2.7330240     1.6830710     0.7442420
  C        0.2088310     0.9821600    -0.3252730
  C        1.5466860     0.3366220    -0.1329200
  C        1.8387470    -0.9259720    -0.6670270
  C        2.5575830     1.0808050     0.4866160
  C        3.1278360    -1.4488340    -0.5554450
  C        3.8398480     0.5472150     0.6113220
  C        4.1275660    -0.7178550     0.0911790
  H       -2.0189590     1.4850890    -1.2525130
  H       -2.8205670    -0.6804150    -1.8065990
  H       -4.1624350     0.1514200    -1.0190010
  H       -3.9082830    -2.2246930    -0.2264870
  H       -3.7050990    -1.0869340     1.0980480
  H       -1.8940300    -2.7681710     1.2100160
  H       -1.4444710    -2.4355870    -0.4683360
  H       -1.2866520    -0.4768830     1.8722860
  H        0.0828400    -1.2295020     1.0584050
  H       -3.6731810     2.1637340     0.4547800
  H       -2.9192060     1.1010660     1.6506870
  H       -2.0023200     2.4636420     0.9693550
  H        1.0609540    -1.4829580    -1.1859370
  H        2.3266460     2.0767070     0.8563740
  H        3.3548360    -2.4238320    -0.9804540
  H        4.6199280     1.1225680     1.1042590
  H        5.1302370    -1.1288490     0.1814620
units angstrom
no_reorient  #important for SAPT in psi4, default
symmetry c1  #important for SAPT in psi4, default
}

set PROPERTIES_ORIGIN ["COM"]
properties('MP2/aug-cc-pvtz', properties = ['dipole'])
--------------------------------------------------------------------------

    Molecular point group: c1
  Charge       = 0
  Multiplicity = 1
  Basis Set: AUG-CC-PVTZ
    Blend: AUG-CC-PVTZ
  Basis Set: (AUG-CC-PVTZ AUX)
    Blend: AUG-CC-PVTZ-JKFIT

    Orbital Energies [Eh]
    ---------------------

    Doubly Occupied:

       1A    -20.516867     2A    -15.579622     3A    -11.349691
       4A    -11.265698     5A    -11.256783     6A    -11.250716
       7A    -11.249419     8A    -11.247652     9A    -11.245615
      10A    -11.245139    11A    -11.243211    12A    -11.228747
      13A    -11.225596    14A    -11.221671    15A    -11.211719
      16A     -1.369330    17A     -1.244059    18A     -1.160915
      19A     -1.083716    20A     -1.051739    21A     -1.030401
      22A     -1.023049    23A     -0.959102    24A     -0.896504
      25A     -0.864866    26A     -0.837369    27A     -0.831712
      28A     -0.784874    29A     -0.729430    30A     -0.717839
      31A     -0.682046    32A     -0.653892    33A     -0.638346
      34A     -0.627746    35A     -0.625592    36A     -0.604822
      37A     -0.599001    38A     -0.593423    39A     -0.586433
      40A     -0.575578    41A     -0.563678    42A     -0.543594
      43A     -0.526444    44A     -0.519165    45A     -0.507593
      46A     -0.502563    47A     -0.494274    48A     -0.492640
      49A     -0.468884    50A     -0.461342    51A     -0.449840
      52A     -0.422333    53A     -0.371464    54A     -0.344547
      55A     -0.341993

  @DF-RHF Final Energy:  -631.72776350457627

   => Energetics <=

    Nuclear Repulsion Energy =            998.4388390220909741
    One-Electron Energy =               -2840.0926357695843762
    Two-Electron Energy =                1209.9260332429171285
    Total Energy =                       -631.7277635045761599
  Basis Set: (AUG-CC-PVTZ AUX)
    Blend: AUG-CC-PVTZ-RI
    Molecular point group: c1

    Geometry (in Angstrom), charge = 0, multiplicity = 1:

       Center              X                  Y                   Z               Mass
    ------------   -----------------  -----------------  -----------------  -----------------
         O            0.072367973653     2.119563469315    -0.729540392657    15.994914619570
         N           -0.972681126347     0.166831769315    -0.109242392657    14.003074004430
         C           -2.274932026347     0.797330469315    -0.384529392657    12.000000000000
         C           -3.236264026347    -0.310293530685    -0.824431392657    12.000000000000
         C           -3.319129026347    -1.458997530685     0.180093607343    12.000000000000
         C           -1.923014026347    -2.009827530685     0.463116607343    12.000000000000
         C           -0.998095026347    -0.891530530685     0.925772607343    12.000000000000
         C           -2.797772026347     1.658414469315     0.764591607343    12.000000000000
         C            0.144082973653     0.957503469315    -0.304923392657    12.000000000000
         C            1.481937973653     0.311965469315    -0.112570392657    12.000000000000
         C            1.773998973653    -0.950628530685    -0.646677392657    12.000000000000
         C            2.492834973653     1.056148469315     0.506965607343    12.000000000000
         C            3.063087973653    -1.473490530685    -0.535095392657    12.000000000000
         C            3.775099973653     0.522558469315     0.631671607343    12.000000000000
         C            4.062817973653    -0.742511530685     0.111528607343    12.000000000000
         H           -2.083707026347     1.460432469315    -1.232163392657     1.007825032230
         H           -2.885315026347    -0.705071530685    -1.786249392657     1.007825032230
         H           -4.227183026347     0.126763469315    -0.998651392657     1.007825032230
         H           -3.973031026347    -2.249349530685    -0.206137392657     1.007825032230
         H           -3.769847026347    -1.111590530685     1.118397607343     1.007825032230
         H           -1.958778026347    -2.792827530685     1.230365607343     1.007825032230
         H           -1.509219026347    -2.460243530685    -0.447986392657     1.007825032230
         H           -1.351400026347    -0.501539530685     1.892635607343     1.007825032230
         H            0.018091973653    -1.254158530685     1.078754607343     1.007825032230
         H           -3.737929026347     2.139077469315     0.475129607343     1.007825032230
         H           -2.983954026347     1.076409469315     1.671036607343     1.007825032230
         H           -2.067068026347     2.438985469315     0.989704607343     1.007825032230
         H            0.996205973653    -1.507614530685    -1.165587392657     1.007825032230
         H            2.261897973653     2.052050469315     0.876723607343     1.007825032230
         H            3.290087973653    -2.448488530685    -0.960104392657     1.007825032230
         H            4.555179973653     1.097911469315     1.124608607343     1.007825032230
         H            5.065488973653    -1.153505530685     0.201811607343     1.007825032230

  Basis Set: AUG-CC-PVTZ
    Blend: AUG-CC-PVTZ
  Basis Set: (AUG-CC-PVTZ AUX)
    Blend: AUG-CC-PVTZ-JKFIT
	 Reference Energy          =    -631.7277635045762736 [Eh]
	 Singles Energy            =      -0.0000000000000000 [Eh]
	 Same-Spin Energy          =      -0.6886410487959723 [Eh]
	 Opposite-Spin Energy      =      -2.2119262666487129 [Eh]
	 Correlation Energy        =      -2.9005673154446852 [Eh]
	 Total Energy              =    -634.6283308200210058 [Eh]

	 ================> DF-SCS-MP2 Energies <==================
	-----------------------------------------------------------
	 SCS Same-Spin Scale       =       0.3333333333333333 [-]
	 SCS Opposite-Spin Scale   =       1.2000000000000000 [-]
	 SCS Same-Spin Energy      =      -0.2295470162653241 [Eh]
	 SCS Opposite-Spin Energy  =      -2.6543115199784553 [Eh]
	 SCS Correlation Energy    =      -2.8838585362437792 [Eh]
	 SCS Total Energy          =    -634.6116220408200661 [Eh]
	-----------------------------------------------------------

  Dipole Moment: [D]
     X:    -0.7698      Y:    -3.0359      Z:     1.5095     Total:     3.4767

*** Psi4 exiting successfully. Buy a developer a beer!
