                               Psi4 1.3.2 release

  ==> Input File <==

--------------------------------------------------------------------------
#psi4
#
memory 32 gb

molecule  {
0 1
  O        0.1371160     2.1442200    -0.7498900
  N       -0.9085085     0.2252759    -0.0602839
  C       -2.2101840     0.8219870    -0.4048790
  C       -3.1715160    -0.2856370    -0.8447810
  C       -3.2543810    -1.4343410     0.1597440
  C       -1.8582660    -1.9851710     0.4427670
  C       -0.9333470    -0.8668740     0.9054230
  C       -2.7330240     1.6830710     0.7442420
  C        0.2088310     0.9821600    -0.3252730
  C        1.5466860     0.3366220    -0.1329200
  C        1.8387470    -0.9259720    -0.6670270
  C        2.5575830     1.0808050     0.4866160
  C        3.1278360    -1.4488340    -0.5554450
  C        3.8398480     0.5472150     0.6113220
  C        4.1275660    -0.7178550     0.0911790
  H       -2.0189590     1.4850890    -1.2525130
  H       -2.8205670    -0.6804150    -1.8065990
  H       -4.1624350     0.1514200    -1.0190010
  H       -3.9082830    -2.2246930    -0.2264870
  H       -3.7050990    -1.0869340     1.0980480
  H       -1.8940300    -2.7681710     1.2100160
  H       -1.4444710    -2.4355870    -0.4683360
  H       -1.2866520    -0.4768830     1.8722860
  H        0.0828400    -1.2295020     1.0584050
  H       -3.6731810     2.1637340     0.4547800
  H       -2.9192060     1.1010660     1.6506870
  H       -2.0023200     2.4636420     0.9693550
  H        1.0609540    -1.4829580    -1.1859370
  H        2.3266460     2.0767070     0.8563740
  H        3.3548360    -2.4238320    -0.9804540
  H        4.6199280     1.1225680     1.1042590
  H        5.1302370    -1.1288490     0.1814620
units angstrom
no_reorient  #important for SAPT in psi4, default
symmetry c1  #important for SAPT in psi4, default
}

set PROPERTIES_ORIGIN ["COM"]
properties('MP2/aug-cc-pvtz', properties = ['dipole'])
--------------------------------------------------------------------------

    Molecular point group: c1
  Charge       = 0
  Multiplicity = 1
  Basis Set: AUG-CC-PVTZ
    Blend: AUG-CC-PVTZ
  Basis Set: (AUG-CC-PVTZ AUX)
    Blend: AUG-CC-PVTZ-JKFIT

    Orbital Energies [Eh]
    ---------------------

    Doubly Occupied:

       1A    -20.513315     2A    -15.578916     3A    -11.348800
       4A    -11.264723     5A    -11.258045     6A    -11.250633
       7A    -11.249420     8A    -11.247464     9A    -11.245359
      10A    -11.245134    11A    -11.243094    12A    -11.229906
      13A    -11.226576    14A    -11.223573    15A    -11.210279
      16A     -1.368200    17A     -1.247398    18A     -1.160796
      19A     -1.085190    20A     -1.052772    21A     -1.031002
      22A     -1.023031    23A     -0.959154    24A     -0.897603
      25A     -0.865833    26A     -0.837449    27A     -0.834050
      28A     -0.787645    29A     -0.728842    30A     -0.717768
      31A     -0.681813    32A     -0.655228    33A     -0.638688
      34A     -0.627911    35A     -0.626439    36A     -0.606817
      37A     -0.598934    38A     -0.593513    39A     -0.586621
      40A     -0.578353    41A     -0.564972    42A     -0.542566
      43A     -0.525899    44A     -0.519642    45A     -0.507668
      46A     -0.502996    47A     -0.493582    48A     -0.492570
      49A     -0.470329    50A     -0.462921    51A     -0.451997
      52A     -0.420456    53A     -0.366399    54A     -0.344519
      55A     -0.341756

  @DF-RHF Final Energy:  -631.72925637897606

   => Energetics <=

    Nuclear Repulsion Energy =            998.7455060072732067
    One-Electron Energy =               -2840.6804098420557239
    Two-Electron Energy =                1210.2056474558064565
    Total Energy =                       -631.7292563789760607
  Basis Set: (AUG-CC-PVTZ AUX)
    Blend: AUG-CC-PVTZ-RI
    Molecular point group: c1

    Geometry (in Angstrom), charge = 0, multiplicity = 1:

       Center              X                  Y                   Z               Mass
    ------------   -----------------  -----------------  -----------------  -----------------
         O            0.072407639524     2.117234281598    -0.734318227580    15.994914619570
         N           -0.973216860476     0.198290181598    -0.044712127580    14.003074004430
         C           -2.274892360476     0.795001281598    -0.389307227580    12.000000000000
         C           -3.236224360476    -0.312622718402    -0.829209227580    12.000000000000
         C           -3.319089360476    -1.461326718402     0.175315772420    12.000000000000
         C           -1.922974360476    -2.012156718402     0.458338772420    12.000000000000
         C           -0.998055360476    -0.893859718402     0.920994772420    12.000000000000
         C           -2.797732360476     1.656085281598     0.759813772420    12.000000000000
         C            0.144122639524     0.955174281598    -0.309701227580    12.000000000000
         C            1.481977639524     0.309636281598    -0.117348227580    12.000000000000
         C            1.774038639524    -0.952957718402    -0.651455227580    12.000000000000
         C            2.492874639524     1.053819281598     0.502187772420    12.000000000000
         C            3.063127639524    -1.475819718402    -0.539873227580    12.000000000000
         C            3.775139639524     0.520229281598     0.626893772420    12.000000000000
         C            4.062857639524    -0.744840718402     0.106750772420    12.000000000000
         H           -2.083667360476     1.458103281598    -1.236941227580     1.007825032230
         H           -2.885275360476    -0.707400718402    -1.791027227580     1.007825032230
         H           -4.227143360476     0.124434281598    -1.003429227580     1.007825032230
         H           -3.972991360476    -2.251678718402    -0.210915227580     1.007825032230
         H           -3.769807360476    -1.113919718402     1.113619772420     1.007825032230
         H           -1.958738360476    -2.795156718402     1.225587772420     1.007825032230
         H           -1.509179360476    -2.462572718402    -0.452764227580     1.007825032230
         H           -1.351360360476    -0.503868718402     1.887857772420     1.007825032230
         H            0.018131639524    -1.256487718402     1.073976772420     1.007825032230
         H           -3.737889360476     2.136748281598     0.470351772420     1.007825032230
         H           -2.983914360476     1.074080281598     1.666258772420     1.007825032230
         H           -2.067028360476     2.436656281598     0.984926772420     1.007825032230
         H            0.996245639524    -1.509943718402    -1.170365227580     1.007825032230
         H            2.261937639524     2.049721281598     0.871945772420     1.007825032230
         H            3.290127639524    -2.450817718402    -0.964882227580     1.007825032230
         H            4.555219639524     1.095582281598     1.119830772420     1.007825032230
         H            5.065528639524    -1.155834718402     0.197033772420     1.007825032230

  Basis Set: AUG-CC-PVTZ
    Blend: AUG-CC-PVTZ
  Basis Set: (AUG-CC-PVTZ AUX)
    Blend: AUG-CC-PVTZ-JKFIT
	 Reference Energy          =    -631.7292563789760607 [Eh]
	 Singles Energy            =      -0.0000000000000000 [Eh]
	 Same-Spin Energy          =      -0.6886469785631307 [Eh]
	 Opposite-Spin Energy      =      -2.2115095153775779 [Eh]
	 Correlation Energy        =      -2.9001564939407087 [Eh]
	 Total Energy              =    -634.6294128729167596 [Eh]

	 ================> DF-SCS-MP2 Energies <==================
	-----------------------------------------------------------
	 SCS Same-Spin Scale       =       0.3333333333333333 [-]
	 SCS Opposite-Spin Scale   =       1.2000000000000000 [-]
	 SCS Same-Spin Energy      =      -0.2295489928543769 [Eh]
	 SCS Opposite-Spin Energy  =      -2.6538114184530932 [Eh]
	 SCS Correlation Energy    =      -2.8833604113074700 [Eh]
	 SCS Total Energy          =    -634.6126167902834823 [Eh]
	-----------------------------------------------------------

  Dipole Moment: [D]
     X:    -0.8572      Y:    -3.1719      Z:     1.4393     Total:     3.5871

*** Psi4 exiting successfully. Buy a developer a beer!
