                               Psi4 1.3.2 release

  ==> Input File <==

--------------------------------------------------------------------------
#psi4
#
memory 32 gb

molecule  {
0 1
  O        0.0940030     2.1406973    -0.7500457
  N       -0.9079200     0.2138270    -0.0832910
  C       -2.2101840     0.8219870    -0.4048790
  C       -3.1715160    -0.2856370    -0.8447810
  C       -3.2543810    -1.4343410     0.1597440
  C       -1.8582660    -1.9851710     0.4427670
  C       -0.9333470    -0.8668740     0.9054230
  C       -2.7330240     1.6830710     0.7442420
  C        0.2088310     0.9821600    -0.3252730
  C        1.5466860     0.3366220    -0.1329200
  C        1.8387470    -0.9259720    -0.6670270
  C        2.5575830     1.0808050     0.4866160
  C        3.1278360    -1.4488340    -0.5554450
  C        3.8398480     0.5472150     0.6113220
  C        4.1275660    -0.7178550     0.0911790
  H       -2.0189590     1.4850890    -1.2525130
  H       -2.8205670    -0.6804150    -1.8065990
  H       -4.1624350     0.1514200    -1.0190010
  H       -3.9082830    -2.2246930    -0.2264870
  H       -3.7050990    -1.0869340     1.0980480
  H       -1.8940300    -2.7681710     1.2100160
  H       -1.4444710    -2.4355870    -0.4683360
  H       -1.2866520    -0.4768830     1.8722860
  H        0.0828400    -1.2295020     1.0584050
  H       -3.6731810     2.1637340     0.4547800
  H       -2.9192060     1.1010660     1.6506870
  H       -2.0023200     2.4636420     0.9693550
  H        1.0609540    -1.4829580    -1.1859370
  H        2.3266460     2.0767070     0.8563740
  H        3.3548360    -2.4238320    -0.9804540
  H        4.6199280     1.1225680     1.1042590
  H        5.1302370    -1.1288490     0.1814620
units angstrom
no_reorient  #important for SAPT in psi4, default
symmetry c1  #important for SAPT in psi4, default
}

set PROPERTIES_ORIGIN ["COM"]
properties('MP2/aug-cc-pvtz', properties = ['dipole'])
--------------------------------------------------------------------------

    Molecular point group: c1
  Charge       = 0
  Multiplicity = 1
  Basis Set: AUG-CC-PVTZ
    Blend: AUG-CC-PVTZ
  Basis Set: (AUG-CC-PVTZ AUX)
    Blend: AUG-CC-PVTZ-JKFIT

    Orbital Energies [Eh]
    ---------------------

    Doubly Occupied:

       1A    -20.513511     2A    -15.577161     3A    -11.348794
       4A    -11.263993     5A    -11.256033     6A    -11.252248
       7A    -11.250889     8A    -11.248757     9A    -11.246856
      10A    -11.246189    11A    -11.244206    12A    -11.228747
      13A    -11.225438    14A    -11.221942    15A    -11.209621
      16A     -1.368924    17A     -1.243959    18A     -1.162147
      19A     -1.083827    20A     -1.051737    21A     -1.031655
      22A     -1.024180    23A     -0.958152    24A     -0.896587
      25A     -0.865591    26A     -0.838198    27A     -0.833090
      28A     -0.786564    29A     -0.728862    30A     -0.717413
      31A     -0.682464    32A     -0.654985    33A     -0.638684
      34A     -0.628074    35A     -0.625369    36A     -0.606105
      37A     -0.598867    38A     -0.594350    39A     -0.585851
      40A     -0.576548    41A     -0.563847    42A     -0.542459
      43A     -0.526238    44A     -0.518761    45A     -0.508171
      46A     -0.503776    47A     -0.492963    48A     -0.492626
      49A     -0.468882    50A     -0.461266    51A     -0.450155
      52A     -0.420953    53A     -0.366364    54A     -0.345567
      55A     -0.343521

  @DF-RHF Final Energy:  -631.72870344425803

   => Energetics <=

    Nuclear Repulsion Energy =            998.8763819551812730
    One-Electron Energy =               -2840.9659390872179756
    Two-Electron Energy =                1210.3608536877784445
    Total Energy =                       -631.7287034442581444
  Basis Set: (AUG-CC-PVTZ AUX)
    Blend: AUG-CC-PVTZ-RI
    Molecular point group: c1

    Geometry (in Angstrom), charge = 0, multiplicity = 1:

       Center              X                  Y                   Z               Mass
    ------------   -----------------  -----------------  -----------------  -----------------
         O            0.032648868556     2.114778208871    -0.732875646129    15.994914619570
         N           -0.969274131444     0.187907908871    -0.066120946129    14.003074004430
         C           -2.271538131444     0.796067908871    -0.387708946129    12.000000000000
         C           -3.232870131444    -0.311556091129    -0.827610946129    12.000000000000
         C           -3.315735131444    -1.460260091129     0.176914053871    12.000000000000
         C           -1.919620131444    -2.011090091129     0.459937053871    12.000000000000
         C           -0.994701131444    -0.892793091129     0.922593053871    12.000000000000
         C           -2.794378131444     1.657151908871     0.761412053871    12.000000000000
         C            0.147476868556     0.956240908871    -0.308102946129    12.000000000000
         C            1.485331868556     0.310702908871    -0.115749946129    12.000000000000
         C            1.777392868556    -0.951891091129    -0.649856946129    12.000000000000
         C            2.496228868556     1.054885908871     0.503786053871    12.000000000000
         C            3.066481868556    -1.474753091129    -0.538274946129    12.000000000000
         C            3.778493868556     0.521295908871     0.628492053871    12.000000000000
         C            4.066211868556    -0.743774091129     0.108349053871    12.000000000000
         H           -2.080313131444     1.459169908871    -1.235342946129     1.007825032230
         H           -2.881921131444    -0.706334091129    -1.789428946129     1.007825032230
         H           -4.223789131444     0.125500908871    -1.001830946129     1.007825032230
         H           -3.969637131444    -2.250612091129    -0.209316946129     1.007825032230
         H           -3.766453131444    -1.112853091129     1.115218053871     1.007825032230
         H           -1.955384131444    -2.794090091129     1.227186053871     1.007825032230
         H           -1.505825131444    -2.461506091129    -0.451165946129     1.007825032230
         H           -1.348006131444    -0.502802091129     1.889456053871     1.007825032230
         H            0.021485868556    -1.255421091129     1.075575053871     1.007825032230
         H           -3.734535131444     2.137814908871     0.471950053871     1.007825032230
         H           -2.980560131444     1.075146908871     1.667857053871     1.007825032230
         H           -2.063674131444     2.437722908871     0.986525053871     1.007825032230
         H            0.999599868556    -1.508877091129    -1.168766946129     1.007825032230
         H            2.265291868556     2.050787908871     0.873544053871     1.007825032230
         H            3.293481868556    -2.449751091129    -0.963283946129     1.007825032230
         H            4.558573868556     1.096648908871     1.121429053871     1.007825032230
         H            5.068882868556    -1.154768091129     0.198632053871     1.007825032230

  Basis Set: AUG-CC-PVTZ
    Blend: AUG-CC-PVTZ
  Basis Set: (AUG-CC-PVTZ AUX)
    Blend: AUG-CC-PVTZ-JKFIT
	 Reference Energy          =    -631.7287034442580307 [Eh]
	 Singles Energy            =      -0.0000000000000000 [Eh]
	 Same-Spin Energy          =      -0.6887148271271575 [Eh]
	 Opposite-Spin Energy      =      -2.2116601769208439 [Eh]
	 Correlation Energy        =      -2.9003750040480014 [Eh]
	 Total Energy              =    -634.6290784483060179 [Eh]

	 ================> DF-SCS-MP2 Energies <==================
	-----------------------------------------------------------
	 SCS Same-Spin Scale       =       0.3333333333333333 [-]
	 SCS Opposite-Spin Scale   =       1.2000000000000000 [-]
	 SCS Same-Spin Energy      =      -0.2295716090423858 [Eh]
	 SCS Opposite-Spin Energy  =      -2.6539922123050128 [Eh]
	 SCS Correlation Energy    =      -2.8835638213473986 [Eh]
	 SCS Total Energy          =    -634.6122672656053965 [Eh]
	-----------------------------------------------------------

  Dipole Moment: [D]
     X:    -0.6575      Y:    -3.1319      Z:     1.4565     Total:     3.5160

*** Psi4 exiting successfully. Buy a developer a beer!
