                               Psi4 1.3.2 release

  ==> Input File <==

--------------------------------------------------------------------------
#psi4
#
memory 32 gb

molecule  {
0 1
  O        0.1371160     2.1442200    -0.7498900
  N       -0.9079200     0.2138270    -0.0832910
  C       -2.2101840     0.8219870    -0.4048790
  C       -3.1715160    -0.2856370    -0.8447810
  C       -3.2543810    -1.4343410     0.1597440
  C       -1.8582660    -1.9851710     0.4427670
  C       -0.9333470    -0.8668740     0.9054230
  C       -2.7330240     1.6830710     0.7442420
  C        0.2256746     1.0231963    -0.2976005
  C        1.5466860     0.3366220    -0.1329200
  C        1.8387470    -0.9259720    -0.6670270
  C        2.5575830     1.0808050     0.4866160
  C        3.1278360    -1.4488340    -0.5554450
  C        3.8398480     0.5472150     0.6113220
  C        4.1275660    -0.7178550     0.0911790
  H       -2.0189590     1.4850890    -1.2525130
  H       -2.8205670    -0.6804150    -1.8065990
  H       -4.1624350     0.1514200    -1.0190010
  H       -3.9082830    -2.2246930    -0.2264870
  H       -3.7050990    -1.0869340     1.0980480
  H       -1.8940300    -2.7681710     1.2100160
  H       -1.4444710    -2.4355870    -0.4683360
  H       -1.2866520    -0.4768830     1.8722860
  H        0.0828400    -1.2295020     1.0584050
  H       -3.6731810     2.1637340     0.4547800
  H       -2.9192060     1.1010660     1.6506870
  H       -2.0023200     2.4636420     0.9693550
  H        1.0609540    -1.4829580    -1.1859370
  H        2.3266460     2.0767070     0.8563740
  H        3.3548360    -2.4238320    -0.9804540
  H        4.6199280     1.1225680     1.1042590
  H        5.1302370    -1.1288490     0.1814620
units angstrom
no_reorient  #important for SAPT in psi4, default
symmetry c1  #important for SAPT in psi4, default
}

set PROPERTIES_ORIGIN ["COM"]
properties('MP2/aug-cc-pvtz', properties = ['dipole'])
--------------------------------------------------------------------------

    Molecular point group: c1
  Charge       = 0
  Multiplicity = 1
  Basis Set: AUG-CC-PVTZ
    Blend: AUG-CC-PVTZ
  Basis Set: (AUG-CC-PVTZ AUX)
    Blend: AUG-CC-PVTZ-JKFIT

    Orbital Energies [Eh]
    ---------------------

    Doubly Occupied:

       1A    -20.522413     2A    -15.573647     3A    -11.349972
       4A    -11.261580     5A    -11.255205     6A    -11.251176
       7A    -11.249965     8A    -11.247901     9A    -11.245736
      10A    -11.245473    11A    -11.243340    12A    -11.227454
      13A    -11.224545    14A    -11.221246    15A    -11.209564
      16A     -1.386635    17A     -1.240958    18A     -1.161362
      19A     -1.080600    20A     -1.050262    21A     -1.031073
      22A     -1.023366    23A     -0.955395    24A     -0.893888
      25A     -0.863711    26A     -0.838038    27A     -0.831588
      28A     -0.783461    29A     -0.728314    30A     -0.715881
      31A     -0.683465    32A     -0.655050    33A     -0.638092
      34A     -0.629021    35A     -0.626435    36A     -0.604151
      37A     -0.600624    38A     -0.594142    39A     -0.586445
      40A     -0.577016    41A     -0.563210    42A     -0.545103
      43A     -0.526567    44A     -0.518892    45A     -0.509279
      46A     -0.503089    47A     -0.496129    48A     -0.491804
      49A     -0.469300    50A     -0.461446    51A     -0.449305
      52A     -0.422904    53A     -0.366047    54A     -0.344867
      55A     -0.342707

  @DF-RHF Final Energy:  -631.72825718448564

   => Energetics <=

    Nuclear Repulsion Energy =            998.4492421113604905
    One-Electron Energy =               -2840.1173166136104555
    Two-Electron Energy =                1209.9398173177644367
    Total Energy =                       -631.7282571844855283
  Basis Set: (AUG-CC-PVTZ AUX)
    Blend: AUG-CC-PVTZ-RI
    Molecular point group: c1

    Geometry (in Angstrom), charge = 0, multiplicity = 1:

       Center              X                  Y                   Z               Mass
    ------------   -----------------  -----------------  -----------------  -----------------
         O            0.071372031988     2.115599298347    -0.734366963989    15.994914619570
         N           -0.973663968012     0.185206298347    -0.067767963989    14.003074004430
         C           -2.275927968012     0.793366298347    -0.389355963989    12.000000000000
         C           -3.237259968012    -0.314257701653    -0.829257963989    12.000000000000
         C           -3.320124968012    -1.462961701653     0.175267036011    12.000000000000
         C           -1.924009968012    -2.013791701653     0.458290036011    12.000000000000
         C           -0.999090968012    -0.895494701653     0.920946036011    12.000000000000
         C           -2.798767968012     1.654450298347     0.759765036011    12.000000000000
         C            0.159930631988     0.994575598347    -0.282077463989    12.000000000000
         C            1.480942031988     0.308001298347    -0.117396963989    12.000000000000
         C            1.773003031988    -0.954592701653    -0.651503963989    12.000000000000
         C            2.491839031988     1.052184298347     0.502139036011    12.000000000000
         C            3.062092031988    -1.477454701653    -0.539921963989    12.000000000000
         C            3.774104031988     0.518594298347     0.626845036011    12.000000000000
         C            4.061822031988    -0.746475701653     0.106702036011    12.000000000000
         H           -2.084702968012     1.456468298347    -1.236989963989     1.007825032230
         H           -2.886310968012    -0.709035701653    -1.791075963989     1.007825032230
         H           -4.228178968012     0.122799298347    -1.003477963989     1.007825032230
         H           -3.974026968012    -2.253313701653    -0.210963963989     1.007825032230
         H           -3.770842968012    -1.115554701653     1.113571036011     1.007825032230
         H           -1.959773968012    -2.796791701653     1.225539036011     1.007825032230
         H           -1.510214968012    -2.464207701653    -0.452812963989     1.007825032230
         H           -1.352395968012    -0.505503701653     1.887809036011     1.007825032230
         H            0.017096031988    -1.258122701653     1.073928036011     1.007825032230
         H           -3.738924968012     2.135113298347     0.470303036011     1.007825032230
         H           -2.984949968012     1.072445298347     1.666210036011     1.007825032230
         H           -2.068063968012     2.435021298347     0.984878036011     1.007825032230
         H            0.995210031988    -1.511578701653    -1.170413963989     1.007825032230
         H            2.260902031988     2.048086298347     0.871897036011     1.007825032230
         H            3.289092031988    -2.452452701653    -0.964930963989     1.007825032230
         H            4.554184031988     1.093947298347     1.119782036011     1.007825032230
         H            5.064493031988    -1.157469701653     0.196985036011     1.007825032230

  Basis Set: AUG-CC-PVTZ
    Blend: AUG-CC-PVTZ
  Basis Set: (AUG-CC-PVTZ AUX)
    Blend: AUG-CC-PVTZ-JKFIT
	 Reference Energy          =    -631.7282571844856420 [Eh]
	 Singles Energy            =      -0.0000000000000000 [Eh]
	 Same-Spin Energy          =      -0.6882321559586998 [Eh]
	 Opposite-Spin Energy      =      -2.2109269723581590 [Eh]
	 Correlation Energy        =      -2.8991591283168590 [Eh]
	 Total Energy              =    -634.6274163128025521 [Eh]

	 ================> DF-SCS-MP2 Energies <==================
	-----------------------------------------------------------
	 SCS Same-Spin Scale       =       0.3333333333333333 [-]
	 SCS Opposite-Spin Scale   =       1.2000000000000000 [-]
	 SCS Same-Spin Energy      =      -0.2294107186528999 [Eh]
	 SCS Opposite-Spin Energy  =      -2.6531123668297907 [Eh]
	 SCS Correlation Energy    =      -2.8825230854826907 [Eh]
	 SCS Total Energy          =    -634.6107802699683589 [Eh]
	-----------------------------------------------------------

  Dipole Moment: [D]
     X:    -0.6186      Y:    -2.9088      Z:     1.3866     Total:     3.2812

*** Psi4 exiting successfully. Buy a developer a beer!
