                               Psi4 1.3.2 release

  ==> Input File <==

--------------------------------------------------------------------------
#psi4
#
memory 32 gb

molecule  {
0 1
  O        0.0082497     2.1322177    -0.7411582
  N       -0.9079200     0.2138270    -0.0832910
  C       -2.2101840     0.8219870    -0.4048790
  C       -3.1715160    -0.2856370    -0.8447810
  C       -3.2543810    -1.4343410     0.1597440
  C       -1.8582660    -1.9851710     0.4427670
  C       -0.9333470    -0.8668740     0.9054230
  C       -2.7330240     1.6830710     0.7442420
  C        0.2088310     0.9821600    -0.3252730
  C        1.5466860     0.3366220    -0.1329200
  C        1.8387470    -0.9259720    -0.6670270
  C        2.5575830     1.0808050     0.4866160
  C        3.1278360    -1.4488340    -0.5554450
  C        3.8398480     0.5472150     0.6113220
  C        4.1275660    -0.7178550     0.0911790
  H       -2.0189590     1.4850890    -1.2525130
  H       -2.8205670    -0.6804150    -1.8065990
  H       -4.1624350     0.1514200    -1.0190010
  H       -3.9082830    -2.2246930    -0.2264870
  H       -3.7050990    -1.0869340     1.0980480
  H       -1.8940300    -2.7681710     1.2100160
  H       -1.4444710    -2.4355870    -0.4683360
  H       -1.2866520    -0.4768830     1.8722860
  H        0.0828400    -1.2295020     1.0584050
  H       -3.6731810     2.1637340     0.4547800
  H       -2.9192060     1.1010660     1.6506870
  H       -2.0023200     2.4636420     0.9693550
  H        1.0609540    -1.4829580    -1.1859370
  H        2.3266460     2.0767070     0.8563740
  H        3.3548360    -2.4238320    -0.9804540
  H        4.6199280     1.1225680     1.1042590
  H        5.1302370    -1.1288490     0.1814620
units angstrom
no_reorient  #important for SAPT in psi4, default
symmetry c1  #important for SAPT in psi4, default
}

set PROPERTIES_ORIGIN ["COM"]
properties('MP2/aug-cc-pvtz', properties = ['dipole'])
--------------------------------------------------------------------------

    Molecular point group: c1
  Charge       = 0
  Multiplicity = 1
  Basis Set: AUG-CC-PVTZ
    Blend: AUG-CC-PVTZ
  Basis Set: (AUG-CC-PVTZ AUX)
    Blend: AUG-CC-PVTZ-JKFIT

    Orbital Energies [Eh]
    ---------------------

    Doubly Occupied:

       1A    -20.511662     2A    -15.573107     3A    -11.348464
       4A    -11.261715     5A    -11.255536     6A    -11.253739
       7A    -11.252681     8A    -11.251200     9A    -11.249669
      10A    -11.248244    11A    -11.246301    12A    -11.227077
      13A    -11.223699    14A    -11.219808    15A    -11.207212
      16A     -1.370288    17A     -1.238795    18A     -1.164730
      19A     -1.081898    20A     -1.050518    21A     -1.032954
      22A     -1.026400    23A     -0.956036    24A     -0.895243
      25A     -0.865613    26A     -0.840094    27A     -0.832165
      28A     -0.786076    29A     -0.728828    30A     -0.716048
      31A     -0.683761    32A     -0.655514    33A     -0.639197
      34A     -0.628790    35A     -0.623072    36A     -0.606051
      37A     -0.598958    38A     -0.595866    39A     -0.584315
      40A     -0.574571    41A     -0.562270    42A     -0.541611
      43A     -0.526783    44A     -0.516937    45A     -0.509179
      46A     -0.505635    47A     -0.492368    48A     -0.490999
      49A     -0.466825    50A     -0.458832    51A     -0.447599
      52A     -0.420036    53A     -0.362963    54A     -0.347637
      55A     -0.346625

  @DF-RHF Final Energy:  -631.72530560774635

   => Energetics <=

    Nuclear Repulsion Energy =            999.4382849478184880
    One-Electron Energy =               -2842.1227961072759172
    Two-Electron Energy =                1210.9592055517111930
    Total Energy =                       -631.7253056077463498
  Basis Set: (AUG-CC-PVTZ AUX)
    Blend: AUG-CC-PVTZ-RI
    Molecular point group: c1

    Geometry (in Angstrom), charge = 0, multiplicity = 1:

       Center              X                  Y                   Z               Mass
    ------------   -----------------  -----------------  -----------------  -----------------
         O           -0.046352056789     2.106966308378    -0.724687964442    15.994914619570
         N           -0.962521756789     0.188575608378    -0.066820764442    14.003074004430
         C           -2.264785756789     0.796735608378    -0.388408764442    12.000000000000
         C           -3.226117756789    -0.310888391622    -0.828310764442    12.000000000000
         C           -3.308982756789    -1.459592391622     0.176214235558    12.000000000000
         C           -1.912867756789    -2.010422391622     0.459237235558    12.000000000000
         C           -0.987948756789    -0.892125391622     0.921893235558    12.000000000000
         C           -2.787625756789     1.657819608378     0.760712235558    12.000000000000
         C            0.154229243211     0.956908608378    -0.308802764442    12.000000000000
         C            1.492084243211     0.311370608378    -0.116449764442    12.000000000000
         C            1.784145243211    -0.951223391622    -0.650556764442    12.000000000000
         C            2.502981243211     1.055553608378     0.503086235558    12.000000000000
         C            3.073234243211    -1.474085391622    -0.538974764442    12.000000000000
         C            3.785246243211     0.521963608378     0.627792235558    12.000000000000
         C            4.072964243211    -0.743106391622     0.107649235558    12.000000000000
         H           -2.073560756789     1.459837608378    -1.236042764442     1.007825032230
         H           -2.875168756789    -0.705666391622    -1.790128764442     1.007825032230
         H           -4.217036756789     0.126168608378    -1.002530764442     1.007825032230
         H           -3.962884756789    -2.249944391622    -0.210016764442     1.007825032230
         H           -3.759700756789    -1.112185391622     1.114518235558     1.007825032230
         H           -1.948631756789    -2.793422391622     1.226486235558     1.007825032230
         H           -1.499072756789    -2.460838391622    -0.451865764442     1.007825032230
         H           -1.341253756789    -0.502134391622     1.888756235558     1.007825032230
         H            0.028238243211    -1.254753391622     1.074875235558     1.007825032230
         H           -3.727782756789     2.138482608378     0.471250235558     1.007825032230
         H           -2.973807756789     1.075814608378     1.667157235558     1.007825032230
         H           -2.056921756789     2.438390608378     0.985825235558     1.007825032230
         H            1.006352243211    -1.508209391622    -1.169466764442     1.007825032230
         H            2.272044243211     2.051455608378     0.872844235558     1.007825032230
         H            3.300234243211    -2.449083391622    -0.963983764442     1.007825032230
         H            4.565326243211     1.097316608378     1.120729235558     1.007825032230
         H            5.075635243211    -1.154100391622     0.197932235558     1.007825032230

  Basis Set: AUG-CC-PVTZ
    Blend: AUG-CC-PVTZ
  Basis Set: (AUG-CC-PVTZ AUX)
    Blend: AUG-CC-PVTZ-JKFIT
	 Reference Energy          =    -631.7253056077463498 [Eh]
	 Singles Energy            =      -0.0000000000000000 [Eh]
	 Same-Spin Energy          =      -0.6890136043853291 [Eh]
	 Opposite-Spin Energy      =      -2.2119990458022971 [Eh]
	 Correlation Energy        =      -2.9010126501876261 [Eh]
	 Total Energy              =    -634.6263182579340310 [Eh]

	 ================> DF-SCS-MP2 Energies <==================
	-----------------------------------------------------------
	 SCS Same-Spin Scale       =       0.3333333333333333 [-]
	 SCS Opposite-Spin Scale   =       1.2000000000000000 [-]
	 SCS Same-Spin Energy      =      -0.2296712014617764 [Eh]
	 SCS Opposite-Spin Energy  =      -2.6543988549627566 [Eh]
	 SCS Correlation Energy    =      -2.8840700564245330 [Eh]
	 SCS Total Energy          =    -634.6093756641708978 [Eh]
	-----------------------------------------------------------

  Dipole Moment: [D]
     X:    -0.3059      Y:    -3.1265      Z:     1.4257     Total:     3.4498

*** Psi4 exiting successfully. Buy a developer a beer!
