                               Psi4 1.3.2 release

  ==> Input File <==

--------------------------------------------------------------------------
#psi4
#
memory 32 gb

molecule  {
0 1
  O        0.1371160     2.1442200    -0.7498900
  N       -0.9218080     0.2325900    -0.0890022
  C       -2.2101840     0.8219870    -0.4048790
  C       -3.1715160    -0.2856370    -0.8447810
  C       -3.2543810    -1.4343410     0.1597440
  C       -1.8582660    -1.9851710     0.4427670
  C       -0.9333470    -0.8668740     0.9054230
  C       -2.7330240     1.6830710     0.7442420
  C        0.2088310     0.9821600    -0.3252730
  C        1.5466860     0.3366220    -0.1329200
  C        1.8387470    -0.9259720    -0.6670270
  C        2.5575830     1.0808050     0.4866160
  C        3.1278360    -1.4488340    -0.5554450
  C        3.8398480     0.5472150     0.6113220
  C        4.1275660    -0.7178550     0.0911790
  H       -2.0189590     1.4850890    -1.2525130
  H       -2.8205670    -0.6804150    -1.8065990
  H       -4.1624350     0.1514200    -1.0190010
  H       -3.9082830    -2.2246930    -0.2264870
  H       -3.7050990    -1.0869340     1.0980480
  H       -1.8940300    -2.7681710     1.2100160
  H       -1.4444710    -2.4355870    -0.4683360
  H       -1.2866520    -0.4768830     1.8722860
  H        0.0828400    -1.2295020     1.0584050
  H       -3.6731810     2.1637340     0.4547800
  H       -2.9192060     1.1010660     1.6506870
  H       -2.0023200     2.4636420     0.9693550
  H        1.0609540    -1.4829580    -1.1859370
  H        2.3266460     2.0767070     0.8563740
  H        3.3548360    -2.4238320    -0.9804540
  H        4.6199280     1.1225680     1.1042590
  H        5.1302370    -1.1288490     0.1814620
units angstrom
no_reorient  #important for SAPT in psi4, default
symmetry c1  #important for SAPT in psi4, default
}

set PROPERTIES_ORIGIN ["COM"]
properties('MP2/aug-cc-pvtz', properties = ['dipole'])
--------------------------------------------------------------------------

    Molecular point group: c1
  Charge       = 0
  Multiplicity = 1
  Basis Set: AUG-CC-PVTZ
    Blend: AUG-CC-PVTZ
  Basis Set: (AUG-CC-PVTZ AUX)
    Blend: AUG-CC-PVTZ-JKFIT

    Orbital Energies [Eh]
    ---------------------

    Doubly Occupied:

       1A    -20.513153     2A    -15.578693     3A    -11.348571
       4A    -11.266293     5A    -11.255776     6A    -11.251479
       7A    -11.250004     8A    -11.247911     9A    -11.245928
      10A    -11.245506    11A    -11.243506    12A    -11.229892
      13A    -11.226262    14A    -11.222680    15A    -11.209757
      16A     -1.368522    17A     -1.245986    18A     -1.161320
      19A     -1.084231    20A     -1.053216    21A     -1.030546
      22A     -1.023411    23A     -0.958676    24A     -0.896635
      25A     -0.867139    26A     -0.837837    27A     -0.833077
      28A     -0.787877    29A     -0.729009    30A     -0.717766
      31A     -0.682013    32A     -0.653753    33A     -0.638567
      34A     -0.628061    35A     -0.626015    36A     -0.606748
      37A     -0.599154    38A     -0.593861    39A     -0.587513
      40A     -0.576306    41A     -0.564536    42A     -0.542475
      43A     -0.526162    44A     -0.519369    45A     -0.507795
      46A     -0.503146    47A     -0.493796    48A     -0.492678
      49A     -0.469913    50A     -0.463751    51A     -0.449895
      52A     -0.421336    53A     -0.366567    54A     -0.344906
      55A     -0.342209

  @DF-RHF Final Energy:  -631.72879318492278

   => Energetics <=

    Nuclear Repulsion Energy =            998.6692987711930982
    One-Electron Energy =               -2840.5338133333470978
    Two-Electron Energy =                1210.1357213772312207
    Total Energy =                       -631.7287931849227789
  Basis Set: (AUG-CC-PVTZ AUX)
    Blend: AUG-CC-PVTZ-RI
    Molecular point group: c1

    Geometry (in Angstrom), charge = 0, multiplicity = 1:

       Center              X                  Y                   Z               Mass
    ------------   -----------------  -----------------  -----------------  -----------------
         O            0.073324456109     2.116730075561    -0.732338497986    15.994914619570
         N           -0.985599543891     0.205100075561    -0.071450697986    14.003074004430
         C           -2.273975543891     0.794497075561    -0.387327497986    12.000000000000
         C           -3.235307543891    -0.313126924439    -0.827229497986    12.000000000000
         C           -3.318172543891    -1.461830924439     0.177295502014    12.000000000000
         C           -1.922057543891    -2.012660924439     0.460318502014    12.000000000000
         C           -0.997138543891    -0.894363924439     0.922974502014    12.000000000000
         C           -2.796815543891     1.655581075561     0.761793502014    12.000000000000
         C            0.145039456109     0.954670075561    -0.307721497986    12.000000000000
         C            1.482894456109     0.309132075561    -0.115368497986    12.000000000000
         C            1.774955456109    -0.953461924439    -0.649475497986    12.000000000000
         C            2.493791456109     1.053315075561     0.504167502014    12.000000000000
         C            3.064044456109    -1.476323924439    -0.537893497986    12.000000000000
         C            3.776056456109     0.519725075561     0.628873502014    12.000000000000
         C            4.063774456109    -0.745344924439     0.108730502014    12.000000000000
         H           -2.082750543891     1.457599075561    -1.234961497986     1.007825032230
         H           -2.884358543891    -0.707904924439    -1.789047497986     1.007825032230
         H           -4.226226543891     0.123930075561    -1.001449497986     1.007825032230
         H           -3.972074543891    -2.252182924439    -0.208935497986     1.007825032230
         H           -3.768890543891    -1.114423924439     1.115599502014     1.007825032230
         H           -1.957821543891    -2.795660924439     1.227567502014     1.007825032230
         H           -1.508262543891    -2.463076924439    -0.450784497986     1.007825032230
         H           -1.350443543891    -0.504372924439     1.889837502014     1.007825032230
         H            0.019048456109    -1.256991924439     1.075956502014     1.007825032230
         H           -3.736972543891     2.136244075561     0.472331502014     1.007825032230
         H           -2.982997543891     1.073576075561     1.668238502014     1.007825032230
         H           -2.066111543891     2.436152075561     0.986906502014     1.007825032230
         H            0.997162456109    -1.510447924439    -1.168385497986     1.007825032230
         H            2.262854456109     2.049217075561     0.873925502014     1.007825032230
         H            3.291044456109    -2.451321924439    -0.962902497986     1.007825032230
         H            4.556136456109     1.095078075561     1.121810502014     1.007825032230
         H            5.066445456109    -1.156338924439     0.199013502014     1.007825032230

  Basis Set: AUG-CC-PVTZ
    Blend: AUG-CC-PVTZ
  Basis Set: (AUG-CC-PVTZ AUX)
    Blend: AUG-CC-PVTZ-JKFIT
	 Reference Energy          =    -631.7287931849227789 [Eh]
	 Singles Energy            =      -0.0000000000000000 [Eh]
	 Same-Spin Energy          =      -0.6886041672690920 [Eh]
	 Opposite-Spin Energy      =      -2.2115310011549605 [Eh]
	 Correlation Energy        =      -2.9001351684240526 [Eh]
	 Total Energy              =    -634.6289283533468506 [Eh]

	 ================> DF-SCS-MP2 Energies <==================
	-----------------------------------------------------------
	 SCS Same-Spin Scale       =       0.3333333333333333 [-]
	 SCS Opposite-Spin Scale   =       1.2000000000000000 [-]
	 SCS Same-Spin Energy      =      -0.2295347224230307 [Eh]
	 SCS Opposite-Spin Energy  =      -2.6538372013859526 [Eh]
	 SCS Correlation Energy    =      -2.8833719238089834 [Eh]
	 SCS Total Energy          =    -634.6121651087318014 [Eh]
	-----------------------------------------------------------

  Dipole Moment: [D]
     X:    -0.7878      Y:    -3.1826      Z:     1.4792     Total:     3.5969

*** Psi4 exiting successfully. Buy a developer a beer!
