                               Psi4 1.3.2 release

  ==> Input File <==

--------------------------------------------------------------------------
#psi4
#
memory 32 gb

molecule  {
0 1
  O        0.1371160     2.1442200    -0.7498900
  N       -0.9079200     0.2138270    -0.0832910
  C       -2.2101840     0.8219870    -0.4048790
  C       -3.1715160    -0.2856370    -0.8447810
  C       -3.2543810    -1.4343410     0.1597440
  C       -1.8582660    -1.9851710     0.4427670
  C       -0.9333470    -0.8668740     0.9054230
  C       -2.7330240     1.6830710     0.7442420
  C        0.2088310     0.9821600    -0.3252730
  C        1.5466860     0.3366220    -0.1329200
  C        1.8387470    -0.9259720    -0.6670270
  C        2.5575830     1.0808050     0.4866160
  C        3.1278360    -1.4488340    -0.5554450
  C        3.8398480     0.5472150     0.6113220
  C        4.1275660    -0.7178550     0.0911790
  H       -2.0189590     1.4850890    -1.2525130
  H       -2.8205670    -0.6804150    -1.8065990
  H       -4.1624350     0.1514200    -1.0190010
  H       -3.9082830    -2.2246930    -0.2264870
  H       -3.7050990    -1.0869340     1.0980480
  H       -1.8940300    -2.7681710     1.2100160
  H       -1.4444710    -2.4355870    -0.4683360
  H       -1.2866520    -0.4768830     1.8722860
  H        0.0828400    -1.2295020     1.0584050
  H       -3.6731810     2.1637340     0.4547800
  H       -2.9192060     1.1010660     1.6506870
  H       -2.0023200     2.4636420     0.9693550
  H        1.0609540    -1.4829580    -1.1859370
  H        2.3266460     2.0767070     0.8563740
  H        3.3548360    -2.4238320    -0.9804540
  H        4.6199280     1.1225680     1.1042590
  H        5.1302370    -1.1288490     0.1814620
units angstrom
no_reorient  #important for SAPT in psi4, default
symmetry c1  #important for SAPT in psi4, default
}

set PROPERTIES_ORIGIN ["COM"]
properties('MP2/aug-cc-pvtz', properties = ['dipole'])
--------------------------------------------------------------------------

    Molecular point group: c1
  Charge       = 0
  Multiplicity = 1
  Basis Set: AUG-CC-PVTZ
    Blend: AUG-CC-PVTZ
  Basis Set: (AUG-CC-PVTZ AUX)
    Blend: AUG-CC-PVTZ-JKFIT

    Orbital Energies [Eh]
    ---------------------

    Doubly Occupied:

       1A    -20.514367     2A    -15.579134     3A    -11.349030
       4A    -11.265079     5A    -11.257665     6A    -11.250624
       7A    -11.249392     8A    -11.247503     9A    -11.245414
      10A    -11.245117    11A    -11.243112    12A    -11.229539
      13A    -11.226271    14A    -11.222966    15A    -11.210775
      16A     -1.368539    17A     -1.246423    18A     -1.160811
      19A     -1.084776    20A     -1.052449    21A     -1.030801
      22A     -1.023018    23A     -0.959190    24A     -0.897291
      25A     -0.865546    26A     -0.837382    27A     -0.833322
      28A     -0.786800    29A     -0.729004    30A     -0.717895
      31A     -0.681873    32A     -0.654819    33A     -0.638569
      34A     -0.627865    35A     -0.626148    36A     -0.606144
      37A     -0.598897    38A     -0.593473    39A     -0.586602
      40A     -0.577501    41A     -0.564600    42A     -0.542958
      43A     -0.526113    44A     -0.519504    45A     -0.507626
      46A     -0.502845    47A     -0.493789    48A     -0.492668
      49A     -0.469880    50A     -0.462396    51A     -0.451443
      52A     -0.421014    53A     -0.368035    54A     -0.344508
      55A     -0.341813

  @DF-RHF Final Energy:  -631.72918174097322

   => Energetics <=

    Nuclear Repulsion Energy =            998.6635059262162031
    One-Electron Energy =               -2840.5247396690933783
    Two-Electron Energy =                1210.1320520019039577
    Total Energy =                       -631.7291817409732175
  Basis Set: (AUG-CC-PVTZ AUX)
    Blend: AUG-CC-PVTZ-RI
    Molecular point group: c1

    Geometry (in Angstrom), charge = 0, multiplicity = 1:

       Center              X                  Y                   Z               Mass
    ------------   -----------------  -----------------  -----------------  -----------------
         O            0.072367070589     2.118023524908    -0.732732206237    15.994914619570
         N           -0.972668929411     0.187630524908    -0.066133206237    14.003074004430
         C           -2.274932929411     0.795790524908    -0.387721206237    12.000000000000
         C           -3.236264929411    -0.311833475092    -0.827623206237    12.000000000000
         C           -3.319129929411    -1.460537475092     0.176901793763    12.000000000000
         C           -1.923014929411    -2.011367475092     0.459924793763    12.000000000000
         C           -0.998095929411    -0.893070475092     0.922580793763    12.000000000000
         C           -2.797772929411     1.656874524908     0.761399793763    12.000000000000
         C            0.144082070589     0.955963524908    -0.308115206237    12.000000000000
         C            1.481937070589     0.310425524908    -0.115762206237    12.000000000000
         C            1.773998070589    -0.952168475092    -0.649869206237    12.000000000000
         C            2.492834070589     1.054608524908     0.503773793763    12.000000000000
         C            3.063087070589    -1.475030475092    -0.538287206237    12.000000000000
         C            3.775099070589     0.521018524908     0.628479793763    12.000000000000
         C            4.062817070589    -0.744051475092     0.108336793763    12.000000000000
         H           -2.083707929411     1.458892524908    -1.235355206237     1.007825032230
         H           -2.885315929411    -0.706611475092    -1.789441206237     1.007825032230
         H           -4.227183929411     0.125223524908    -1.001843206237     1.007825032230
         H           -3.973031929411    -2.250889475092    -0.209329206237     1.007825032230
         H           -3.769847929411    -1.113130475092     1.115205793763     1.007825032230
         H           -1.958778929411    -2.794367475092     1.227173793763     1.007825032230
         H           -1.509219929411    -2.461783475092    -0.451178206237     1.007825032230
         H           -1.351400929411    -0.503079475092     1.889443793763     1.007825032230
         H            0.018091070589    -1.255698475092     1.075562793763     1.007825032230
         H           -3.737929929411     2.137537524908     0.471937793763     1.007825032230
         H           -2.983954929411     1.074869524908     1.667844793763     1.007825032230
         H           -2.067068929411     2.437445524908     0.986512793763     1.007825032230
         H            0.996205070589    -1.509154475092    -1.168779206237     1.007825032230
         H            2.261897070589     2.050510524908     0.873531793763     1.007825032230
         H            3.290087070589    -2.450028475092    -0.963296206237     1.007825032230
         H            4.555179070589     1.096371524908     1.121416793763     1.007825032230
         H            5.065488070589    -1.155045475092     0.198619793763     1.007825032230

  Basis Set: AUG-CC-PVTZ
    Blend: AUG-CC-PVTZ
  Basis Set: (AUG-CC-PVTZ AUX)
    Blend: AUG-CC-PVTZ-JKFIT
	 Reference Energy          =    -631.7291817409732175 [Eh]
	 Singles Energy            =      -0.0000000000000000 [Eh]
	 Same-Spin Energy          =      -0.6886288953723851 [Eh]
	 Opposite-Spin Energy      =      -2.2115968880791810 [Eh]
	 Correlation Energy        =      -2.9002257834515661 [Eh]
	 Total Energy              =    -634.6294075244247779 [Eh]

	 ================> DF-SCS-MP2 Energies <==================
	-----------------------------------------------------------
	 SCS Same-Spin Scale       =       0.3333333333333333 [-]
	 SCS Opposite-Spin Scale   =       1.2000000000000000 [-]
	 SCS Same-Spin Energy      =      -0.2295429651241284 [Eh]
	 SCS Opposite-Spin Energy  =      -2.6539162656950173 [Eh]
	 SCS Correlation Energy    =      -2.8834592308191458 [Eh]
	 SCS Total Energy          =    -634.6126409717924162 [Eh]
	-----------------------------------------------------------

  Dipole Moment: [D]
     X:    -0.8333      Y:    -3.1289      Z:     1.4636     Total:     3.5534

*** Psi4 exiting successfully. Buy a developer a beer!
