                               Psi4 1.3.2 release

  ==> Input File <==

--------------------------------------------------------------------------
#psi4
#
memory 32 gb

molecule  {
0 1
  O        0.1371160     2.1442200    -0.7498900
  N       -0.8987439     0.2371141    -0.0774379
  C       -2.2101840     0.8219870    -0.4048790
  C       -3.1715160    -0.2856370    -0.8447810
  C       -3.2543810    -1.4343410     0.1597440
  C       -1.8582660    -1.9851710     0.4427670
  C       -0.9333470    -0.8668740     0.9054230
  C       -2.7330240     1.6830710     0.7442420
  C        0.2088310     0.9821600    -0.3252730
  C        1.5466860     0.3366220    -0.1329200
  C        1.8387470    -0.9259720    -0.6670270
  C        2.5575830     1.0808050     0.4866160
  C        3.1278360    -1.4488340    -0.5554450
  C        3.8398480     0.5472150     0.6113220
  C        4.1275660    -0.7178550     0.0911790
  H       -2.0189590     1.4850890    -1.2525130
  H       -2.8205670    -0.6804150    -1.8065990
  H       -4.1624350     0.1514200    -1.0190010
  H       -3.9082830    -2.2246930    -0.2264870
  H       -3.7050990    -1.0869340     1.0980480
  H       -1.8940300    -2.7681710     1.2100160
  H       -1.4444710    -2.4355870    -0.4683360
  H       -1.2866520    -0.4768830     1.8722860
  H        0.0828400    -1.2295020     1.0584050
  H       -3.6731810     2.1637340     0.4547800
  H       -2.9192060     1.1010660     1.6506870
  H       -2.0023200     2.4636420     0.9693550
  H        1.0609540    -1.4829580    -1.1859370
  H        2.3266460     2.0767070     0.8563740
  H        3.3548360    -2.4238320    -0.9804540
  H        4.6199280     1.1225680     1.1042590
  H        5.1302370    -1.1288490     0.1814620
units angstrom
no_reorient  #important for SAPT in psi4, default
symmetry c1  #important for SAPT in psi4, default
}

set PROPERTIES_ORIGIN ["COM"]
properties('MP2/aug-cc-pvtz', properties = ['dipole'])
--------------------------------------------------------------------------

    Molecular point group: c1
  Charge       = 0
  Multiplicity = 1
  Basis Set: AUG-CC-PVTZ
    Blend: AUG-CC-PVTZ
  Basis Set: (AUG-CC-PVTZ AUX)
    Blend: AUG-CC-PVTZ-JKFIT

    Orbital Energies [Eh]
    ---------------------

    Doubly Occupied:

       1A    -20.509817     2A    -15.579839     3A    -11.345724
       4A    -11.267112     5A    -11.258413     6A    -11.250104
       7A    -11.248924     8A    -11.247045     9A    -11.244845
      10A    -11.244746    11A    -11.242684    12A    -11.231114
      13A    -11.227216    14A    -11.224290    15A    -11.210875
      16A     -1.367819    17A     -1.245925    18A     -1.160334
      19A     -1.087092    20A     -1.052822    21A     -1.030125
      22A     -1.022591    23A     -0.960926    24A     -0.898622
      25A     -0.866183    26A     -0.837067    27A     -0.833252
      28A     -0.788589    29A     -0.728730    30A     -0.717485
      31A     -0.681061    32A     -0.654744    33A     -0.639132
      34A     -0.628028    35A     -0.625844    36A     -0.606864
      37A     -0.599062    38A     -0.593244    39A     -0.588099
      40A     -0.575760    41A     -0.565405    42A     -0.543134
      43A     -0.525824    44A     -0.519287    45A     -0.507056
      46A     -0.502605    47A     -0.494395    48A     -0.492438
      49A     -0.470400    50A     -0.463232    51A     -0.451953
      52A     -0.419483    53A     -0.368204    54A     -0.344146
      55A     -0.341255

  @DF-RHF Final Energy:  -631.72951870648899

   => Energetics <=

    Nuclear Repulsion Energy =            998.7563299310254479
    One-Electron Energy =               -2840.7097653550536052
    Two-Electron Energy =                1210.2239167175391685
    Total Energy =                       -631.7295187064889888
  Basis Set: (AUG-CC-PVTZ AUX)
    Blend: AUG-CC-PVTZ-RI
    Molecular point group: c1

    Geometry (in Angstrom), charge = 0, multiplicity = 1:

       Center              X                  Y                   Z               Mass
    ------------   -----------------  -----------------  -----------------  -----------------
         O            0.071734505405     2.116418201437    -0.733135696530    15.994914619570
         N           -0.964125394595     0.209312301437    -0.060683596530    14.003074004430
         C           -2.275565494595     0.794185201437    -0.388124696530    12.000000000000
         C           -3.236897494595    -0.313438798563    -0.828026696530    12.000000000000
         C           -3.319762494595    -1.462142798563     0.176498303470    12.000000000000
         C           -1.923647494595    -2.012972798563     0.459521303470    12.000000000000
         C           -0.998728494595    -0.894675798563     0.922177303470    12.000000000000
         C           -2.798405494595     1.655269201437     0.760996303470    12.000000000000
         C            0.143449505405     0.954358201437    -0.308518696530    12.000000000000
         C            1.481304505405     0.308820201437    -0.116165696530    12.000000000000
         C            1.773365505405    -0.953773798563    -0.650272696530    12.000000000000
         C            2.492201505405     1.053003201437     0.503370303470    12.000000000000
         C            3.062454505405    -1.476635798563    -0.538690696530    12.000000000000
         C            3.774466505405     0.519413201437     0.628076303470    12.000000000000
         C            4.062184505405    -0.745656798563     0.107933303470    12.000000000000
         H           -2.084340494595     1.457287201437    -1.235758696530     1.007825032230
         H           -2.885948494595    -0.708216798563    -1.789844696530     1.007825032230
         H           -4.227816494595     0.123618201437    -1.002246696530     1.007825032230
         H           -3.973664494595    -2.252494798563    -0.209732696530     1.007825032230
         H           -3.770480494595    -1.114735798563     1.114802303470     1.007825032230
         H           -1.959411494595    -2.795972798563     1.226770303470     1.007825032230
         H           -1.509852494595    -2.463388798563    -0.451581696530     1.007825032230
         H           -1.352033494595    -0.504684798563     1.889040303470     1.007825032230
         H            0.017458505405    -1.257303798563     1.075159303470     1.007825032230
         H           -3.738562494595     2.135932201437     0.471534303470     1.007825032230
         H           -2.984587494595     1.073264201437     1.667441303470     1.007825032230
         H           -2.067701494595     2.435840201437     0.986109303470     1.007825032230
         H            0.995572505405    -1.510759798563    -1.169182696530     1.007825032230
         H            2.261264505405     2.048905201437     0.873128303470     1.007825032230
         H            3.289454505405    -2.451633798563    -0.963699696530     1.007825032230
         H            4.554546505405     1.094766201437     1.121013303470     1.007825032230
         H            5.064855505405    -1.156650798563     0.198216303470     1.007825032230

  Basis Set: AUG-CC-PVTZ
    Blend: AUG-CC-PVTZ
  Basis Set: (AUG-CC-PVTZ AUX)
    Blend: AUG-CC-PVTZ-JKFIT
	 Reference Energy          =    -631.7295187064889888 [Eh]
	 Singles Energy            =      -0.0000000000000000 [Eh]
	 Same-Spin Energy          =      -0.6884444804620112 [Eh]
	 Opposite-Spin Energy      =      -2.2112044771289758 [Eh]
	 Correlation Energy        =      -2.8996489575909870 [Eh]
	 Total Energy              =    -634.6291676640800006 [Eh]

	 ================> DF-SCS-MP2 Energies <==================
	-----------------------------------------------------------
	 SCS Same-Spin Scale       =       0.3333333333333333 [-]
	 SCS Opposite-Spin Scale   =       1.2000000000000000 [-]
	 SCS Same-Spin Energy      =      -0.2294814934873371 [Eh]
	 SCS Opposite-Spin Energy  =      -2.6534453725547711 [Eh]
	 SCS Correlation Energy    =      -2.8829268660421081 [Eh]
	 SCS Total Energy          =    -634.6124455725311009 [Eh]
	-----------------------------------------------------------

  Dipole Moment: [D]
     X:    -0.9446      Y:    -3.2423      Z:     1.4899     Total:     3.6911

*** Psi4 exiting successfully. Buy a developer a beer!
