                               Psi4 1.3.2 release

  ==> Input File <==

--------------------------------------------------------------------------
#psi4
#
memory 32 gb

molecule  {
0 1
  O        0.1371160     2.1442200    -0.7498900
  N       -0.8490099     0.1411714    -0.0612004
  C       -2.2101840     0.8219870    -0.4048790
  C       -3.1715160    -0.2856370    -0.8447810
  C       -3.2543810    -1.4343410     0.1597440
  C       -1.8582660    -1.9851710     0.4427670
  C       -0.9333470    -0.8668740     0.9054230
  C       -2.7330240     1.6830710     0.7442420
  C        0.2088310     0.9821600    -0.3252730
  C        1.5466860     0.3366220    -0.1329200
  C        1.8387470    -0.9259720    -0.6670270
  C        2.5575830     1.0808050     0.4866160
  C        3.1278360    -1.4488340    -0.5554450
  C        3.8398480     0.5472150     0.6113220
  C        4.1275660    -0.7178550     0.0911790
  H       -2.0189590     1.4850890    -1.2525130
  H       -2.8205670    -0.6804150    -1.8065990
  H       -4.1624350     0.1514200    -1.0190010
  H       -3.9082830    -2.2246930    -0.2264870
  H       -3.7050990    -1.0869340     1.0980480
  H       -1.8940300    -2.7681710     1.2100160
  H       -1.4444710    -2.4355870    -0.4683360
  H       -1.2866520    -0.4768830     1.8722860
  H        0.0828400    -1.2295020     1.0584050
  H       -3.6731810     2.1637340     0.4547800
  H       -2.9192060     1.1010660     1.6506870
  H       -2.0023200     2.4636420     0.9693550
  H        1.0609540    -1.4829580    -1.1859370
  H        2.3266460     2.0767070     0.8563740
  H        3.3548360    -2.4238320    -0.9804540
  H        4.6199280     1.1225680     1.1042590
  H        5.1302370    -1.1288490     0.1814620
units angstrom
no_reorient  #important for SAPT in psi4, default
symmetry c1  #important for SAPT in psi4, default
}

set PROPERTIES_ORIGIN ["COM"]
properties('MP2/aug-cc-pvtz', properties = ['dipole'])
--------------------------------------------------------------------------

    Molecular point group: c1
  Charge       = 0
  Multiplicity = 1
  Basis Set: AUG-CC-PVTZ
    Blend: AUG-CC-PVTZ
  Basis Set: (AUG-CC-PVTZ AUX)
    Blend: AUG-CC-PVTZ-JKFIT

    Orbital Energies [Eh]
    ---------------------

    Doubly Occupied:

       1A    -20.519379     2A    -15.580454     3A    -11.351672
       4A    -11.264916     5A    -11.260250     6A    -11.248074
       7A    -11.246236     8A    -11.245907     9A    -11.243612
      10A    -11.243372    11A    -11.241557    12A    -11.228192
      13A    -11.226304    14A    -11.224219    15A    -11.214746
      16A     -1.369306    17A     -1.251369    18A     -1.158868
      19A     -1.087309    20A     -1.049488    21A     -1.031523
      22A     -1.021436    23A     -0.961441    24A     -0.901000
      25A     -0.859230    26A     -0.836591    27A     -0.834017
      28A     -0.782426    29A     -0.730542    30A     -0.717105
      31A     -0.681913    32A     -0.659502    33A     -0.639122
      34A     -0.627582    35A     -0.626901    36A     -0.604713
      37A     -0.598988    38A     -0.592119    39A     -0.588174
      40A     -0.574725    41A     -0.565139    42A     -0.545230
      43A     -0.525308    44A     -0.519205    45A     -0.507218
      46A     -0.501857    47A     -0.493768    48A     -0.492559
      49A     -0.470348    50A     -0.458274    51A     -0.453716
      52A     -0.417455    53A     -0.372550    54A     -0.342945
      55A     -0.340269

  @DF-RHF Final Energy:  -631.71852573949639

   => Energetics <=

    Nuclear Repulsion Energy =            998.6803459505262026
    One-Electron Energy =               -2840.5374980895576300
    Two-Electron Energy =                1210.1386263995350419
    Total Energy =                       -631.7185257394962719
  Basis Set: (AUG-CC-PVTZ AUX)
    Blend: AUG-CC-PVTZ-RI
    Molecular point group: c1

    Geometry (in Angstrom), charge = 0, multiplicity = 1:

       Center              X                  Y                   Z               Mass
    ------------   -----------------  -----------------  -----------------  -----------------
         O            0.068306033955     2.123032123658    -0.734255047581    15.994914619570
         N           -0.917819866045     0.119983523658    -0.045565447581    14.003074004430
         C           -2.278993966045     0.800799123658    -0.389244047581    12.000000000000
         C           -3.240325966045    -0.306824876342    -0.829146047581    12.000000000000
         C           -3.323190966045    -1.455528876342     0.175378952419    12.000000000000
         C           -1.927075966045    -2.006358876342     0.458401952419    12.000000000000
         C           -1.002156966045    -0.888061876342     0.921057952419    12.000000000000
         C           -2.801833966045     1.661883123658     0.759876952419    12.000000000000
         C            0.140021033955     0.960972123658    -0.309638047581    12.000000000000
         C            1.477876033955     0.315434123658    -0.117285047581    12.000000000000
         C            1.769937033955    -0.947159876342    -0.651392047581    12.000000000000
         C            2.488773033955     1.059617123658     0.502250952419    12.000000000000
         C            3.059026033955    -1.470021876342    -0.539810047581    12.000000000000
         C            3.771038033955     0.526027123658     0.626956952419    12.000000000000
         C            4.058756033955    -0.739042876342     0.106813952419    12.000000000000
         H           -2.087768966045     1.463901123658    -1.236878047581     1.007825032230
         H           -2.889376966045    -0.701602876342    -1.790964047581     1.007825032230
         H           -4.231244966045     0.130232123658    -1.003366047581     1.007825032230
         H           -3.977092966045    -2.245880876342    -0.210852047581     1.007825032230
         H           -3.773908966045    -1.108121876342     1.113682952419     1.007825032230
         H           -1.962839966045    -2.789358876342     1.225650952419     1.007825032230
         H           -1.513280966045    -2.456774876342    -0.452701047581     1.007825032230
         H           -1.355461966045    -0.498070876342     1.887920952419     1.007825032230
         H            0.014030033955    -1.250689876342     1.074039952419     1.007825032230
         H           -3.741990966045     2.142546123658     0.470414952419     1.007825032230
         H           -2.988015966045     1.079878123658     1.666321952419     1.007825032230
         H           -2.071129966045     2.442454123658     0.984989952419     1.007825032230
         H            0.992144033955    -1.504145876342    -1.170302047581     1.007825032230
         H            2.257836033955     2.055519123658     0.872008952419     1.007825032230
         H            3.286026033955    -2.445019876342    -0.964819047581     1.007825032230
         H            4.551118033955     1.101380123658     1.119893952419     1.007825032230
         H            5.061427033955    -1.150036876342     0.197096952419     1.007825032230

  Basis Set: AUG-CC-PVTZ
    Blend: AUG-CC-PVTZ
  Basis Set: (AUG-CC-PVTZ AUX)
    Blend: AUG-CC-PVTZ-JKFIT
	 Reference Energy          =    -631.7185257394963855 [Eh]
	 Singles Energy            =      -0.0000000000000000 [Eh]
	 Same-Spin Energy          =      -0.6893499040309943 [Eh]
	 Opposite-Spin Energy      =      -2.2130067068468140 [Eh]
	 Correlation Energy        =      -2.9023566108778081 [Eh]
	 Total Energy              =    -634.6208823503742451 [Eh]

	 ================> DF-SCS-MP2 Energies <==================
	-----------------------------------------------------------
	 SCS Same-Spin Scale       =       0.3333333333333333 [-]
	 SCS Opposite-Spin Scale   =       1.2000000000000000 [-]
	 SCS Same-Spin Energy      =      -0.2297833013436648 [Eh]
	 SCS Opposite-Spin Energy  =      -2.6556080482161768 [Eh]
	 SCS Correlation Energy    =      -2.8853913495598418 [Eh]
	 SCS Total Energy          =    -634.6039170890562673 [Eh]
	-----------------------------------------------------------

  Dipole Moment: [D]
     X:    -1.0087      Y:    -2.9158      Z:     1.3956     Total:     3.3863

*** Psi4 exiting successfully. Buy a developer a beer!
