                               Psi4 1.3.2 release

  ==> Input File <==

--------------------------------------------------------------------------
#psi4
#
memory 32 gb

molecule  {
0 1
  O        0.1371160     2.1442200    -0.7498900
  N       -0.8791277     0.1770087    -0.0720914
  C       -2.2101840     0.8219870    -0.4048790
  C       -3.1715160    -0.2856370    -0.8447810
  C       -3.2543810    -1.4343410     0.1597440
  C       -1.8582660    -1.9851710     0.4427670
  C       -0.9333470    -0.8668740     0.9054230
  C       -2.7330240     1.6830710     0.7442420
  C        0.2088310     0.9821600    -0.3252730
  C        1.5466860     0.3366220    -0.1329200
  C        1.8387470    -0.9259720    -0.6670270
  C        2.5575830     1.0808050     0.4866160
  C        3.1278360    -1.4488340    -0.5554450
  C        3.8398480     0.5472150     0.6113220
  C        4.1275660    -0.7178550     0.0911790
  H       -2.0189590     1.4850890    -1.2525130
  H       -2.8205670    -0.6804150    -1.8065990
  H       -4.1624350     0.1514200    -1.0190010
  H       -3.9082830    -2.2246930    -0.2264870
  H       -3.7050990    -1.0869340     1.0980480
  H       -1.8940300    -2.7681710     1.2100160
  H       -1.4444710    -2.4355870    -0.4683360
  H       -1.2866520    -0.4768830     1.8722860
  H        0.0828400    -1.2295020     1.0584050
  H       -3.6731810     2.1637340     0.4547800
  H       -2.9192060     1.1010660     1.6506870
  H       -2.0023200     2.4636420     0.9693550
  H        1.0609540    -1.4829580    -1.1859370
  H        2.3266460     2.0767070     0.8563740
  H        3.3548360    -2.4238320    -0.9804540
  H        4.6199280     1.1225680     1.1042590
  H        5.1302370    -1.1288490     0.1814620
units angstrom
no_reorient  #important for SAPT in psi4, default
symmetry c1  #important for SAPT in psi4, default
}

set PROPERTIES_ORIGIN ["COM"]
properties('MP2/aug-cc-pvtz', properties = ['dipole'])
--------------------------------------------------------------------------

    Molecular point group: c1
  Charge       = 0
  Multiplicity = 1
  Basis Set: AUG-CC-PVTZ
    Blend: AUG-CC-PVTZ
  Basis Set: (AUG-CC-PVTZ AUX)
    Blend: AUG-CC-PVTZ-JKFIT

    Orbital Energies [Eh]
    ---------------------

    Doubly Occupied:

       1A    -20.516846     2A    -15.579880     3A    -11.350194
       4A    -11.262634     5A    -11.261375     6A    -11.249196
       7A    -11.247928     8A    -11.246698     9A    -11.244419
      10A    -11.244324    11A    -11.242329    12A    -11.228848
      13A    -11.226287    14A    -11.223573    15A    -11.212785
      16A     -1.368793    17A     -1.248296    18A     -1.159817
      19A     -1.085995    20A     -1.050899    21A     -1.031234
      22A     -1.022225    23A     -0.960279    24A     -0.898952
      25A     -0.862358    26A     -0.836676    27A     -0.833853
      28A     -0.784608    29A     -0.729520    30A     -0.717709
      31A     -0.681759    32A     -0.657130    33A     -0.638748
      34A     -0.627541    35A     -0.626541    36A     -0.605273
      37A     -0.598645    38A     -0.592764    39A     -0.586699
      40A     -0.577256    41A     -0.564808    42A     -0.544018
      43A     -0.525822    44A     -0.519533    45A     -0.507371
      46A     -0.502298    47A     -0.493808    48A     -0.492612
      49A     -0.470029    50A     -0.459541    51A     -0.453801
      52A     -0.419760    53A     -0.370554    54A     -0.343719
      55A     -0.341032

  @DF-RHF Final Energy:  -631.72622366869155

   => Energetics <=

    Nuclear Repulsion Energy =            998.6643610775532807
    One-Electron Energy =               -2840.5219860714901188
    Two-Electron Energy =                1210.1314013252454060
    Total Energy =                       -631.7262236686915458
  Basis Set: (AUG-CC-PVTZ AUX)
    Blend: AUG-CC-PVTZ-RI
    Molecular point group: c1

    Geometry (in Angstrom), charge = 0, multiplicity = 1:

       Center              X                  Y                   Z               Mass
    ------------   -----------------  -----------------  -----------------  -----------------
         O            0.070382239718     2.120561637474    -0.733504263760    15.994914619570
         N           -0.945861460282     0.153350337474    -0.055705663760    14.003074004430
         C           -2.276917760282     0.798328637474    -0.388493263760    12.000000000000
         C           -3.238249760282    -0.309295362526    -0.828395263760    12.000000000000
         C           -3.321114760282    -1.457999362526     0.176129736240    12.000000000000
         C           -1.924999760282    -2.008829362526     0.459152736240    12.000000000000
         C           -1.000080760282    -0.890532362526     0.921808736240    12.000000000000
         C           -2.799757760282     1.659412637474     0.760627736240    12.000000000000
         C            0.142097239718     0.958501637474    -0.308887263760    12.000000000000
         C            1.479952239718     0.312963637474    -0.116534263760    12.000000000000
         C            1.772013239718    -0.949630362526    -0.650641263760    12.000000000000
         C            2.490849239718     1.057146637474     0.503001736240    12.000000000000
         C            3.061102239718    -1.472492362526    -0.539059263760    12.000000000000
         C            3.773114239718     0.523556637474     0.627707736240    12.000000000000
         C            4.060832239718    -0.741513362526     0.107564736240    12.000000000000
         H           -2.085692760282     1.461430637474    -1.236127263760     1.007825032230
         H           -2.887300760282    -0.704073362526    -1.790213263760     1.007825032230
         H           -4.229168760282     0.127761637474    -1.002615263760     1.007825032230
         H           -3.975016760282    -2.248351362526    -0.210101263760     1.007825032230
         H           -3.771832760282    -1.110592362526     1.114433736240     1.007825032230
         H           -1.960763760282    -2.791829362526     1.226401736240     1.007825032230
         H           -1.511204760282    -2.459245362526    -0.451950263760     1.007825032230
         H           -1.353385760282    -0.500541362526     1.888671736240     1.007825032230
         H            0.016106239718    -1.253160362526     1.074790736240     1.007825032230
         H           -3.739914760282     2.140075637474     0.471165736240     1.007825032230
         H           -2.985939760282     1.077407637474     1.667072736240     1.007825032230
         H           -2.069053760282     2.439983637474     0.985740736240     1.007825032230
         H            0.994220239718    -1.506616362526    -1.169551263760     1.007825032230
         H            2.259912239718     2.053048637474     0.872759736240     1.007825032230
         H            3.288102239718    -2.447490362526    -0.964068263760     1.007825032230
         H            4.553194239718     1.098909637474     1.120644736240     1.007825032230
         H            5.063503239718    -1.152507362526     0.197847736240     1.007825032230

  Basis Set: AUG-CC-PVTZ
    Blend: AUG-CC-PVTZ
  Basis Set: (AUG-CC-PVTZ AUX)
    Blend: AUG-CC-PVTZ-JKFIT
	 Reference Energy          =    -631.7262236686915458 [Eh]
	 Singles Energy            =      -0.0000000000000000 [Eh]
	 Same-Spin Energy          =      -0.6888667087112131 [Eh]
	 Opposite-Spin Energy      =      -2.2120766805765086 [Eh]
	 Correlation Energy        =      -2.9009433892877219 [Eh]
	 Total Energy              =    -634.6271670579792499 [Eh]

	 ================> DF-SCS-MP2 Energies <==================
	-----------------------------------------------------------
	 SCS Same-Spin Scale       =       0.3333333333333333 [-]
	 SCS Opposite-Spin Scale   =       1.2000000000000000 [-]
	 SCS Same-Spin Energy      =      -0.2296222362370710 [Eh]
	 SCS Opposite-Spin Energy  =      -2.6544920166918105 [Eh]
	 SCS Correlation Energy    =      -2.8841142529288817 [Eh]
	 SCS Total Energy          =    -634.6103379216203848 [Eh]
	-----------------------------------------------------------

  Dipole Moment: [D]
     X:    -0.9228      Y:    -3.0215      Z:     1.4305     Total:     3.4681

*** Psi4 exiting successfully. Buy a developer a beer!
