                               Psi4 1.3.2 release

  ==> Input File <==

--------------------------------------------------------------------------
#psi4
#
memory 32 gb

molecule  {
0 1
  O        0.2667681     2.1434905    -0.7539696
  N       -0.9079200     0.2138270    -0.0832910
  C       -2.2101840     0.8219870    -0.4048790
  C       -3.1715160    -0.2856370    -0.8447810
  C       -3.2543810    -1.4343410     0.1597440
  C       -1.8582660    -1.9851710     0.4427670
  C       -0.9333470    -0.8668740     0.9054230
  C       -2.7330240     1.6830710     0.7442420
  C        0.2088310     0.9821600    -0.3252730
  C        1.5466860     0.3366220    -0.1329200
  C        1.8387470    -0.9259720    -0.6670270
  C        2.5575830     1.0808050     0.4866160
  C        3.1278360    -1.4488340    -0.5554450
  C        3.8398480     0.5472150     0.6113220
  C        4.1275660    -0.7178550     0.0911790
  H       -2.0189590     1.4850890    -1.2525130
  H       -2.8205670    -0.6804150    -1.8065990
  H       -4.1624350     0.1514200    -1.0190010
  H       -3.9082830    -2.2246930    -0.2264870
  H       -3.7050990    -1.0869340     1.0980480
  H       -1.8940300    -2.7681710     1.2100160
  H       -1.4444710    -2.4355870    -0.4683360
  H       -1.2866520    -0.4768830     1.8722860
  H        0.0828400    -1.2295020     1.0584050
  H       -3.6731810     2.1637340     0.4547800
  H       -2.9192060     1.1010660     1.6506870
  H       -2.0023200     2.4636420     0.9693550
  H        1.0609540    -1.4829580    -1.1859370
  H        2.3266460     2.0767070     0.8563740
  H        3.3548360    -2.4238320    -0.9804540
  H        4.6199280     1.1225680     1.1042590
  H        5.1302370    -1.1288490     0.1814620
units angstrom
no_reorient  #important for SAPT in psi4, default
symmetry c1  #important for SAPT in psi4, default
}

set PROPERTIES_ORIGIN ["COM"]
properties('MP2/aug-cc-pvtz', properties = ['dipole'])
--------------------------------------------------------------------------

    Molecular point group: c1
  Charge       = 0
  Multiplicity = 1
  Basis Set: AUG-CC-PVTZ
    Blend: AUG-CC-PVTZ
  Basis Set: (AUG-CC-PVTZ AUX)
    Blend: AUG-CC-PVTZ-JKFIT

    Orbital Energies [Eh]
    ---------------------

    Doubly Occupied:

       1A    -20.516626     2A    -15.585087     3A    -11.350010
       4A    -11.268130     5A    -11.262323     6A    -11.245839
       7A    -11.244696     8A    -11.243485     9A    -11.241735
      10A    -11.240948    11A    -11.239576    12A    -11.231806
      13A    -11.228660    14A    -11.225903    15A    -11.214304
      16A     -1.368520    17A     -1.253451    18A     -1.156602
      19A     -1.087568    20A     -1.054873    21A     -1.027591
      22A     -1.019325    23A     -0.962298    24A     -0.899563
      25A     -0.865426    26A     -0.836466    27A     -0.832053
      28A     -0.787481    29A     -0.730022    30A     -0.718475
      31A     -0.680380    32A     -0.654653    33A     -0.639010
      34A     -0.629157    35A     -0.625617    36A     -0.606325
      37A     -0.598991    38A     -0.591098    39A     -0.588287
      40A     -0.580185    41A     -0.566876    42A     -0.544634
      43A     -0.526708    44A     -0.521030    45A     -0.505774
      46A     -0.500543    47A     -0.495829    48A     -0.492046
      49A     -0.472704    50A     -0.465493    51A     -0.455249
      52A     -0.419813    53A     -0.372999    54A     -0.341189
      55A     -0.335977

  @DF-RHF Final Energy:  -631.72592591824377

   => Energetics <=

    Nuclear Repulsion Energy =            998.2709494674375037
    One-Electron Energy =               -2839.6949369398053022
    Two-Electron Energy =                1209.6980615541240240
    Total Energy =                       -631.7259259182437745
  Basis Set: (AUG-CC-PVTZ AUX)
    Blend: AUG-CC-PVTZ-RI
    Molecular point group: c1

    Geometry (in Angstrom), charge = 0, multiplicity = 1:

       Center              X                  Y                   Z               Mass
    ------------   -----------------  -----------------  -----------------  -----------------
         O            0.191810122609     2.117351467097    -0.736490570930    15.994914619570
         N           -0.982877977391     0.187687967097    -0.065811970930    14.003074004430
         C           -2.285141977391     0.795847967097    -0.387399970930    12.000000000000
         C           -3.246473977391    -0.311776032903    -0.827301970930    12.000000000000
         C           -3.329338977391    -1.460480032903     0.177223029070    12.000000000000
         C           -1.933223977391    -2.011310032903     0.460246029070    12.000000000000
         C           -1.008304977391    -0.893013032903     0.922902029070    12.000000000000
         C           -2.807981977391     1.656931967097     0.761721029070    12.000000000000
         C            0.133873022609     0.956020967097    -0.307793970930    12.000000000000
         C            1.471728022609     0.310482967097    -0.115440970930    12.000000000000
         C            1.763789022609    -0.952111032903    -0.649547970930    12.000000000000
         C            2.482625022609     1.054665967097     0.504095029070    12.000000000000
         C            3.052878022609    -1.474973032903    -0.537965970930    12.000000000000
         C            3.764890022609     0.521075967097     0.628801029070    12.000000000000
         C            4.052608022609    -0.743994032903     0.108658029070    12.000000000000
         H           -2.093916977391     1.458949967097    -1.235033970930     1.007825032230
         H           -2.895524977391    -0.706554032903    -1.789119970930     1.007825032230
         H           -4.237392977391     0.125280967097    -1.001521970930     1.007825032230
         H           -3.983240977391    -2.250832032903    -0.209007970930     1.007825032230
         H           -3.780056977391    -1.113073032903     1.115527029070     1.007825032230
         H           -1.968987977391    -2.794310032903     1.227495029070     1.007825032230
         H           -1.519428977391    -2.461726032903    -0.450856970930     1.007825032230
         H           -1.361609977391    -0.503022032903     1.889765029070     1.007825032230
         H            0.007882022609    -1.255641032903     1.075884029070     1.007825032230
         H           -3.748138977391     2.137594967097     0.472259029070     1.007825032230
         H           -2.994163977391     1.074926967097     1.668166029070     1.007825032230
         H           -2.077277977391     2.437502967097     0.986834029070     1.007825032230
         H            0.985996022609    -1.509097032903    -1.168457970930     1.007825032230
         H            2.251688022609     2.050567967097     0.873853029070     1.007825032230
         H            3.279878022609    -2.449971032903    -0.962974970930     1.007825032230
         H            4.544970022609     1.096428967097     1.121738029070     1.007825032230
         H            5.055279022609    -1.154988032903     0.198941029070     1.007825032230

  Basis Set: AUG-CC-PVTZ
    Blend: AUG-CC-PVTZ
  Basis Set: (AUG-CC-PVTZ AUX)
    Blend: AUG-CC-PVTZ-JKFIT
	 Reference Energy          =    -631.7259259182437745 [Eh]
	 Singles Energy            =      -0.0000000000000000 [Eh]
	 Same-Spin Energy          =      -0.6886320307862990 [Eh]
	 Opposite-Spin Energy      =      -2.2118522437424604 [Eh]
	 Correlation Energy        =      -2.9004842745287593 [Eh]
	 Total Energy              =    -634.6264101927724823 [Eh]

	 ================> DF-SCS-MP2 Energies <==================
	-----------------------------------------------------------
	 SCS Same-Spin Scale       =       0.3333333333333333 [-]
	 SCS Opposite-Spin Scale   =       1.2000000000000000 [-]
	 SCS Same-Spin Energy      =      -0.2295440102620996 [Eh]
	 SCS Opposite-Spin Energy  =      -2.6542226924909524 [Eh]
	 SCS Correlation Energy    =      -2.8837667027530522 [Eh]
	 SCS Total Energy          =    -634.6096926209968387 [Eh]
	-----------------------------------------------------------

  Dipole Moment: [D]
     X:    -1.3734      Y:    -3.0854      Z:     1.4860     Total:     3.6898

*** Psi4 exiting successfully. Buy a developer a beer!
