                               Psi4 1.3.2 release

  ==> Input File <==

--------------------------------------------------------------------------
#psi4
#
memory 32 gb

molecule  {
0 1
  O        0.1371160     2.1442200    -0.7498900
  N       -0.9173908     0.2851754     0.0530380
  C       -2.2101840     0.8219870    -0.4048790
  C       -3.1715160    -0.2856370    -0.8447810
  C       -3.2543810    -1.4343410     0.1597440
  C       -1.8582660    -1.9851710     0.4427670
  C       -0.9333470    -0.8668740     0.9054230
  C       -2.7330240     1.6830710     0.7442420
  C        0.2088310     0.9821600    -0.3252730
  C        1.5466860     0.3366220    -0.1329200
  C        1.8387470    -0.9259720    -0.6670270
  C        2.5575830     1.0808050     0.4866160
  C        3.1278360    -1.4488340    -0.5554450
  C        3.8398480     0.5472150     0.6113220
  C        4.1275660    -0.7178550     0.0911790
  H       -2.0189590     1.4850890    -1.2525130
  H       -2.8205670    -0.6804150    -1.8065990
  H       -4.1624350     0.1514200    -1.0190010
  H       -3.9082830    -2.2246930    -0.2264870
  H       -3.7050990    -1.0869340     1.0980480
  H       -1.8940300    -2.7681710     1.2100160
  H       -1.4444710    -2.4355870    -0.4683360
  H       -1.2866520    -0.4768830     1.8722860
  H        0.0828400    -1.2295020     1.0584050
  H       -3.6731810     2.1637340     0.4547800
  H       -2.9192060     1.1010660     1.6506870
  H       -2.0023200     2.4636420     0.9693550
  H        1.0609540    -1.4829580    -1.1859370
  H        2.3266460     2.0767070     0.8563740
  H        3.3548360    -2.4238320    -0.9804540
  H        4.6199280     1.1225680     1.1042590
  H        5.1302370    -1.1288490     0.1814620
units angstrom
no_reorient  #important for SAPT in psi4, default
symmetry c1  #important for SAPT in psi4, default
}

set PROPERTIES_ORIGIN ["COM"]
properties('MP2/aug-cc-pvtz', properties = ['dipole'])
--------------------------------------------------------------------------

    Molecular point group: c1
  Charge       = 0
  Multiplicity = 1
  Basis Set: AUG-CC-PVTZ
    Blend: AUG-CC-PVTZ
  Basis Set: (AUG-CC-PVTZ AUX)
    Blend: AUG-CC-PVTZ-JKFIT

    Orbital Energies [Eh]
    ---------------------

    Doubly Occupied:

       1A    -20.510516     2A    -15.577755     3A    -11.348756
       4A    -11.262394     5A    -11.259168     6A    -11.251243
       7A    -11.250046     8A    -11.247674     9A    -11.245617
      10A    -11.245514    11A    -11.243370    12A    -11.231364
      13A    -11.227692    14A    -11.226066    15A    -11.207512
      16A     -1.367175    17A     -1.250106    18A     -1.161126
      19A     -1.086057    20A     -1.053896    21A     -1.032065
      22A     -1.023449    23A     -0.957858    24A     -0.898112
      25A     -0.866609    26A     -0.838774    27A     -0.836424
      28A     -0.790408    29A     -0.728621    30A     -0.715674
      31A     -0.681871    32A     -0.656404    33A     -0.639304
      34A     -0.628315    35A     -0.627656    36A     -0.610010
      37A     -0.599957    38A     -0.594047    39A     -0.586005
      40A     -0.581475    41A     -0.565788    42A     -0.539710
      43A     -0.524599    44A     -0.520017    45A     -0.508144
      46A     -0.503925    47A     -0.493534    48A     -0.490300
      49A     -0.472060    50A     -0.464880    51A     -0.452782
      52A     -0.418816    53A     -0.359379    54A     -0.344914
      55A     -0.341881

  @DF-RHF Final Energy:  -631.72365204493326

   => Energetics <=

    Nuclear Repulsion Energy =            998.8424537862593979
    One-Electron Energy =               -2840.8385904307046985
    Two-Electron Energy =                1210.2724845995121541
    Total Energy =                       -631.7236520449332602
  Basis Set: (AUG-CC-PVTZ AUX)
    Blend: AUG-CC-PVTZ-RI
    Molecular point group: c1

    Geometry (in Angstrom), charge = 0, multiplicity = 1:

       Center              X                  Y                   Z               Mass
    ------------   -----------------  -----------------  -----------------  -----------------
         O            0.073019951262     2.113105039519    -0.742130205276    15.994914619570
         N           -0.981486848738     0.254060439519     0.060797794724    14.003074004430
         C           -2.274280048738     0.790872039519    -0.397119205276    12.000000000000
         C           -3.235612048738    -0.316751960481    -0.837021205276    12.000000000000
         C           -3.318477048738    -1.465455960481     0.167503794724    12.000000000000
         C           -1.922362048738    -2.016285960481     0.450526794724    12.000000000000
         C           -0.997443048738    -0.897988960481     0.913182794724    12.000000000000
         C           -2.797120048738     1.651956039519     0.752001794724    12.000000000000
         C            0.144734951262     0.951045039519    -0.317513205276    12.000000000000
         C            1.482589951262     0.305507039519    -0.125160205276    12.000000000000
         C            1.774650951262    -0.957086960481    -0.659267205276    12.000000000000
         C            2.493486951262     1.049690039519     0.494375794724    12.000000000000
         C            3.063739951262    -1.479948960481    -0.547685205276    12.000000000000
         C            3.775751951262     0.516100039519     0.619081794724    12.000000000000
         C            4.063469951262    -0.748969960481     0.098938794724    12.000000000000
         H           -2.083055048738     1.453974039519    -1.244753205276     1.007825032230
         H           -2.884663048738    -0.711529960481    -1.798839205276     1.007825032230
         H           -4.226531048738     0.120305039519    -1.011241205276     1.007825032230
         H           -3.972379048738    -2.255807960481    -0.218727205276     1.007825032230
         H           -3.769195048738    -1.118048960481     1.105807794724     1.007825032230
         H           -1.958126048738    -2.799285960481     1.217775794724     1.007825032230
         H           -1.508567048738    -2.466701960481    -0.460576205276     1.007825032230
         H           -1.350748048738    -0.507997960481     1.880045794724     1.007825032230
         H            0.018743951262    -1.260616960481     1.066164794724     1.007825032230
         H           -3.737277048738     2.132619039519     0.462539794724     1.007825032230
         H           -2.983302048738     1.069951039519     1.658446794724     1.007825032230
         H           -2.066416048738     2.432527039519     0.977114794724     1.007825032230
         H            0.996857951262    -1.514072960481    -1.178177205276     1.007825032230
         H            2.262549951262     2.045592039519     0.864133794724     1.007825032230
         H            3.290739951262    -2.454946960481    -0.972694205276     1.007825032230
         H            4.555831951262     1.091453039519     1.112018794724     1.007825032230
         H            5.066140951262    -1.159963960481     0.189221794724     1.007825032230

  Basis Set: AUG-CC-PVTZ
    Blend: AUG-CC-PVTZ
  Basis Set: (AUG-CC-PVTZ AUX)
    Blend: AUG-CC-PVTZ-JKFIT
	 Reference Energy          =    -631.7236520449332602 [Eh]
	 Singles Energy            =      -0.0000000000000000 [Eh]
	 Same-Spin Energy          =      -0.6889507470579659 [Eh]
	 Opposite-Spin Energy      =      -2.2118022066901624 [Eh]
	 Correlation Energy        =      -2.9007529537481282 [Eh]
	 Total Energy              =    -634.6244049986813707 [Eh]

	 ================> DF-SCS-MP2 Energies <==================
	-----------------------------------------------------------
	 SCS Same-Spin Scale       =       0.3333333333333333 [-]
	 SCS Opposite-Spin Scale   =       1.2000000000000000 [-]
	 SCS Same-Spin Energy      =      -0.2296502490193220 [Eh]
	 SCS Opposite-Spin Energy  =      -2.6541626480281946 [Eh]
	 SCS Correlation Energy    =      -2.8838128970475165 [Eh]
	 SCS Total Energy          =    -634.6074649419807656 [Eh]
	-----------------------------------------------------------

  Dipole Moment: [D]
     X:    -0.8877      Y:    -3.3445      Z:     1.3004     Total:     3.6966

*** Psi4 exiting successfully. Buy a developer a beer!
