                               Psi4 1.4a3.dev225

  ==> Input File <==

--------------------------------------------------------------------------
#psi4
#
memory 32 gb

molecule  {
0 1
  O        0.1371160     2.1442200    -0.7498900
  N       -0.9079200     0.2138270    -0.0832910
  C       -2.2101840     0.8219870    -0.4048790
  C       -3.1715160    -0.2856370    -0.8447810
  C       -3.2543810    -1.4343410     0.1597440
  C       -1.8582660    -1.9851710     0.4427670
  C       -0.9333470    -0.8668740     0.9054230
  C       -2.7330240     1.6830710     0.7442420
  C        0.2088310     0.9821600    -0.3252730
  C        1.5913450     0.3150733    -0.1264991
  C        1.8387470    -0.9259720    -0.6670270
  C        2.5575830     1.0808050     0.4866160
  C        3.1278360    -1.4488340    -0.5554450
  C        3.8398480     0.5472150     0.6113220
  C        4.1275660    -0.7178550     0.0911790
  H       -2.0189590     1.4850890    -1.2525130
  H       -2.8205670    -0.6804150    -1.8065990
  H       -4.1624350     0.1514200    -1.0190010
  H       -3.9082830    -2.2246930    -0.2264870
  H       -3.7050990    -1.0869340     1.0980480
  H       -1.8940300    -2.7681710     1.2100160
  H       -1.4444710    -2.4355870    -0.4683360
  H       -1.2866520    -0.4768830     1.8722860
  H        0.0828400    -1.2295020     1.0584050
  H       -3.6731810     2.1637340     0.4547800
  H       -2.9192060     1.1010660     1.6506870
  H       -2.0023200     2.4636420     0.9693550
  H        1.0609540    -1.4829580    -1.1859370
  H        2.3266460     2.0767070     0.8563740
  H        3.3548360    -2.4238320    -0.9804540
  H        4.6199280     1.1225680     1.1042590
  H        5.1302370    -1.1288490     0.1814620
units angstrom
no_reorient  #important for SAPT in psi4, default
symmetry c1  #important for SAPT in psi4, default
}

set PROPERTIES_ORIGIN ["COM"]
properties('MP2/aug-cc-pvtz', properties = ['dipole'])
--------------------------------------------------------------------------

    Molecular point group: c1
  Charge       = 0
  Multiplicity = 1
  Basis Set: AUG-CC-PVTZ
    Blend: AUG-CC-PVTZ
  Basis Set: (AUG-CC-PVTZ AUX)
    Blend: AUG-CC-PVTZ-JKFIT

    Orbital Energies [Eh]
    ---------------------

    Doubly Occupied:

       1A    -20.514916     2A    -15.579249     3A    -11.350697
       4A    -11.265208     5A    -11.257724     6A    -11.248737
       7A    -11.246124     8A    -11.245492     9A    -11.244413
      10A    -11.243146    11A    -11.241269    12A    -11.229623
      13A    -11.226348    14A    -11.223027    15A    -11.210823
      16A     -1.367275    17A     -1.246052    18A     -1.165235
      19A     -1.084073    20A     -1.051856    21A     -1.030038
      22A     -1.025353    23A     -0.959058    24A     -0.895344
      25A     -0.861479    26A     -0.839092    27A     -0.832738
      28A     -0.787540    29A     -0.728134    30A     -0.717683
      31A     -0.678534    32A     -0.653052    33A     -0.639108
      34A     -0.628826    35A     -0.626049    36A     -0.608028
      37A     -0.598608    38A     -0.594440    39A     -0.586102
      40A     -0.577320    41A     -0.564400    42A     -0.542931
      43A     -0.525279    44A     -0.519058    45A     -0.507720
      46A     -0.506130    47A     -0.494670    48A     -0.493859
      49A     -0.469891    50A     -0.462422    51A     -0.451463
      52A     -0.416398    53A     -0.367979    54A     -0.345374
      55A     -0.343884

  @DF-RHF Final Energy:  -631.72744607756943

   => Energetics <=

    Nuclear Repulsion Energy =            998.5115583302318782
    One-Electron Energy =               -2840.2394750148814637
    Two-Electron Energy =                1210.0004706070803877
    Total Energy =                       -631.7274460775693115
  Basis Set: (AUG-CC-PVTZ AUX)
    Blend: AUG-CC-PVTZ-RI
    Molecular point group: c1

    Geometry (in Angstrom), charge = 0, multiplicity = 1:

       Center              X                  Y                   Z               Mass
    ------------   -----------------  -----------------  -----------------  -----------------
         O            0.069728832395     2.119296518109    -0.733111522022    15.994914619570
         N           -0.975307167605     0.188903518109    -0.066512522022    14.003074004430
         C           -2.277571167605     0.797063518109    -0.388100522022    12.000000000000
         C           -3.238903167605    -0.310560481891    -0.828002522022    12.000000000000
         C           -3.321768167605    -1.459264481891     0.176522477978    12.000000000000
         C           -1.925653167605    -2.010094481891     0.459545477978    12.000000000000
         C           -1.000734167605    -0.891797481891     0.922201477978    12.000000000000
         C           -2.800411167605     1.658147518109     0.761020477978    12.000000000000
         C            0.141443832395     0.957236518109    -0.308494522022    12.000000000000
         C            1.523957832395     0.290149818109    -0.109720622022    12.000000000000
         C            1.771359832395    -0.950895481891    -0.650248522022    12.000000000000
         C            2.490195832395     1.055881518109     0.503394477978    12.000000000000
         C            3.060448832395    -1.473757481891    -0.538666522022    12.000000000000
         C            3.772460832395     0.522291518109     0.628100477978    12.000000000000
         C            4.060178832395    -0.742778481891     0.107957477978    12.000000000000
         H           -2.086346167605     1.460165518109    -1.235734522022     1.007825032230
         H           -2.887954167605    -0.705338481891    -1.789820522022     1.007825032230
         H           -4.229822167605     0.126496518109    -1.002222522022     1.007825032230
         H           -3.975670167605    -2.249616481891    -0.209708522022     1.007825032230
         H           -3.772486167605    -1.111857481891     1.114826477978     1.007825032230
         H           -1.961417167605    -2.793094481891     1.226794477978     1.007825032230
         H           -1.511858167605    -2.460510481891    -0.451557522022     1.007825032230
         H           -1.354039167605    -0.501806481891     1.889064477978     1.007825032230
         H            0.015452832395    -1.254425481891     1.075183477978     1.007825032230
         H           -3.740568167605     2.138810518109     0.471558477978     1.007825032230
         H           -2.986593167605     1.076142518109     1.667465477978     1.007825032230
         H           -2.069707167605     2.438718518109     0.986133477978     1.007825032230
         H            0.993566832395    -1.507881481891    -1.169158522022     1.007825032230
         H            2.259258832395     2.051783518109     0.873152477978     1.007825032230
         H            3.287448832395    -2.448755481891    -0.963675522022     1.007825032230
         H            4.552540832395     1.097644518109     1.121037477978     1.007825032230
         H            5.062849832395    -1.153772481891     0.198240477978     1.007825032230

  Basis Set: AUG-CC-PVTZ
    Blend: AUG-CC-PVTZ
  Basis Set: (AUG-CC-PVTZ AUX)
    Blend: AUG-CC-PVTZ-JKFIT
	 Reference Energy          =    -631.7274460775694251 [Eh]
	 Singles Energy            =      -0.0000000000000000 [Eh]
	 Same-Spin Energy          =      -0.6883080563104849 [Eh]
	 Opposite-Spin Energy      =      -2.2109862021364952 [Eh]
	 Correlation Energy        =      -2.8992942584469801 [Eh]
	 Total Energy              =    -634.6267403360163826 [Eh]

	 ================> DF-SCS-MP2 Energies <==================
	-----------------------------------------------------------
	 SCS Same-Spin Scale       =       0.3333333333333333 [-]
	 SCS Opposite-Spin Scale   =       1.2000000000000000 [-]
	 SCS Same-Spin Energy      =      -0.2294360187701616 [Eh]
	 SCS Opposite-Spin Energy  =      -2.6531834425637943 [Eh]
	 SCS Correlation Energy    =      -2.8826194613339560 [Eh]
	 SCS Total Energy          =    -634.6100655389034273 [Eh]
	-----------------------------------------------------------

  Dipole Moment: [D]
     X:    -0.8848      Y:    -3.1010      Z:     1.4567     Total:     3.5385

*** Psi4 exiting successfully. Buy a developer a beer!
