                               Psi4 1.3.2 release

  ==> Input File <==

--------------------------------------------------------------------------
#psi4
#
memory 32 gb

molecule  {
0 1
  O        0.1371160     2.1442200    -0.7498900
  N       -0.9079200     0.2138270    -0.0832910
  C       -2.2101840     0.8219870    -0.4048790
  C       -3.1715160    -0.2856370    -0.8447810
  C       -3.2543810    -1.4343410     0.1597440
  C       -1.8582660    -1.9851710     0.4427670
  C       -0.9333470    -0.8668740     0.9054230
  C       -2.7330240     1.6830710     0.7442420
  C        0.2088310     0.9821600    -0.3252730
  C        1.5466860     0.3366220    -0.1329200
  C        1.7920193    -0.9299328    -0.6809747
  C        2.5575830     1.0808050     0.4866160
  C        3.1278360    -1.4488340    -0.5554450
  C        3.8398480     0.5472150     0.6113220
  C        4.1275660    -0.7178550     0.0911790
  H       -2.0189590     1.4850890    -1.2525130
  H       -2.8205670    -0.6804150    -1.8065990
  H       -4.1624350     0.1514200    -1.0190010
  H       -3.9082830    -2.2246930    -0.2264870
  H       -3.7050990    -1.0869340     1.0980480
  H       -1.8940300    -2.7681710     1.2100160
  H       -1.4444710    -2.4355870    -0.4683360
  H       -1.2866520    -0.4768830     1.8722860
  H        0.0828400    -1.2295020     1.0584050
  H       -3.6731810     2.1637340     0.4547800
  H       -2.9192060     1.1010660     1.6506870
  H       -2.0023200     2.4636420     0.9693550
  H        1.0609540    -1.4829580    -1.1859370
  H        2.3266460     2.0767070     0.8563740
  H        3.3548360    -2.4238320    -0.9804540
  H        4.6199280     1.1225680     1.1042590
  H        5.1302370    -1.1288490     0.1814620
units angstrom
no_reorient  #important for SAPT in psi4, default
symmetry c1  #important for SAPT in psi4, default
}

set PROPERTIES_ORIGIN ["COM"]
properties('MP2/aug-cc-pvtz', properties = ['dipole'])
--------------------------------------------------------------------------

    Molecular point group: c1
  Charge       = 0
  Multiplicity = 1
  Basis Set: AUG-CC-PVTZ
    Blend: AUG-CC-PVTZ
  Basis Set: (AUG-CC-PVTZ AUX)
    Blend: AUG-CC-PVTZ-JKFIT

    Orbital Energies [Eh]
    ---------------------

    Doubly Occupied:

       1A    -20.513692     2A    -15.578802     3A    -11.347767
       4A    -11.264838     5A    -11.257539     6A    -11.251935
       7A    -11.250910     8A    -11.250114     9A    -11.247174
      10A    -11.245545    11A    -11.244036    12A    -11.229605
      13A    -11.226273    14A    -11.222932    15A    -11.210661
      16A     -1.368037    17A     -1.246213    18A     -1.157309
      19A     -1.084748    20A     -1.052649    21A     -1.031501
      22A     -1.019308    23A     -0.959056    24A     -0.896883
      25A     -0.864501    26A     -0.841361    27A     -0.832877
      28A     -0.785424    29A     -0.728770    30A     -0.718322
      31A     -0.683108    32A     -0.656215    33A     -0.637356
      34A     -0.630594    35A     -0.626033    36A     -0.606486
      37A     -0.598112    38A     -0.594065    39A     -0.586448
      40A     -0.577162    41A     -0.564610    42A     -0.542614
      43A     -0.525328    44A     -0.519370    45A     -0.507453
      46A     -0.503970    47A     -0.494384    48A     -0.492532
      49A     -0.469738    50A     -0.462370    51A     -0.451378
      52A     -0.419250    53A     -0.367799    54A     -0.343963
      55A     -0.339709

  @DF-RHF Final Energy:  -631.72548074848430

   => Energetics <=

    Nuclear Repulsion Energy =            998.5055860967959234
    One-Electron Energy =               -2840.2044762167511180
    Two-Electron Energy =                1209.9734093714707797
    Total Energy =                       -631.7254807484844150
  Basis Set: (AUG-CC-PVTZ AUX)
    Blend: AUG-CC-PVTZ-RI
    Molecular point group: c1

    Geometry (in Angstrom), charge = 0, multiplicity = 1:

       Center              X                  Y                   Z               Mass
    ------------   -----------------  -----------------  -----------------  -----------------
         O            0.075127517595     2.118257509857    -0.731908243433    15.994914619570
         N           -0.969908482405     0.187864509857    -0.065309243433    14.003074004430
         C           -2.272172482405     0.796024509857    -0.386897243433    12.000000000000
         C           -3.233504482405    -0.311599490143    -0.826799243433    12.000000000000
         C           -3.316369482405    -1.460303490143     0.177725756567    12.000000000000
         C           -1.920254482405    -2.011133490143     0.460748756567    12.000000000000
         C           -0.995335482405    -0.892836490143     0.923404756567    12.000000000000
         C           -2.795012482405     1.657108509857     0.762223756567    12.000000000000
         C            0.146842517595     0.956197509857    -0.307291243433    12.000000000000
         C            1.484697517595     0.310659509857    -0.114938243433    12.000000000000
         C            1.730030817595    -0.955895290143    -0.662992943433    12.000000000000
         C            2.495594517595     1.054842509857     0.504597756567    12.000000000000
         C            3.065847517595    -1.474796490143    -0.537463243433    12.000000000000
         C            3.777859517595     0.521252509857     0.629303756567    12.000000000000
         C            4.065577517595    -0.743817490143     0.109160756567    12.000000000000
         H           -2.080947482405     1.459126509857    -1.234531243433     1.007825032230
         H           -2.882555482405    -0.706377490143    -1.788617243433     1.007825032230
         H           -4.224423482405     0.125457509857    -1.001019243433     1.007825032230
         H           -3.970271482405    -2.250655490143    -0.208505243433     1.007825032230
         H           -3.767087482405    -1.112896490143     1.116029756567     1.007825032230
         H           -1.956018482405    -2.794133490143     1.227997756567     1.007825032230
         H           -1.506459482405    -2.461549490143    -0.450354243433     1.007825032230
         H           -1.348640482405    -0.502845490143     1.890267756567     1.007825032230
         H            0.020851517595    -1.255464490143     1.076386756567     1.007825032230
         H           -3.735169482405     2.137771509857     0.472761756567     1.007825032230
         H           -2.981194482405     1.075103509857     1.668668756567     1.007825032230
         H           -2.064308482405     2.437679509857     0.987336756567     1.007825032230
         H            0.998965517595    -1.508920490143    -1.167955243433     1.007825032230
         H            2.264657517595     2.050744509857     0.874355756567     1.007825032230
         H            3.292847517595    -2.449794490143    -0.962472243433     1.007825032230
         H            4.557939517595     1.096605509857     1.122240756567     1.007825032230
         H            5.068248517595    -1.154811490143     0.199443756567     1.007825032230

  Basis Set: AUG-CC-PVTZ
    Blend: AUG-CC-PVTZ
  Basis Set: (AUG-CC-PVTZ AUX)
    Blend: AUG-CC-PVTZ-JKFIT
	 Reference Energy          =    -631.7254807484843013 [Eh]
	 Singles Energy            =      -0.0000000000000000 [Eh]
	 Same-Spin Energy          =      -0.6886727546083831 [Eh]
	 Opposite-Spin Energy      =      -2.2120104436079453 [Eh]
	 Correlation Energy        =      -2.9006831982163286 [Eh]
	 Total Energy              =    -634.6261639467006717 [Eh]

	 ================> DF-SCS-MP2 Energies <==================
	-----------------------------------------------------------
	 SCS Same-Spin Scale       =       0.3333333333333333 [-]
	 SCS Opposite-Spin Scale   =       1.2000000000000000 [-]
	 SCS Same-Spin Energy      =      -0.2295575848694610 [Eh]
	 SCS Opposite-Spin Energy  =      -2.6544125323295344 [Eh]
	 SCS Correlation Energy    =      -2.8839701171989955 [Eh]
	 SCS Total Energy          =    -634.6094508656832431 [Eh]
	-----------------------------------------------------------

  Dipole Moment: [D]
     X:    -0.8134      Y:    -3.1325      Z:     1.4623     Total:     3.5514

*** Psi4 exiting successfully. Buy a developer a beer!
