                               Psi4 1.4a3.dev225

  ==> Input File <==

--------------------------------------------------------------------------
#psi4
#
memory 32 gb

molecule  {
0 1
  O        0.1371160     2.1442200    -0.7498900
  N       -0.9079200     0.2138270    -0.0832910
  C       -2.2101840     0.8219870    -0.4048790
  C       -3.1715160    -0.2856370    -0.8447810
  C       -3.2543810    -1.4343410     0.1597440
  C       -1.8582660    -1.9851710     0.4427670
  C       -0.9333470    -0.8668740     0.9054230
  C       -2.7330240     1.6830710     0.7442420
  C        0.2117244     0.9352757    -0.3081415
  C        1.5466860     0.3366220    -0.1329200
  C        1.8387470    -0.9259720    -0.6670270
  C        2.5575830     1.0808050     0.4866160
  C        3.1278360    -1.4488340    -0.5554450
  C        3.8398480     0.5472150     0.6113220
  C        4.1275660    -0.7178550     0.0911790
  H       -2.0189590     1.4850890    -1.2525130
  H       -2.8205670    -0.6804150    -1.8065990
  H       -4.1624350     0.1514200    -1.0190010
  H       -3.9082830    -2.2246930    -0.2264870
  H       -3.7050990    -1.0869340     1.0980480
  H       -1.8940300    -2.7681710     1.2100160
  H       -1.4444710    -2.4355870    -0.4683360
  H       -1.2866520    -0.4768830     1.8722860
  H        0.0828400    -1.2295020     1.0584050
  H       -3.6731810     2.1637340     0.4547800
  H       -2.9192060     1.1010660     1.6506870
  H       -2.0023200     2.4636420     0.9693550
  H        1.0609540    -1.4829580    -1.1859370
  H        2.3266460     2.0767070     0.8563740
  H        3.3548360    -2.4238320    -0.9804540
  H        4.6199280     1.1225680     1.1042590
  H        5.1302370    -1.1288490     0.1814620
units angstrom
no_reorient  #important for SAPT in psi4, default
symmetry c1  #important for SAPT in psi4, default
}

set PROPERTIES_ORIGIN ["COM"]
properties('MP2/aug-cc-pvtz', properties = ['dipole'])
--------------------------------------------------------------------------

    Molecular point group: c1
  Charge       = 0
  Multiplicity = 1
  Basis Set: AUG-CC-PVTZ
    Blend: AUG-CC-PVTZ
  Basis Set: (AUG-CC-PVTZ AUX)
    Blend: AUG-CC-PVTZ-JKFIT

    Orbital Energies [Eh]
    ---------------------

    Doubly Occupied:

       1A    -20.503683     2A    -15.585845     3A    -11.348578
       4A    -11.267517     5A    -11.260233     6A    -11.251605
       7A    -11.250443     8A    -11.248644     9A    -11.246737
      10A    -11.245853    11A    -11.243880    12A    -11.231412
      13A    -11.227869    14A    -11.224781    15A    -11.211730
      16A     -1.343693    17A     -1.244703    18A     -1.162250
      19A     -1.088706    20A     -1.055136    21A     -1.033500
      22A     -1.024000    23A     -0.962258    24A     -0.901013
      25A     -0.869560    26A     -0.838981    27A     -0.835619
      28A     -0.790480    29A     -0.731532    30A     -0.719745
      31A     -0.681461    32A     -0.655787    33A     -0.640221
      34A     -0.629638    35A     -0.622676    36A     -0.607768
      37A     -0.597287    38A     -0.592991    39A     -0.587074
      40A     -0.574202    41A     -0.565004    42A     -0.539878
      43A     -0.526010    44A     -0.519161    45A     -0.508153
      46A     -0.503062    47A     -0.495736    48A     -0.486445
      49A     -0.467713    50A     -0.463359    51A     -0.453034
      52A     -0.416565    53A     -0.367697    54A     -0.345382
      55A     -0.341585

  @DF-RHF Final Energy:  -631.72159857655333

   => Energetics <=

    Nuclear Repulsion Energy =            998.8682247112946015
    One-Electron Energy =               -2840.9039070752082807
    Two-Electron Energy =                1210.3140837873602322
    Total Energy =                       -631.7215985765533333
  Basis Set: (AUG-CC-PVTZ AUX)
    Blend: AUG-CC-PVTZ-RI
    Molecular point group: c1

    Geometry (in Angstrom), charge = 0, multiplicity = 1:

       Center              X                  Y                   Z               Mass
    ------------   -----------------  -----------------  -----------------  -----------------
         O            0.072196142480     2.120793223087    -0.733744252580    15.994914619570
         N           -0.972839857520     0.190400223087    -0.067145252580    14.003074004430
         C           -2.275103857520     0.798560223087    -0.388733252580    12.000000000000
         C           -3.236435857520    -0.309063776913    -0.828635252580    12.000000000000
         C           -3.319300857520    -1.457767776913     0.175889747420    12.000000000000
         C           -1.923185857520    -2.008597776913     0.458912747420    12.000000000000
         C           -0.998266857520    -0.890300776913     0.921568747420    12.000000000000
         C           -2.797943857520     1.659644223087     0.760387747420    12.000000000000
         C            0.146804542480     0.911848923087    -0.291995752580    12.000000000000
         C            1.481766142480     0.313195223087    -0.116774252580    12.000000000000
         C            1.773827142480    -0.949398776913    -0.650881252580    12.000000000000
         C            2.492663142480     1.057378223087     0.502761747420    12.000000000000
         C            3.062916142480    -1.472260776913    -0.539299252580    12.000000000000
         C            3.774928142480     0.523788223087     0.627467747420    12.000000000000
         C            4.062646142480    -0.741281776913     0.107324747420    12.000000000000
         H           -2.083878857520     1.461662223087    -1.236367252580     1.007825032230
         H           -2.885486857520    -0.703841776913    -1.790453252580     1.007825032230
         H           -4.227354857520     0.127993223087    -1.002855252580     1.007825032230
         H           -3.973202857520    -2.248119776913    -0.210341252580     1.007825032230
         H           -3.770018857520    -1.110360776913     1.114193747420     1.007825032230
         H           -1.958949857520    -2.791597776913     1.226161747420     1.007825032230
         H           -1.509390857520    -2.459013776913    -0.452190252580     1.007825032230
         H           -1.351571857520    -0.500309776913     1.888431747420     1.007825032230
         H            0.017920142480    -1.252928776913     1.074550747420     1.007825032230
         H           -3.738100857520     2.140307223087     0.470925747420     1.007825032230
         H           -2.984125857520     1.077639223087     1.666832747420     1.007825032230
         H           -2.067239857520     2.440215223087     0.985500747420     1.007825032230
         H            0.996034142480    -1.506384776913    -1.169791252580     1.007825032230
         H            2.261726142480     2.053280223087     0.872519747420     1.007825032230
         H            3.289916142480    -2.447258776913    -0.964308252580     1.007825032230
         H            4.555008142480     1.099141223087     1.120404747420     1.007825032230
         H            5.065317142480    -1.152275776913     0.197607747420     1.007825032230

  Basis Set: AUG-CC-PVTZ
    Blend: AUG-CC-PVTZ
  Basis Set: (AUG-CC-PVTZ AUX)
    Blend: AUG-CC-PVTZ-JKFIT
	 Reference Energy          =    -631.7215985765533333 [Eh]
	 Singles Energy            =      -0.0000000000000000 [Eh]
	 Same-Spin Energy          =      -0.6898465995982410 [Eh]
	 Opposite-Spin Energy      =      -2.2139377029471863 [Eh]
	 Correlation Energy        =      -2.9037843025454273 [Eh]
	 Total Energy              =    -634.6253828790987654 [Eh]

	 ================> DF-SCS-MP2 Energies <==================
	-----------------------------------------------------------
	 SCS Same-Spin Scale       =       0.3333333333333333 [-]
	 SCS Opposite-Spin Scale   =       1.2000000000000000 [-]
	 SCS Same-Spin Energy      =      -0.2299488665327470 [Eh]
	 SCS Opposite-Spin Energy  =      -2.6567252435366235 [Eh]
	 SCS Correlation Energy    =      -2.8866741100693707 [Eh]
	 SCS Total Energy          =    -634.6082726866227404 [Eh]
	-----------------------------------------------------------

  Dipole Moment: [D]
     X:    -0.9527      Y:    -3.4198      Z:     1.5836     Total:     3.8872

*** Psi4 exiting successfully. Buy a developer a beer!
