                               Psi4 1.3.2 release

  ==> Input File <==

--------------------------------------------------------------------------
#psi4
#
memory 32 gb

molecule  {
0 1
  O        0.1371160     2.1442200    -0.7498900
  N       -0.9712005     0.0782386    -0.1204022
  C       -2.2101840     0.8219870    -0.4048790
  C       -3.1715160    -0.2856370    -0.8447810
  C       -3.2543810    -1.4343410     0.1597440
  C       -1.8582660    -1.9851710     0.4427670
  C       -0.9333470    -0.8668740     0.9054230
  C       -2.7330240     1.6830710     0.7442420
  C        0.2088310     0.9821600    -0.3252730
  C        1.5466860     0.3366220    -0.1329200
  C        1.8387470    -0.9259720    -0.6670270
  C        2.5575830     1.0808050     0.4866160
  C        3.1278360    -1.4488340    -0.5554450
  C        3.8398480     0.5472150     0.6113220
  C        4.1275660    -0.7178550     0.0911790
  H       -2.0189590     1.4850890    -1.2525130
  H       -2.8205670    -0.6804150    -1.8065990
  H       -4.1624350     0.1514200    -1.0190010
  H       -3.9082830    -2.2246930    -0.2264870
  H       -3.7050990    -1.0869340     1.0980480
  H       -1.8940300    -2.7681710     1.2100160
  H       -1.4444710    -2.4355870    -0.4683360
  H       -1.2866520    -0.4768830     1.8722860
  H        0.0828400    -1.2295020     1.0584050
  H       -3.6731810     2.1637340     0.4547800
  H       -2.9192060     1.1010660     1.6506870
  H       -2.0023200     2.4636420     0.9693550
  H        1.0609540    -1.4829580    -1.1859370
  H        2.3266460     2.0767070     0.8563740
  H        3.3548360    -2.4238320    -0.9804540
  H        4.6199280     1.1225680     1.1042590
  H        5.1302370    -1.1288490     0.1814620
units angstrom
no_reorient  #important for SAPT in psi4, default
symmetry c1  #important for SAPT in psi4, default
}

set PROPERTIES_ORIGIN ["COM"]
properties('MP2/aug-cc-pvtz', properties = ['dipole'])
--------------------------------------------------------------------------

    Molecular point group: c1
  Charge       = 0
  Multiplicity = 1
  Basis Set: AUG-CC-PVTZ
    Blend: AUG-CC-PVTZ
  Basis Set: (AUG-CC-PVTZ AUX)
    Blend: AUG-CC-PVTZ-JKFIT

    Orbital Energies [Eh]
    ---------------------

    Doubly Occupied:

       1A    -20.539083     2A    -15.575235     3A    -11.364827
       4A    -11.254274     5A    -11.253984     6A    -11.253386
       7A    -11.251983     8A    -11.250197     9A    -11.248951
      10A    -11.247086    11A    -11.245552    12A    -11.221261
      13A    -11.220511    14A    -11.215751    15A    -11.210730
      16A     -1.375793    17A     -1.249809    18A     -1.163629
      19A     -1.072263    20A     -1.050234    21A     -1.034932
      22A     -1.025512    23A     -0.950818    24A     -0.889005
      25A     -0.860159    26A     -0.839338    27A     -0.832605
      28A     -0.777930    29A     -0.732930    30A     -0.717053
      31A     -0.687025    32A     -0.655361    33A     -0.637926
      34A     -0.631057    35A     -0.622297    36A     -0.604618
      37A     -0.599297    38A     -0.595613    39A     -0.584099
      40A     -0.577027    41A     -0.559557    42A     -0.541900
      43A     -0.527558    44A     -0.523059    45A     -0.509023
      46A     -0.504103    47A     -0.495310    48A     -0.490013
      49A     -0.466318    50A     -0.458846    51A     -0.447792
      52A     -0.422701    53A     -0.365191    54A     -0.346658
      55A     -0.344784

  @DF-RHF Final Energy:  -631.70621428787490

   => Energetics <=

    Nuclear Repulsion Energy =            998.1001753217766463
    One-Electron Energy =               -2839.3688711533905007
    Two-Electron Energy =                1209.5624815437390680
    Total Energy =                       -631.7062142878749000
  Basis Set: (AUG-CC-PVTZ AUX)
    Blend: AUG-CC-PVTZ-RI
    Molecular point group: c1

    Geometry (in Angstrom), charge = 0, multiplicity = 1:

       Center              X                  Y                   Z               Mass
    ------------   -----------------  -----------------  -----------------  -----------------
         O            0.076729385857     2.127370469820    -0.730173902267    15.994914619570
         N           -1.031587114143     0.061389069820    -0.100686102267    14.003074004430
         C           -2.270570614143     0.805137469820    -0.385162902267    12.000000000000
         C           -3.231902614143    -0.302486530180    -0.825064902267    12.000000000000
         C           -3.314767614143    -1.451190530180     0.179460097733    12.000000000000
         C           -1.918652614143    -2.002020530180     0.462483097733    12.000000000000
         C           -0.993733614143    -0.883723530180     0.925139097733    12.000000000000
         C           -2.793410614143     1.666221469820     0.763958097733    12.000000000000
         C            0.148444385857     0.965310469820    -0.305556902267    12.000000000000
         C            1.486299385857     0.319772469820    -0.113203902267    12.000000000000
         C            1.778360385857    -0.942821530180    -0.647310902267    12.000000000000
         C            2.497196385857     1.063955469820     0.506332097733    12.000000000000
         C            3.067449385857    -1.465683530180    -0.535728902267    12.000000000000
         C            3.779461385857     0.530365469820     0.631038097733    12.000000000000
         C            4.067179385857    -0.734704530180     0.110895097733    12.000000000000
         H           -2.079345614143     1.468239469820    -1.232796902267     1.007825032230
         H           -2.880953614143    -0.697264530180    -1.786882902267     1.007825032230
         H           -4.222821614143     0.134570469820    -0.999284902267     1.007825032230
         H           -3.968669614143    -2.241542530180    -0.206770902267     1.007825032230
         H           -3.765485614143    -1.103783530180     1.117764097733     1.007825032230
         H           -1.954416614143    -2.785020530180     1.229732097733     1.007825032230
         H           -1.504857614143    -2.452436530180    -0.448619902267     1.007825032230
         H           -1.347038614143    -0.493732530180     1.892002097733     1.007825032230
         H            0.022453385857    -1.246351530180     1.078121097733     1.007825032230
         H           -3.733567614143     2.146884469820     0.474496097733     1.007825032230
         H           -2.979592614143     1.084216469820     1.670403097733     1.007825032230
         H           -2.062706614143     2.446792469820     0.989071097733     1.007825032230
         H            1.000567385857    -1.499807530180    -1.166220902267     1.007825032230
         H            2.266259385857     2.059857469820     0.876090097733     1.007825032230
         H            3.294449385857    -2.440681530180    -0.960737902267     1.007825032230
         H            4.559541385857     1.105718469820     1.123975097733     1.007825032230
         H            5.069850385857    -1.145698530180     0.201178097733     1.007825032230

  Basis Set: AUG-CC-PVTZ
    Blend: AUG-CC-PVTZ
  Basis Set: (AUG-CC-PVTZ AUX)
    Blend: AUG-CC-PVTZ-JKFIT
	 Reference Energy          =    -631.7062142878749000 [Eh]
	 Singles Energy            =      -0.0000000000000000 [Eh]
	 Same-Spin Energy          =      -0.6902511450807005 [Eh]
	 Opposite-Spin Energy      =      -2.2152644948420264 [Eh]
	 Correlation Energy        =      -2.9055156399227267 [Eh]
	 Total Energy              =    -634.6117299277976826 [Eh]

	 ================> DF-SCS-MP2 Energies <==================
	-----------------------------------------------------------
	 SCS Same-Spin Scale       =       0.3333333333333333 [-]
	 SCS Opposite-Spin Scale   =       1.2000000000000000 [-]
	 SCS Same-Spin Energy      =      -0.2300837150269002 [Eh]
	 SCS Opposite-Spin Energy  =      -2.6583173938104316 [Eh]
	 SCS Correlation Energy    =      -2.8884011088373320 [Eh]
	 SCS Total Energy          =    -634.5946153967122427 [Eh]
	-----------------------------------------------------------

  Dipole Moment: [D]
     X:    -0.1233      Y:    -2.4532      Z:     1.3090     Total:     2.7834

*** Psi4 exiting successfully. Buy a developer a beer!
