                               Psi4 1.3.2 release

  ==> Input File <==

--------------------------------------------------------------------------
#psi4
#
memory 32 gb

molecule  {
0 1
  O        0.1371160     2.1442200    -0.7498900
  N       -0.9079200     0.2138270    -0.0832910
  C       -2.2101840     0.8219870    -0.4048790
  C       -3.1715160    -0.2856370    -0.8447810
  C       -3.2543810    -1.4343410     0.1597440
  C       -1.8582660    -1.9851710     0.4427670
  C       -0.9333470    -0.8668740     0.9054230
  C       -2.7330240     1.6830710     0.7442420
  C        0.2146178     0.8883914    -0.2910099
  C        1.5466860     0.3366220    -0.1329200
  C        1.8387470    -0.9259720    -0.6670270
  C        2.5575830     1.0808050     0.4866160
  C        3.1278360    -1.4488340    -0.5554450
  C        3.8398480     0.5472150     0.6113220
  C        4.1275660    -0.7178550     0.0911790
  H       -2.0189590     1.4850890    -1.2525130
  H       -2.8205670    -0.6804150    -1.8065990
  H       -4.1624350     0.1514200    -1.0190010
  H       -3.9082830    -2.2246930    -0.2264870
  H       -3.7050990    -1.0869340     1.0980480
  H       -1.8940300    -2.7681710     1.2100160
  H       -1.4444710    -2.4355870    -0.4683360
  H       -1.2866520    -0.4768830     1.8722860
  H        0.0828400    -1.2295020     1.0584050
  H       -3.6731810     2.1637340     0.4547800
  H       -2.9192060     1.1010660     1.6506870
  H       -2.0023200     2.4636420     0.9693550
  H        1.0609540    -1.4829580    -1.1859370
  H        2.3266460     2.0767070     0.8563740
  H        3.3548360    -2.4238320    -0.9804540
  H        4.6199280     1.1225680     1.1042590
  H        5.1302370    -1.1288490     0.1814620
units angstrom
no_reorient  #important for SAPT in psi4, default
symmetry c1  #important for SAPT in psi4, default
}

set PROPERTIES_ORIGIN ["COM"]
properties('MP2/aug-cc-pvtz', properties = ['dipole'])
--------------------------------------------------------------------------

    Molecular point group: c1
  Charge       = 0
  Multiplicity = 1
  Basis Set: AUG-CC-PVTZ
    Blend: AUG-CC-PVTZ
  Basis Set: (AUG-CC-PVTZ AUX)
    Blend: AUG-CC-PVTZ-JKFIT

    Orbital Energies [Eh]
    ---------------------

    Doubly Occupied:

       1A    -20.493054     2A    -15.592496     3A    -11.347537
       4A    -11.269860     5A    -11.262841     6A    -11.252463
       7A    -11.251269     8A    -11.249657     9A    -11.247960
      10A    -11.246470    11A    -11.244548    12A    -11.233238
      13A    -11.229455    14A    -11.226606    15A    -11.212758
      16A     -1.330238    17A     -1.235469    18A     -1.163373
      19A     -1.092389    20A     -1.057853    21A     -1.036145
      22A     -1.024821    23A     -0.965296    24A     -0.904409
      25A     -0.873567    26A     -0.840999    27A     -0.837527
      28A     -0.794139    29A     -0.734297    30A     -0.721883
      31A     -0.681911    32A     -0.657612    33A     -0.642063
      34A     -0.631564    35A     -0.621485    36A     -0.609783
      37A     -0.597623    38A     -0.592944    39A     -0.588927
      40A     -0.571660    41A     -0.561747    42A     -0.536491
      43A     -0.526511    44A     -0.518521    45A     -0.509668
      46A     -0.501526    47A     -0.497796    48A     -0.483803
      49A     -0.465152    50A     -0.463024    51A     -0.454374
      52A     -0.408832    53A     -0.365794    54A     -0.346104
      55A     -0.340600

  @DF-RHF Final Energy:  -631.70792329827441

   => Energetics <=

    Nuclear Repulsion Energy =            999.1185670266493162
    One-Electron Energy =               -2841.3567147592689253
    Two-Electron Energy =                1210.5302244343452003
    Total Energy =                       -631.7079232982744088
  Basis Set: (AUG-CC-PVTZ AUX)
    Blend: AUG-CC-PVTZ-RI
    Molecular point group: c1

    Geometry (in Angstrom), charge = 0, multiplicity = 1:

       Center              X                  Y                   Z               Mass
    ------------   -----------------  -----------------  -----------------  -----------------
         O            0.072025214372     2.123562921265    -0.734756304830    15.994914619570
         N           -0.973010785628     0.193169921265    -0.068157304830    14.003074004430
         C           -2.275274785628     0.801329921265    -0.389745304830    12.000000000000
         C           -3.236606785628    -0.306294078735    -0.829647304830    12.000000000000
         C           -3.319471785628    -1.454998078735     0.174877695170    12.000000000000
         C           -1.923356785628    -2.005828078735     0.457900695170    12.000000000000
         C           -0.998437785628    -0.887531078735     0.920556695170    12.000000000000
         C           -2.798114785628     1.662413921265     0.759375695170    12.000000000000
         C            0.149527014372     0.867734321265    -0.275876204830    12.000000000000
         C            1.481595214372     0.315964921265    -0.117786304830    12.000000000000
         C            1.773656214372    -0.946629078735    -0.651893304830    12.000000000000
         C            2.492492214372     1.060147921265     0.501749695170    12.000000000000
         C            3.062745214372    -1.469491078735    -0.540311304830    12.000000000000
         C            3.774757214372     0.526557921265     0.626455695170    12.000000000000
         C            4.062475214372    -0.738512078735     0.106312695170    12.000000000000
         H           -2.084049785628     1.464431921265    -1.237379304830     1.007825032230
         H           -2.885657785628    -0.701072078735    -1.791465304830     1.007825032230
         H           -4.227525785628     0.130762921265    -1.003867304830     1.007825032230
         H           -3.973373785628    -2.245350078735    -0.211353304830     1.007825032230
         H           -3.770189785628    -1.107591078735     1.113181695170     1.007825032230
         H           -1.959120785628    -2.788828078735     1.225149695170     1.007825032230
         H           -1.509561785628    -2.456244078735    -0.453202304830     1.007825032230
         H           -1.351742785628    -0.497540078735     1.887419695170     1.007825032230
         H            0.017749214372    -1.250159078735     1.073538695170     1.007825032230
         H           -3.738271785628     2.143076921265     0.469913695170     1.007825032230
         H           -2.984296785628     1.080408921265     1.665820695170     1.007825032230
         H           -2.067410785628     2.442984921265     0.984488695170     1.007825032230
         H            0.995863214372    -1.503615078735    -1.170803304830     1.007825032230
         H            2.261555214372     2.056049921265     0.871507695170     1.007825032230
         H            3.289745214372    -2.444489078735    -0.965320304830     1.007825032230
         H            4.554837214372     1.101910921265     1.119392695170     1.007825032230
         H            5.065146214372    -1.149506078735     0.196595695170     1.007825032230

  Basis Set: AUG-CC-PVTZ
    Blend: AUG-CC-PVTZ
  Basis Set: (AUG-CC-PVTZ AUX)
    Blend: AUG-CC-PVTZ-JKFIT
	 Reference Energy          =    -631.7079232982744088 [Eh]
	 Singles Energy            =      -0.0000000000000000 [Eh]
	 Same-Spin Energy          =      -0.6911024685112865 [Eh]
	 Opposite-Spin Energy      =      -2.2163633808073921 [Eh]
	 Correlation Energy        =      -2.9074658493186787 [Eh]
	 Total Energy              =    -634.6153891475930777 [Eh]

	 ================> DF-SCS-MP2 Energies <==================
	-----------------------------------------------------------
	 SCS Same-Spin Scale       =       0.3333333333333333 [-]
	 SCS Opposite-Spin Scale   =       1.2000000000000000 [-]
	 SCS Same-Spin Energy      =      -0.2303674895037622 [Eh]
	 SCS Opposite-Spin Energy  =      -2.6596360569688704 [Eh]
	 SCS Correlation Energy    =      -2.8900035464726326 [Eh]
	 SCS Total Energy          =    -634.5979268447470076 [Eh]
	-----------------------------------------------------------

  Dipole Moment: [D]
     X:    -1.0738      Y:    -3.6883      Z:     1.6955     Total:     4.1990

*** Psi4 exiting successfully. Buy a developer a beer!
