                               Psi4 1.3.2 release

  ==> Input File <==

--------------------------------------------------------------------------
#psi4
#
memory 32 gb

molecule  {
0 1
  O        0.2667688     2.1462847    -0.7463227
  N       -0.9079200     0.2138270    -0.0832910
  C       -2.2101840     0.8219870    -0.4048790
  C       -3.1715160    -0.2856370    -0.8447810
  C       -3.2543810    -1.4343410     0.1597440
  C       -1.8582660    -1.9851710     0.4427670
  C       -0.9333470    -0.8668740     0.9054230
  C       -2.7330240     1.6830710     0.7442420
  C        0.2088310     0.9821600    -0.3252730
  C        1.5466860     0.3366220    -0.1329200
  C        1.8387470    -0.9259720    -0.6670270
  C        2.5575830     1.0808050     0.4866160
  C        3.1278360    -1.4488340    -0.5554450
  C        3.8398480     0.5472150     0.6113220
  C        4.1275660    -0.7178550     0.0911790
  H       -2.0189590     1.4850890    -1.2525130
  H       -2.8205670    -0.6804150    -1.8065990
  H       -4.1624350     0.1514200    -1.0190010
  H       -3.9082830    -2.2246930    -0.2264870
  H       -3.7050990    -1.0869340     1.0980480
  H       -1.8940300    -2.7681710     1.2100160
  H       -1.4444710    -2.4355870    -0.4683360
  H       -1.2866520    -0.4768830     1.8722860
  H        0.0828400    -1.2295020     1.0584050
  H       -3.6731810     2.1637340     0.4547800
  H       -2.9192060     1.1010660     1.6506870
  H       -2.0023200     2.4636420     0.9693550
  H        1.0609540    -1.4829580    -1.1859370
  H        2.3266460     2.0767070     0.8563740
  H        3.3548360    -2.4238320    -0.9804540
  H        4.6199280     1.1225680     1.1042590
  H        5.1302370    -1.1288490     0.1814620
units angstrom
no_reorient  #important for SAPT in psi4, default
symmetry c1  #important for SAPT in psi4, default
}

set PROPERTIES_ORIGIN ["COM"]
properties('MP2/aug-cc-pvtz', properties = ['dipole'])
--------------------------------------------------------------------------

    Molecular point group: c1
  Charge       = 0
  Multiplicity = 1
  Basis Set: AUG-CC-PVTZ
    Blend: AUG-CC-PVTZ
  Basis Set: (AUG-CC-PVTZ AUX)
    Blend: AUG-CC-PVTZ-JKFIT

    Orbital Energies [Eh]
    ---------------------

    Doubly Occupied:

       1A    -20.516644     2A    -15.584998     3A    -11.350016
       4A    -11.268129     5A    -11.262322     6A    -11.245829
       7A    -11.244683     8A    -11.243528     9A    -11.241739
      10A    -11.240952    11A    -11.239575    12A    -11.231783
      13A    -11.228647    14A    -11.225890    15A    -11.214213
      16A     -1.368524    17A     -1.253420    18A     -1.156611
      19A     -1.087551    20A     -1.054846    21A     -1.027594
      22A     -1.019331    23A     -0.962262    24A     -0.899535
      25A     -0.865407    26A     -0.836464    27A     -0.832052
      28A     -0.787461    29A     -0.730016    30A     -0.718472
      31A     -0.680393    32A     -0.654634    33A     -0.638992
      34A     -0.629127    35A     -0.625606    36A     -0.606308
      37A     -0.599016    38A     -0.591096    39A     -0.588265
      40A     -0.580188    41A     -0.566835    42A     -0.544680
      43A     -0.526669    44A     -0.520987    45A     -0.505728
      46A     -0.500514    47A     -0.495805    48A     -0.492031
      49A     -0.472708    50A     -0.465470    51A     -0.455243
      52A     -0.419813    53A     -0.372959    54A     -0.341195
      55A     -0.336039

  @DF-RHF Final Energy:  -631.72593143217932

   => Energetics <=

    Nuclear Repulsion Energy =            998.2794294318913444
    One-Electron Energy =               -2839.7131317715161458
    Two-Electron Energy =                1209.7077709074453651
    Total Energy =                       -631.7259314321793227
  Basis Set: (AUG-CC-PVTZ AUX)
    Blend: AUG-CC-PVTZ-RI
    Molecular point group: c1

    Geometry (in Angstrom), charge = 0, multiplicity = 1:

       Center              X                  Y                   Z               Mass
    ------------   -----------------  -----------------  -----------------  -----------------
         O            0.191810767490     2.119925646582    -0.729445802087    15.994914619570
         N           -0.982878032510     0.187467946582    -0.066414102087    14.003074004430
         C           -2.285142032510     0.795627946582    -0.388002102087    12.000000000000
         C           -3.246474032510    -0.311996053418    -0.827904102087    12.000000000000
         C           -3.329339032510    -1.460700053418     0.176620897913    12.000000000000
         C           -1.933224032510    -2.011530053418     0.459643897913    12.000000000000
         C           -1.008305032510    -0.893233053418     0.922299897913    12.000000000000
         C           -2.807982032510     1.656711946582     0.761118897913    12.000000000000
         C            0.133872967490     0.955800946582    -0.308396102087    12.000000000000
         C            1.471727967490     0.310262946582    -0.116043102087    12.000000000000
         C            1.763788967490    -0.952331053418    -0.650150102087    12.000000000000
         C            2.482624967490     1.054445946582     0.503492897913    12.000000000000
         C            3.052877967490    -1.475193053418    -0.538568102087    12.000000000000
         C            3.764889967490     0.520855946582     0.628198897913    12.000000000000
         C            4.052607967490    -0.744214053418     0.108055897913    12.000000000000
         H           -2.093917032510     1.458729946582    -1.235636102087     1.007825032230
         H           -2.895525032510    -0.706774053418    -1.789722102087     1.007825032230
         H           -4.237393032510     0.125060946582    -1.002124102087     1.007825032230
         H           -3.983241032510    -2.251052053418    -0.209610102087     1.007825032230
         H           -3.780057032510    -1.113293053418     1.114924897913     1.007825032230
         H           -1.968988032510    -2.794530053418     1.226892897913     1.007825032230
         H           -1.519429032510    -2.461946053418    -0.451459102087     1.007825032230
         H           -1.361610032510    -0.503242053418     1.889162897913     1.007825032230
         H            0.007881967490    -1.255861053418     1.075281897913     1.007825032230
         H           -3.748139032510     2.137374946582     0.471656897913     1.007825032230
         H           -2.994164032510     1.074706946582     1.667563897913     1.007825032230
         H           -2.077278032510     2.437282946582     0.986231897913     1.007825032230
         H            0.985995967490    -1.509317053418    -1.169060102087     1.007825032230
         H            2.251687967490     2.050347946582     0.873250897913     1.007825032230
         H            3.279877967490    -2.450191053418    -0.963577102087     1.007825032230
         H            4.544969967490     1.096208946582     1.121135897913     1.007825032230
         H            5.055278967490    -1.155208053418     0.198338897913     1.007825032230

  Basis Set: AUG-CC-PVTZ
    Blend: AUG-CC-PVTZ
  Basis Set: (AUG-CC-PVTZ AUX)
    Blend: AUG-CC-PVTZ-JKFIT
	 Reference Energy          =    -631.7259314321793227 [Eh]
	 Singles Energy            =      -0.0000000000000000 [Eh]
	 Same-Spin Energy          =      -0.6886272295169467 [Eh]
	 Opposite-Spin Energy      =      -2.2118373156107558 [Eh]
	 Correlation Energy        =      -2.9004645451277025 [Eh]
	 Total Energy              =    -634.6263959773069701 [Eh]

	 ================> DF-SCS-MP2 Energies <==================
	-----------------------------------------------------------
	 SCS Same-Spin Scale       =       0.3333333333333333 [-]
	 SCS Opposite-Spin Scale   =       1.2000000000000000 [-]
	 SCS Same-Spin Energy      =      -0.2295424098389822 [Eh]
	 SCS Opposite-Spin Energy  =      -2.6542047787329071 [Eh]
	 SCS Correlation Energy    =      -2.8837471885718893 [Eh]
	 SCS Total Energy          =    -634.6096786207511968 [Eh]
	-----------------------------------------------------------

  Dipole Moment: [D]
     X:    -1.3683      Y:    -3.0890      Z:     1.4745     Total:     3.6862

*** Psi4 exiting successfully. Buy a developer a beer!
