                               Psi4 1.3.2 release

  ==> Input File <==

--------------------------------------------------------------------------
#psi4
#
memory 32 gb

molecule  {
0 1
  O        0.1371160     2.1442200    -0.7498900
  N       -0.9079200     0.2138270    -0.0832910
  C       -2.2101840     0.8219870    -0.4048790
  C       -3.1715160    -0.2856370    -0.8447810
  C       -3.2543810    -1.4343410     0.1597440
  C       -1.8582660    -1.9851710     0.4427670
  C       -0.9333470    -0.8668740     0.9054230
  C       -2.7330240     1.6830710     0.7442420
  C        0.2088310     0.9821600    -0.3252730
  C        1.5466860     0.3366220    -0.1329200
  C        1.8619809    -0.9234144    -0.6598080
  C        2.5575830     1.0808050     0.4866160
  C        3.1278360    -1.4488340    -0.5554450
  C        3.8398480     0.5472150     0.6113220
  C        4.1275660    -0.7178550     0.0911790
  H       -2.0189590     1.4850890    -1.2525130
  H       -2.8205670    -0.6804150    -1.8065990
  H       -4.1624350     0.1514200    -1.0190010
  H       -3.9082830    -2.2246930    -0.2264870
  H       -3.7050990    -1.0869340     1.0980480
  H       -1.8940300    -2.7681710     1.2100160
  H       -1.4444710    -2.4355870    -0.4683360
  H       -1.2866520    -0.4768830     1.8722860
  H        0.0828400    -1.2295020     1.0584050
  H       -3.6731810     2.1637340     0.4547800
  H       -2.9192060     1.1010660     1.6506870
  H       -2.0023200     2.4636420     0.9693550
  H        1.0609540    -1.4829580    -1.1859370
  H        2.3266460     2.0767070     0.8563740
  H        3.3548360    -2.4238320    -0.9804540
  H        4.6199280     1.1225680     1.1042590
  H        5.1302370    -1.1288490     0.1814620
units angstrom
no_reorient  #important for SAPT in psi4, default
symmetry c1  #important for SAPT in psi4, default
}

set PROPERTIES_ORIGIN ["COM"]
properties('MP2/aug-cc-pvtz', properties = ['dipole'])
--------------------------------------------------------------------------

    Molecular point group: c1
  Charge       = 0
  Multiplicity = 1
  Basis Set: AUG-CC-PVTZ
    Blend: AUG-CC-PVTZ
  Basis Set: (AUG-CC-PVTZ AUX)
    Blend: AUG-CC-PVTZ-JKFIT

    Orbital Energies [Eh]
    ---------------------

    Doubly Occupied:

       1A    -20.514702     2A    -15.579291     3A    -11.349673
       4A    -11.265184     5A    -11.257721     6A    -11.250112
       7A    -11.248767     8A    -11.247504     9A    -11.245409
      10A    -11.242745    11A    -11.242591    12A    -11.229486
      13A    -11.226256    14A    -11.222972    15A    -11.210825
      16A     -1.368791    17A     -1.246523    18A     -1.162815
      19A     -1.084795    20A     -1.052383    21A     -1.030926
      22A     -1.024608    23A     -0.959249    24A     -0.897504
      25A     -0.866124    26A     -0.836036    27A     -0.833006
      28A     -0.787561    29A     -0.729212    30A     -0.717768
      31A     -0.681608    32A     -0.654259    33A     -0.639401
      34A     -0.627941    35A     -0.625226    36A     -0.605963
      37A     -0.599723    38A     -0.591960    39A     -0.586639
      40A     -0.577660    41A     -0.564571    42A     -0.543160
      43A     -0.526702    44A     -0.519664    45A     -0.508475
      46A     -0.501628    47A     -0.493769    48A     -0.491237
      49A     -0.469940    50A     -0.462393    51A     -0.451463
      52A     -0.421840    53A     -0.368137    54A     -0.346628
      55A     -0.341197

  @DF-RHF Final Energy:  -631.72860760209915

   => Energetics <=

    Nuclear Repulsion Energy =            998.7616356585228914
    One-Electron Energy =               -2840.7170411224515192
    Two-Electron Energy =                1210.2267978618294819
    Total Energy =                       -631.7286076020991459
  Basis Set: (AUG-CC-PVTZ AUX)
    Blend: AUG-CC-PVTZ-RI
    Molecular point group: c1

    Geometry (in Angstrom), charge = 0, multiplicity = 1:

       Center              X                  Y                   Z               Mass
    ------------   -----------------  -----------------  -----------------  -----------------
         O            0.070994523904     2.117872434243    -0.733158669918    15.994914619570
         N           -0.974041476096     0.187479434243    -0.066559669918    14.003074004430
         C           -2.276305476096     0.795639434243    -0.388147669918    12.000000000000
         C           -3.237637476096    -0.311984565757    -0.828049669918    12.000000000000
         C           -3.320502476096    -1.460688565757     0.176475330082    12.000000000000
         C           -1.924387476096    -2.011518565757     0.459498330082    12.000000000000
         C           -0.999468476096    -0.893221565757     0.922154330082    12.000000000000
         C           -2.799145476096     1.656723434243     0.760973330082    12.000000000000
         C            0.142709523904     0.955812434243    -0.308541669918    12.000000000000
         C            1.480564523904     0.310274434243    -0.116188669918    12.000000000000
         C            1.795859423904    -0.949761965757    -0.643076669918    12.000000000000
         C            2.491461523904     1.054457434243     0.503347330082    12.000000000000
         C            3.061714523904    -1.475181565757    -0.538713669918    12.000000000000
         C            3.773726523904     0.520867434243     0.628053330082    12.000000000000
         C            4.061444523904    -0.744202565757     0.107910330082    12.000000000000
         H           -2.085080476096     1.458741434243    -1.235781669918     1.007825032230
         H           -2.886688476096    -0.706762565757    -1.789867669918     1.007825032230
         H           -4.228556476096     0.125072434243    -1.002269669918     1.007825032230
         H           -3.974404476096    -2.251040565757    -0.209755669918     1.007825032230
         H           -3.771220476096    -1.113281565757     1.114779330082     1.007825032230
         H           -1.960151476096    -2.794518565757     1.226747330082     1.007825032230
         H           -1.510592476096    -2.461934565757    -0.451604669918     1.007825032230
         H           -1.352773476096    -0.503230565757     1.889017330082     1.007825032230
         H            0.016718523904    -1.255849565757     1.075136330082     1.007825032230
         H           -3.739302476096     2.137386434243     0.471511330082     1.007825032230
         H           -2.985327476096     1.074718434243     1.667418330082     1.007825032230
         H           -2.068441476096     2.437294434243     0.986086330082     1.007825032230
         H            0.994832523904    -1.509305565757    -1.169205669918     1.007825032230
         H            2.260524523904     2.050359434243     0.873105330082     1.007825032230
         H            3.288714523904    -2.450179565757    -0.963722669918     1.007825032230
         H            4.553806523904     1.096220434243     1.120990330082     1.007825032230
         H            5.064115523904    -1.155196565757     0.198193330082     1.007825032230

  Basis Set: AUG-CC-PVTZ
    Blend: AUG-CC-PVTZ
  Basis Set: (AUG-CC-PVTZ AUX)
    Blend: AUG-CC-PVTZ-JKFIT
	 Reference Energy          =    -631.7286076020991459 [Eh]
	 Singles Energy            =      -0.0000000000000000 [Eh]
	 Same-Spin Energy          =      -0.6886368791383022 [Eh]
	 Opposite-Spin Energy      =      -2.2115270283908131 [Eh]
	 Correlation Energy        =      -2.9001639075291150 [Eh]
	 Total Energy              =    -634.6287715096282227 [Eh]

	 ================> DF-SCS-MP2 Energies <==================
	-----------------------------------------------------------
	 SCS Same-Spin Scale       =       0.3333333333333333 [-]
	 SCS Opposite-Spin Scale   =       1.2000000000000000 [-]
	 SCS Same-Spin Energy      =      -0.2295456263794340 [Eh]
	 SCS Opposite-Spin Energy  =      -2.6538324340689754 [Eh]
	 SCS Correlation Energy    =      -2.8833780604484094 [Eh]
	 SCS Total Energy          =    -634.6119856625475677 [Eh]
	-----------------------------------------------------------

  Dipole Moment: [D]
     X:    -0.8407      Y:    -3.1249      Z:     1.4661     Total:     3.5526

*** Psi4 exiting successfully. Buy a developer a beer!
