                               Psi4 1.4a3.dev225

  ==> Input File <==

--------------------------------------------------------------------------
#psi4
#
memory 32 gb

molecule  {
0 1
  O        0.1371160     2.1442200    -0.7498900
  N       -0.9079200     0.2138270    -0.0832910
  C       -2.2101840     0.8219870    -0.4048790
  C       -3.1715160    -0.2856370    -0.8447810
  C       -3.2543810    -1.4343410     0.1597440
  C       -1.8582660    -1.9851710     0.4427670
  C       -0.9333470    -0.8668740     0.9054230
  C       -2.7330240     1.6830710     0.7442420
  C        0.2493823     1.0100596    -0.3340598
  C        1.5466860     0.3366220    -0.1329200
  C        1.8387470    -0.9259720    -0.6670270
  C        2.5575830     1.0808050     0.4866160
  C        3.1278360    -1.4488340    -0.5554450
  C        3.8398480     0.5472150     0.6113220
  C        4.1275660    -0.7178550     0.0911790
  H       -2.0189590     1.4850890    -1.2525130
  H       -2.8205670    -0.6804150    -1.8065990
  H       -4.1624350     0.1514200    -1.0190010
  H       -3.9082830    -2.2246930    -0.2264870
  H       -3.7050990    -1.0869340     1.0980480
  H       -1.8940300    -2.7681710     1.2100160
  H       -1.4444710    -2.4355870    -0.4683360
  H       -1.2866520    -0.4768830     1.8722860
  H        0.0828400    -1.2295020     1.0584050
  H       -3.6731810     2.1637340     0.4547800
  H       -2.9192060     1.1010660     1.6506870
  H       -2.0023200     2.4636420     0.9693550
  H        1.0609540    -1.4829580    -1.1859370
  H        2.3266460     2.0767070     0.8563740
  H        3.3548360    -2.4238320    -0.9804540
  H        4.6199280     1.1225680     1.1042590
  H        5.1302370    -1.1288490     0.1814620
units angstrom
no_reorient  #important for SAPT in psi4, default
symmetry c1  #important for SAPT in psi4, default
}

set PROPERTIES_ORIGIN ["COM"]
properties('MP2/aug-cc-pvtz', properties = ['dipole'])
--------------------------------------------------------------------------

    Molecular point group: c1
  Charge       = 0
  Multiplicity = 1
  Basis Set: AUG-CC-PVTZ
    Blend: AUG-CC-PVTZ
  Basis Set: (AUG-CC-PVTZ AUX)
    Blend: AUG-CC-PVTZ-JKFIT

    Orbital Energies [Eh]
    ---------------------

    Doubly Occupied:

       1A    -20.523029     2A    -15.570412     3A    -11.350671
       4A    -11.259819     5A    -11.253605     6A    -11.252851
       7A    -11.250433     8A    -11.250043     9A    -11.247929
      10A    -11.247068    11A    -11.244978    12A    -11.225957
      13A    -11.223307    14A    -11.219832    15A    -11.207940
      16A     -1.385699    17A     -1.235594    18A     -1.163768
      19A     -1.078452    20A     -1.049697    21A     -1.033226
      22A     -1.025129    23A     -0.953178    24A     -0.893383
      25A     -0.864280    26A     -0.839542    27A     -0.831325
      28A     -0.782392    29A     -0.729320    30A     -0.714322
      31A     -0.684913    32A     -0.654858    33A     -0.639009
      34A     -0.628748    35A     -0.625248    36A     -0.604661
      37A     -0.599784    38A     -0.595640    39A     -0.584841
      40A     -0.575465    41A     -0.562006    42A     -0.544157
      43A     -0.527003    44A     -0.517661    45A     -0.510042
      46A     -0.504207    47A     -0.496598    48A     -0.490415
      49A     -0.468192    50A     -0.460255    51A     -0.447675
      52A     -0.424094    53A     -0.362112    54A     -0.346393
      55A     -0.344857

  @DF-RHF Final Energy:  -631.72707052052181

   => Energetics <=

    Nuclear Repulsion Energy =            998.3558997744385124
    One-Electron Energy =               -2839.9539094729930184
    Two-Electron Energy =                1209.8709391780328133
    Total Energy =                       -631.7270705205216927
  Basis Set: (AUG-CC-PVTZ AUX)
    Blend: AUG-CC-PVTZ-RI
    Molecular point group: c1

    Geometry (in Angstrom), charge = 0, multiplicity = 1:

       Center              X                  Y                   Z               Mass
    ------------   -----------------  -----------------  -----------------  -----------------
         O            0.069971495487     2.116375351184    -0.732213124498    15.994914619570
         N           -0.975064504513     0.185982351184    -0.065614124498    14.003074004430
         C           -2.277328504513     0.794142351184    -0.387202124498    12.000000000000
         C           -3.238660504513    -0.313481648816    -0.827104124498    12.000000000000
         C           -3.321525504513    -1.462185648816     0.177420875502    12.000000000000
         C           -1.925410504513    -2.013015648816     0.460443875502    12.000000000000
         C           -1.000491504513    -0.894718648816     0.923099875502    12.000000000000
         C           -2.800168504513     1.655226351184     0.761918875502    12.000000000000
         C            0.182237795487     0.982214951184    -0.316382924498    12.000000000000
         C            1.479541495487     0.308777351184    -0.115243124498    12.000000000000
         C            1.771602495487    -0.953816648816    -0.649350124498    12.000000000000
         C            2.490438495487     1.052960351184     0.504292875502    12.000000000000
         C            3.060691495487    -1.476678648816    -0.537768124498    12.000000000000
         C            3.772703495487     0.519370351184     0.628998875502    12.000000000000
         C            4.060421495487    -0.745699648816     0.108855875502    12.000000000000
         H           -2.086103504513     1.457244351184    -1.234836124498     1.007825032230
         H           -2.887711504513    -0.708259648816    -1.788922124498     1.007825032230
         H           -4.229579504513     0.123575351184    -1.001324124498     1.007825032230
         H           -3.975427504513    -2.252537648816    -0.208810124498     1.007825032230
         H           -3.772243504513    -1.114778648816     1.115724875502     1.007825032230
         H           -1.961174504513    -2.796015648816     1.227692875502     1.007825032230
         H           -1.511615504513    -2.463431648816    -0.450659124498     1.007825032230
         H           -1.353796504513    -0.504727648816     1.889962875502     1.007825032230
         H            0.015695495487    -1.257346648816     1.076081875502     1.007825032230
         H           -3.740325504513     2.135889351184     0.472456875502     1.007825032230
         H           -2.986350504513     1.073221351184     1.668363875502     1.007825032230
         H           -2.069464504513     2.435797351184     0.987031875502     1.007825032230
         H            0.993809495487    -1.510802648816    -1.168260124498     1.007825032230
         H            2.259501495487     2.048862351184     0.874050875502     1.007825032230
         H            3.287691495487    -2.451676648816    -0.962777124498     1.007825032230
         H            4.552783495487     1.094723351184     1.121935875502     1.007825032230
         H            5.063092495487    -1.156693648816     0.199138875502     1.007825032230

  Basis Set: AUG-CC-PVTZ
    Blend: AUG-CC-PVTZ
  Basis Set: (AUG-CC-PVTZ AUX)
    Blend: AUG-CC-PVTZ-JKFIT
	 Reference Energy          =    -631.7270705205218064 [Eh]
	 Singles Energy            =      -0.0000000000000000 [Eh]
	 Same-Spin Energy          =      -0.6884224575865372 [Eh]
	 Opposite-Spin Energy      =      -2.2112174549800678 [Eh]
	 Correlation Energy        =      -2.8996399125666050 [Eh]
	 Total Energy              =    -634.6267104330884194 [Eh]

	 ================> DF-SCS-MP2 Energies <==================
	-----------------------------------------------------------
	 SCS Same-Spin Scale       =       0.3333333333333333 [-]
	 SCS Opposite-Spin Scale   =       1.2000000000000000 [-]
	 SCS Same-Spin Energy      =      -0.2294741525288457 [Eh]
	 SCS Opposite-Spin Energy  =      -2.6534609459760814 [Eh]
	 SCS Correlation Energy    =      -2.8829350985049271 [Eh]
	 SCS Total Energy          =    -634.6100056190267651 [Eh]
	-----------------------------------------------------------

  Dipole Moment: [D]
     X:    -0.3594      Y:    -2.9029      Z:     1.3431     Total:     3.2187

*** Psi4 exiting successfully. Buy a developer a beer!
