                               Psi4 1.3.2 release

  ==> Input File <==

--------------------------------------------------------------------------
#psi4
#
memory 32 gb

molecule  {
0 1
  O        0.1371160     2.1442200    -0.7498900
  N       -0.9079200     0.2138270    -0.0832910
  C       -2.2101840     0.8219870    -0.4048790
  C       -3.2059938    -0.2692855    -0.8073601
  C       -3.2543810    -1.4343410     0.1597440
  C       -1.8582660    -1.9851710     0.4427670
  C       -0.9333470    -0.8668740     0.9054230
  C       -2.7330240     1.6830710     0.7442420
  C        0.2088310     0.9821600    -0.3252730
  C        1.5466860     0.3366220    -0.1329200
  C        1.8387470    -0.9259720    -0.6670270
  C        2.5575830     1.0808050     0.4866160
  C        3.1278360    -1.4488340    -0.5554450
  C        3.8398480     0.5472150     0.6113220
  C        4.1275660    -0.7178550     0.0911790
  H       -2.0189590     1.4850890    -1.2525130
  H       -2.8205670    -0.6804150    -1.8065990
  H       -4.1624350     0.1514200    -1.0190010
  H       -3.9082830    -2.2246930    -0.2264870
  H       -3.7050990    -1.0869340     1.0980480
  H       -1.8940300    -2.7681710     1.2100160
  H       -1.4444710    -2.4355870    -0.4683360
  H       -1.2866520    -0.4768830     1.8722860
  H        0.0828400    -1.2295020     1.0584050
  H       -3.6731810     2.1637340     0.4547800
  H       -2.9192060     1.1010660     1.6506870
  H       -2.0023200     2.4636420     0.9693550
  H        1.0609540    -1.4829580    -1.1859370
  H        2.3266460     2.0767070     0.8563740
  H        3.3548360    -2.4238320    -0.9804540
  H        4.6199280     1.1225680     1.1042590
  H        5.1302370    -1.1288490     0.1814620
units angstrom
no_reorient  #important for SAPT in psi4, default
symmetry c1  #important for SAPT in psi4, default
}

set PROPERTIES_ORIGIN ["COM"]
properties('MP2/aug-cc-pvtz', properties = ['dipole'])
--------------------------------------------------------------------------

    Molecular point group: c1
  Charge       = 0
  Multiplicity = 1
  Basis Set: AUG-CC-PVTZ
    Blend: AUG-CC-PVTZ
  Basis Set: (AUG-CC-PVTZ AUX)
    Blend: AUG-CC-PVTZ-JKFIT

    Orbital Energies [Eh]
    ---------------------

    Doubly Occupied:

       1A    -20.514719     2A    -15.579926     3A    -11.349511
       4A    -11.265438     5A    -11.258109     6A    -11.250797
       7A    -11.249538     8A    -11.247632     9A    -11.245568
      10A    -11.245218    11A    -11.243225    12A    -11.230378
      13A    -11.226276    14A    -11.224255    15A    -11.209838
      16A     -1.368873    17A     -1.246648    18A     -1.160951
      19A     -1.086366    20A     -1.052889    21A     -1.031336
      22A     -1.023149    23A     -0.959535    24A     -0.896468
      25A     -0.866593    26A     -0.837813    27A     -0.833900
      28A     -0.786998    29A     -0.728115    30A     -0.718005
      31A     -0.682209    32A     -0.655145    33A     -0.638583
      34A     -0.627888    35A     -0.626179    36A     -0.606689
      37A     -0.597886    38A     -0.593048    39A     -0.589224
      40A     -0.578923    41A     -0.566996    42A     -0.541972
      43A     -0.526108    44A     -0.520767    45A     -0.508311
      46A     -0.503146    47A     -0.493193    48A     -0.491796
      49A     -0.467843    50A     -0.461782    51A     -0.450257
      52A     -0.421514    53A     -0.368001    54A     -0.344618
      55A     -0.341976

  @DF-RHF Final Energy:  -631.72602922725616

   => Energetics <=

    Nuclear Repulsion Energy =            998.5819770777633266
    One-Electron Energy =               -2840.3317700224615692
    Two-Electron Energy =                1210.0237637174418524
    Total Energy =                       -631.7260292272562765
  Basis Set: (AUG-CC-PVTZ AUX)
    Blend: AUG-CC-PVTZ-RI
    Molecular point group: c1

    Geometry (in Angstrom), charge = 0, multiplicity = 1:

       Center              X                  Y                   Z               Mass
    ------------   -----------------  -----------------  -----------------  -----------------
         O            0.074403852622     2.117057557201    -0.734942852415    15.994914619570
         N           -0.970632147378     0.186664557201    -0.068343852415    14.003074004430
         C           -2.272896147378     0.794824557201    -0.389931852415    12.000000000000
         C           -3.268705947378    -0.296447942799    -0.792412952415    12.000000000000
         C           -3.317093147378    -1.461503442799     0.174691147585    12.000000000000
         C           -1.920978147378    -2.012333442799     0.457714147585    12.000000000000
         C           -0.996059147378    -0.894036442799     0.920370147585    12.000000000000
         C           -2.795736147378     1.655908557201     0.759189147585    12.000000000000
         C            0.146118852622     0.954997557201    -0.310325852415    12.000000000000
         C            1.483973852622     0.309459557201    -0.117972852415    12.000000000000
         C            1.776034852622    -0.953134442799    -0.652079852415    12.000000000000
         C            2.494870852622     1.053642557201     0.501563147585    12.000000000000
         C            3.065123852622    -1.475996442799    -0.540497852415    12.000000000000
         C            3.777135852622     0.520052557201     0.626269147585    12.000000000000
         C            4.064853852622    -0.745017442799     0.106126147585    12.000000000000
         H           -2.081671147378     1.457926557201    -1.237565852415     1.007825032230
         H           -2.883279147378    -0.707577442799    -1.791651852415     1.007825032230
         H           -4.225147147378     0.124257557201    -1.004053852415     1.007825032230
         H           -3.970995147378    -2.251855442799    -0.211539852415     1.007825032230
         H           -3.767811147378    -1.114096442799     1.112995147585     1.007825032230
         H           -1.956742147378    -2.795333442799     1.224963147585     1.007825032230
         H           -1.507183147378    -2.462749442799    -0.453388852415     1.007825032230
         H           -1.349364147378    -0.504045442799     1.887233147585     1.007825032230
         H            0.020127852622    -1.256664442799     1.073352147585     1.007825032230
         H           -3.735893147378     2.136571557201     0.469727147585     1.007825032230
         H           -2.981918147378     1.073903557201     1.665634147585     1.007825032230
         H           -2.065032147378     2.436479557201     0.984302147585     1.007825032230
         H            0.998241852622    -1.510120442799    -1.170989852415     1.007825032230
         H            2.263933852622     2.049544557201     0.871321147585     1.007825032230
         H            3.292123852622    -2.450994442799    -0.965506852415     1.007825032230
         H            4.557215852622     1.095405557201     1.119206147585     1.007825032230
         H            5.067524852622    -1.156011442799     0.196409147585     1.007825032230

  Basis Set: AUG-CC-PVTZ
    Blend: AUG-CC-PVTZ
  Basis Set: (AUG-CC-PVTZ AUX)
    Blend: AUG-CC-PVTZ-JKFIT
	 Reference Energy          =    -631.7260292272561628 [Eh]
	 Singles Energy            =      -0.0000000000000000 [Eh]
	 Same-Spin Energy          =      -0.6887258090857001 [Eh]
	 Opposite-Spin Energy      =      -2.2117949843833120 [Eh]
	 Correlation Energy        =      -2.9005207934690120 [Eh]
	 Total Energy              =    -634.6265500207251762 [Eh]

	 ================> DF-SCS-MP2 Energies <==================
	-----------------------------------------------------------
	 SCS Same-Spin Scale       =       0.3333333333333333 [-]
	 SCS Opposite-Spin Scale   =       1.2000000000000000 [-]
	 SCS Same-Spin Energy      =      -0.2295752696952334 [Eh]
	 SCS Opposite-Spin Energy  =      -2.6541539812599741 [Eh]
	 SCS Correlation Energy    =      -2.8837292509552075 [Eh]
	 SCS Total Energy          =    -634.6097584782113472 [Eh]
	-----------------------------------------------------------

  Dipole Moment: [D]
     X:    -0.8290      Y:    -3.1293      Z:     1.4860     Total:     3.5620

*** Psi4 exiting successfully. Buy a developer a beer!
