                               Psi4 1.3.2 release

  ==> Input File <==

--------------------------------------------------------------------------
#psi4
#
memory 32 gb

molecule  {
0 1
  O        0.1371160     2.1442200    -0.7498900
  N       -0.9485613     0.1226010    -0.1076646
  C       -2.2101840     0.8219870    -0.4048790
  C       -3.1715160    -0.2856370    -0.8447810
  C       -3.2543810    -1.4343410     0.1597440
  C       -1.8582660    -1.9851710     0.4427670
  C       -0.9333470    -0.8668740     0.9054230
  C       -2.7330240     1.6830710     0.7442420
  C        0.2088310     0.9821600    -0.3252730
  C        1.5466860     0.3366220    -0.1329200
  C        1.8387470    -0.9259720    -0.6670270
  C        2.5575830     1.0808050     0.4866160
  C        3.1278360    -1.4488340    -0.5554450
  C        3.8398480     0.5472150     0.6113220
  C        4.1275660    -0.7178550     0.0911790
  H       -2.0189590     1.4850890    -1.2525130
  H       -2.8205670    -0.6804150    -1.8065990
  H       -4.1624350     0.1514200    -1.0190010
  H       -3.9082830    -2.2246930    -0.2264870
  H       -3.7050990    -1.0869340     1.0980480
  H       -1.8940300    -2.7681710     1.2100160
  H       -1.4444710    -2.4355870    -0.4683360
  H       -1.2866520    -0.4768830     1.8722860
  H        0.0828400    -1.2295020     1.0584050
  H       -3.6731810     2.1637340     0.4547800
  H       -2.9192060     1.1010660     1.6506870
  H       -2.0023200     2.4636420     0.9693550
  H        1.0609540    -1.4829580    -1.1859370
  H        2.3266460     2.0767070     0.8563740
  H        3.3548360    -2.4238320    -0.9804540
  H        4.6199280     1.1225680     1.1042590
  H        5.1302370    -1.1288490     0.1814620
units angstrom
no_reorient  #important for SAPT in psi4, default
symmetry c1  #important for SAPT in psi4, default
}

set PROPERTIES_ORIGIN ["COM"]
properties('MP2/aug-cc-pvtz', properties = ['dipole'])
--------------------------------------------------------------------------

    Molecular point group: c1
  Charge       = 0
  Multiplicity = 1
  Basis Set: AUG-CC-PVTZ
    Blend: AUG-CC-PVTZ
  Basis Set: (AUG-CC-PVTZ AUX)
    Blend: AUG-CC-PVTZ-JKFIT

    Orbital Energies [Eh]
    ---------------------

    Doubly Occupied:

       1A    -20.531514     2A    -15.576337     3A    -11.360489
       4A    -11.257070     5A    -11.255176     6A    -11.252878
       7A    -11.251178     8A    -11.249340     9A    -11.247830
      10A    -11.246462    11A    -11.244789    12A    -11.223524
      13A    -11.222590    14A    -11.217971    15A    -11.210622
      16A     -1.373110    17A     -1.248461    18A     -1.162733
      19A     -1.076021    20A     -1.051003    21A     -1.033601
      22A     -1.024722    23A     -0.953142    24A     -0.891654
      25A     -0.862323    26A     -0.838699    27A     -0.833058
      28A     -0.780452    29A     -0.731180    30A     -0.717969
      31A     -0.685335    32A     -0.655184    33A     -0.637700
      34A     -0.629728    35A     -0.624079    36A     -0.604269
      37A     -0.598835    38A     -0.595302    39A     -0.582736
      40A     -0.580023    41A     -0.561251    42A     -0.542242
      43A     -0.527176    44A     -0.521581    45A     -0.508917
      46A     -0.503740    47A     -0.494437    48A     -0.491073
      49A     -0.467576    50A     -0.459751    51A     -0.448689
      52A     -0.423801    53A     -0.366480    54A     -0.345965
      55A     -0.343901

  @DF-RHF Final Energy:  -631.71750596495087

   => Energetics <=

    Nuclear Repulsion Energy =            998.2890789538382705
    One-Electron Energy =               -2839.7618349817676062
    Two-Electron Energy =                1209.7552500629785754
    Total Energy =                       -631.7175059649507602
  Basis Set: (AUG-CC-PVTZ AUX)
    Blend: AUG-CC-PVTZ-RI
    Molecular point group: c1

    Geometry (in Angstrom), charge = 0, multiplicity = 1:

       Center              X                  Y                   Z               Mass
    ------------   -----------------  -----------------  -----------------  -----------------
         O            0.075168726130     2.124312295898    -0.731051983618    15.994914619570
         N           -1.010508573870     0.102693295898    -0.088826583618    14.003074004430
         C           -2.272131273870     0.802079295898    -0.386040983618    12.000000000000
         C           -3.233463273870    -0.305544704102    -0.825942983618    12.000000000000
         C           -3.316328273870    -1.454248704102     0.178582016382    12.000000000000
         C           -1.920213273870    -2.005078704102     0.461605016382    12.000000000000
         C           -0.995294273870    -0.886781704102     0.924261016382    12.000000000000
         C           -2.794971273870     1.663163295898     0.763080016382    12.000000000000
         C            0.146883726130     0.962252295898    -0.306434983618    12.000000000000
         C            1.484738726130     0.316714295898    -0.114081983618    12.000000000000
         C            1.776799726130    -0.945879704102    -0.648188983618    12.000000000000
         C            2.495635726130     1.060897295898     0.505454016382    12.000000000000
         C            3.065888726130    -1.468741704102    -0.536606983618    12.000000000000
         C            3.777900726130     0.527307295898     0.630160016382    12.000000000000
         C            4.065618726130    -0.737762704102     0.110017016382    12.000000000000
         H           -2.080906273870     1.465181295898    -1.233674983618     1.007825032230
         H           -2.882514273870    -0.700322704102    -1.787760983618     1.007825032230
         H           -4.224382273870     0.131512295898    -1.000162983618     1.007825032230
         H           -3.970230273870    -2.244600704102    -0.207648983618     1.007825032230
         H           -3.767046273870    -1.106841704102     1.116886016382     1.007825032230
         H           -1.955977273870    -2.788078704102     1.228854016382     1.007825032230
         H           -1.506418273870    -2.455494704102    -0.449497983618     1.007825032230
         H           -1.348599273870    -0.496790704102     1.891124016382     1.007825032230
         H            0.020892726130    -1.249409704102     1.077243016382     1.007825032230
         H           -3.735128273870     2.143826295898     0.473618016382     1.007825032230
         H           -2.981153273870     1.081158295898     1.669525016382     1.007825032230
         H           -2.064267273870     2.443734295898     0.988193016382     1.007825032230
         H            0.999006726130    -1.502865704102    -1.167098983618     1.007825032230
         H            2.264698726130     2.056799295898     0.875212016382     1.007825032230
         H            3.292888726130    -2.443739704102    -0.961615983618     1.007825032230
         H            4.557980726130     1.102660295898     1.123097016382     1.007825032230
         H            5.068289726130    -1.148756704102     0.200300016382     1.007825032230

  Basis Set: AUG-CC-PVTZ
    Blend: AUG-CC-PVTZ
  Basis Set: (AUG-CC-PVTZ AUX)
    Blend: AUG-CC-PVTZ-JKFIT
	 Reference Energy          =    -631.7175059649508739 [Eh]
	 Singles Energy            =      -0.0000000000000000 [Eh]
	 Same-Spin Energy          =      -0.6896094310049923 [Eh]
	 Opposite-Spin Energy      =      -2.2137943281103247 [Eh]
	 Correlation Energy        =      -2.9034037591153172 [Eh]
	 Total Energy              =    -634.6209097240662231 [Eh]

	 ================> DF-SCS-MP2 Energies <==================
	-----------------------------------------------------------
	 SCS Same-Spin Scale       =       0.3333333333333333 [-]
	 SCS Opposite-Spin Scale   =       1.2000000000000000 [-]
	 SCS Same-Spin Energy      =      -0.2298698103349974 [Eh]
	 SCS Opposite-Spin Energy  =      -2.6565531937323894 [Eh]
	 SCS Correlation Energy    =      -2.8864230040673871 [Eh]
	 SCS Total Energy          =    -634.6039289690182841 [Eh]
	-----------------------------------------------------------

  Dipole Moment: [D]
     X:    -0.3635      Y:    -2.6736      Z:     1.3584     Total:     3.0208

*** Psi4 exiting successfully. Buy a developer a beer!
