                               Psi4 1.3.2 release

  ==> Input File <==

--------------------------------------------------------------------------
#psi4
#
memory 32 gb

molecule  {
0 1
  O        0.1371160     2.1442200    -0.7498900
  N       -0.9079200     0.2138270    -0.0832910
  C       -2.2101840     0.8219870    -0.4048790
  C       -3.1715160    -0.2856370    -0.8447810
  C       -3.2543810    -1.4343410     0.1597440
  C       -1.8582660    -1.9851710     0.4427670
  C       -0.9333470    -0.8668740     0.9054230
  C       -2.7330240     1.6830710     0.7442420
  C        0.2088310     0.9821600    -0.3252730
  C        1.6360040     0.2935246    -0.1200781
  C        1.8387470    -0.9259720    -0.6670270
  C        2.5575830     1.0808050     0.4866160
  C        3.1278360    -1.4488340    -0.5554450
  C        3.8398480     0.5472150     0.6113220
  C        4.1275660    -0.7178550     0.0911790
  H       -2.0189590     1.4850890    -1.2525130
  H       -2.8205670    -0.6804150    -1.8065990
  H       -4.1624350     0.1514200    -1.0190010
  H       -3.9082830    -2.2246930    -0.2264870
  H       -3.7050990    -1.0869340     1.0980480
  H       -1.8940300    -2.7681710     1.2100160
  H       -1.4444710    -2.4355870    -0.4683360
  H       -1.2866520    -0.4768830     1.8722860
  H        0.0828400    -1.2295020     1.0584050
  H       -3.6731810     2.1637340     0.4547800
  H       -2.9192060     1.1010660     1.6506870
  H       -2.0023200     2.4636420     0.9693550
  H        1.0609540    -1.4829580    -1.1859370
  H        2.3266460     2.0767070     0.8563740
  H        3.3548360    -2.4238320    -0.9804540
  H        4.6199280     1.1225680     1.1042590
  H        5.1302370    -1.1288490     0.1814620
units angstrom
no_reorient  #important for SAPT in psi4, default
symmetry c1  #important for SAPT in psi4, default
}

set PROPERTIES_ORIGIN ["COM"]
properties('MP2/aug-cc-pvtz', properties = ['dipole'])
--------------------------------------------------------------------------

    Molecular point group: c1
  Charge       = 0
  Multiplicity = 1
  Basis Set: AUG-CC-PVTZ
    Blend: AUG-CC-PVTZ
  Basis Set: (AUG-CC-PVTZ AUX)
    Blend: AUG-CC-PVTZ-JKFIT

    Orbital Energies [Eh]
    ---------------------

    Doubly Occupied:

       1A    -20.515147     2A    -15.579077     3A    -11.351351
       4A    -11.265200     5A    -11.257603     6A    -11.247349
       7A    -11.245341     8A    -11.243865     9A    -11.242704
      10A    -11.241868    11A    -11.238195    12A    -11.229614
      13A    -11.226327    14A    -11.222965    15A    -11.210739
      16A     -1.365893    17A     -1.245477    18A     -1.170278
      19A     -1.083408    20A     -1.051291    21A     -1.029419
      22A     -1.028349    23A     -0.958790    24A     -0.893845
      25A     -0.857878    26A     -0.841476    27A     -0.831167
      28A     -0.788108    29A     -0.727572    30A     -0.717590
      31A     -0.675468    32A     -0.651063    33A     -0.640515
      34A     -0.629781    35A     -0.625845    36A     -0.610216
      37A     -0.598779    38A     -0.594022    39A     -0.585513
      40A     -0.576925    41A     -0.564044    42A     -0.542997
      43A     -0.524946    44A     -0.518747    45A     -0.511346
      46A     -0.506813    47A     -0.494386    48A     -0.493865
      49A     -0.469780    50A     -0.462305    51A     -0.451336
      52A     -0.410263    53A     -0.367716    54A     -0.347403
      55A     -0.344934

  @DF-RHF Final Energy:  -631.71990984792751

   => Energetics <=

    Nuclear Repulsion Energy =            998.3987704600702955
    One-Electron Energy =               -2840.0235746700536765
    Two-Electron Energy =                1209.9048943620557566
    Total Energy =                       -631.7199098479275108
  Basis Set: (AUG-CC-PVTZ AUX)
    Blend: AUG-CC-PVTZ-RI
    Molecular point group: c1

    Geometry (in Angstrom), charge = 0, multiplicity = 1:

       Center              X                  Y                   Z               Mass
    ------------   -----------------  -----------------  -----------------  -----------------
         O            0.067090594200     2.120569511310    -0.733490843714    15.994914619570
         N           -0.977945405800     0.190176511310    -0.066891843714    14.003074004430
         C           -2.280209405800     0.798336511310    -0.388479843714    12.000000000000
         C           -3.241541405800    -0.309287488690    -0.828381843714    12.000000000000
         C           -3.324406405800    -1.457991488690     0.176143156286    12.000000000000
         C           -1.928291405800    -2.008821488690     0.459166156286    12.000000000000
         C           -1.003372405800    -0.890524488690     0.921822156286    12.000000000000
         C           -2.803049405800     1.659420511310     0.760641156286    12.000000000000
         C            0.138805594200     0.958509511310    -0.308873843714    12.000000000000
         C            1.565978594200     0.269874111310    -0.103678943714    12.000000000000
         C            1.768721594200    -0.949622488690    -0.650627843714    12.000000000000
         C            2.487557594200     1.057154511310     0.503015156286    12.000000000000
         C            3.057810594200    -1.472484488690    -0.539045843714    12.000000000000
         C            3.769822594200     0.523564511310     0.627721156286    12.000000000000
         C            4.057540594200    -0.741505488690     0.107578156286    12.000000000000
         H           -2.088984405800     1.461438511310    -1.236113843714     1.007825032230
         H           -2.890592405800    -0.704065488690    -1.790199843714     1.007825032230
         H           -4.232460405800     0.127769511310    -1.002601843714     1.007825032230
         H           -3.978308405800    -2.248343488690    -0.210087843714     1.007825032230
         H           -3.775124405800    -1.110584488690     1.114447156286     1.007825032230
         H           -1.964055405800    -2.791821488690     1.226415156286     1.007825032230
         H           -1.514496405800    -2.459237488690    -0.451936843714     1.007825032230
         H           -1.356677405800    -0.500533488690     1.888685156286     1.007825032230
         H            0.012814594200    -1.253152488690     1.074804156286     1.007825032230
         H           -3.743206405800     2.140083511310     0.471179156286     1.007825032230
         H           -2.989231405800     1.077415511310     1.667086156286     1.007825032230
         H           -2.072345405800     2.439991511310     0.985754156286     1.007825032230
         H            0.990928594200    -1.506608488690    -1.169537843714     1.007825032230
         H            2.256620594200     2.053056511310     0.872773156286     1.007825032230
         H            3.284810594200    -2.447482488690    -0.964054843714     1.007825032230
         H            4.549902594200     1.098917511310     1.120658156286     1.007825032230
         H            5.060211594200    -1.152499488690     0.197861156286     1.007825032230

  Basis Set: AUG-CC-PVTZ
    Blend: AUG-CC-PVTZ
  Basis Set: (AUG-CC-PVTZ AUX)
    Blend: AUG-CC-PVTZ-JKFIT
	 Reference Energy          =    -631.7199098479275108 [Eh]
	 Singles Energy            =      -0.0000000000000000 [Eh]
	 Same-Spin Energy          =      -0.6882783294768401 [Eh]
	 Opposite-Spin Energy      =      -2.2109001240587469 [Eh]
	 Correlation Energy        =      -2.8991784535355869 [Eh]
	 Total Energy              =    -634.6190883014630799 [Eh]

	 ================> DF-SCS-MP2 Energies <==================
	-----------------------------------------------------------
	 SCS Same-Spin Scale       =       0.3333333333333333 [-]
	 SCS Opposite-Spin Scale   =       1.2000000000000000 [-]
	 SCS Same-Spin Energy      =      -0.2294261098256133 [Eh]
	 SCS Opposite-Spin Energy  =      -2.6530801488704960 [Eh]
	 SCS Correlation Energy    =      -2.8825062586961092 [Eh]
	 SCS Total Energy          =    -634.6024161066236502 [Eh]
	-----------------------------------------------------------

  Dipole Moment: [D]
     X:    -0.9232      Y:    -3.0759      Z:     1.4500     Total:     3.5236

*** Psi4 exiting successfully. Buy a developer a beer!
