                               Psi4 1.3.2 release

  ==> Input File <==

--------------------------------------------------------------------------
#psi4
#
memory 32 gb

molecule  {
0 1
  O        0.1371160     2.1442200    -0.7498900
  N       -0.9079200     0.2138270    -0.0832910
  C       -2.1273223     0.7961623    -0.3428757
  C       -3.1715160    -0.2856370    -0.8447810
  C       -3.2543810    -1.4343410     0.1597440
  C       -1.8582660    -1.9851710     0.4427670
  C       -0.9333470    -0.8668740     0.9054230
  C       -2.7330240     1.6830710     0.7442420
  C        0.2088310     0.9821600    -0.3252730
  C        1.5466860     0.3366220    -0.1329200
  C        1.8387470    -0.9259720    -0.6670270
  C        2.5575830     1.0808050     0.4866160
  C        3.1278360    -1.4488340    -0.5554450
  C        3.8398480     0.5472150     0.6113220
  C        4.1275660    -0.7178550     0.0911790
  H       -2.0189590     1.4850890    -1.2525130
  H       -2.8205670    -0.6804150    -1.8065990
  H       -4.1624350     0.1514200    -1.0190010
  H       -3.9082830    -2.2246930    -0.2264870
  H       -3.7050990    -1.0869340     1.0980480
  H       -1.8940300    -2.7681710     1.2100160
  H       -1.4444710    -2.4355870    -0.4683360
  H       -1.2866520    -0.4768830     1.8722860
  H        0.0828400    -1.2295020     1.0584050
  H       -3.6731810     2.1637340     0.4547800
  H       -2.9192060     1.1010660     1.6506870
  H       -2.0023200     2.4636420     0.9693550
  H        1.0609540    -1.4829580    -1.1859370
  H        2.3266460     2.0767070     0.8563740
  H        3.3548360    -2.4238320    -0.9804540
  H        4.6199280     1.1225680     1.1042590
  H        5.1302370    -1.1288490     0.1814620
units angstrom
no_reorient  #important for SAPT in psi4, default
symmetry c1  #important for SAPT in psi4, default
}

set PROPERTIES_ORIGIN ["COM"]
properties('MP2/aug-cc-pvtz', properties = ['dipole'])
--------------------------------------------------------------------------

    Molecular point group: c1
  Charge       = 0
  Multiplicity = 1
  Basis Set: AUG-CC-PVTZ
    Blend: AUG-CC-PVTZ
  Basis Set: (AUG-CC-PVTZ AUX)
    Blend: AUG-CC-PVTZ-JKFIT

    Orbital Energies [Eh]
    ---------------------

    Doubly Occupied:

       1A    -20.518464     2A    -15.582608     3A    -11.352597
       4A    -11.267379     5A    -11.255376     6A    -11.252667
       7A    -11.251313     8A    -11.249082     9A    -11.247222
      10A    -11.246667    11A    -11.244657    12A    -11.229953
      13A    -11.223436    14A    -11.221611    15A    -11.208359
      16A     -1.375204    17A     -1.266569    18A     -1.162822
      19A     -1.082719    20A     -1.052639    21A     -1.029543
      22A     -1.024526    23A     -0.958932    24A     -0.898041
      25A     -0.872356    26A     -0.839249    27A     -0.831044
      28A     -0.793433    29A     -0.728657    30A     -0.719804
      31A     -0.683537    32A     -0.656462    33A     -0.638210
      34A     -0.629994    35A     -0.625550    36A     -0.612004
      37A     -0.598401    38A     -0.595460    39A     -0.593592
      40A     -0.576747    41A     -0.562239    42A     -0.541683
      43A     -0.531140    44A     -0.518658    45A     -0.508160
      46A     -0.504252    47A     -0.493981    48A     -0.492863
      49A     -0.466953    50A     -0.464563    51A     -0.431768
      52A     -0.425327    53A     -0.366490    54A     -0.346121
      55A     -0.343548

  @DF-RHF Final Energy:  -631.71700591153706

   => Energetics <=

    Nuclear Repulsion Energy =           1000.4788212338806943
    One-Electron Energy =               -2844.0023931056839501
    Two-Electron Energy =                1211.8065659602659707
    Total Energy =                       -631.7170059115371714
  Basis Set: (AUG-CC-PVTZ AUX)
    Blend: AUG-CC-PVTZ-RI
    Molecular point group: c1

    Geometry (in Angstrom), charge = 0, multiplicity = 1:

       Center              X                  Y                   Z               Mass
    ------------   -----------------  -----------------  -----------------  -----------------
         O            0.067472001246     2.119549123553    -0.736395061971    15.994914619570
         N           -0.977563998754     0.189156123553    -0.069796061971    14.003074004430
         C           -2.196966298754     0.771491423553    -0.329380761971    12.000000000000
         C           -3.241159998754    -0.310307876447    -0.831286061971    12.000000000000
         C           -3.324024998754    -1.459011876447     0.173238938029    12.000000000000
         C           -1.927909998754    -2.009841876447     0.456261938029    12.000000000000
         C           -1.002990998754    -0.891544876447     0.918917938029    12.000000000000
         C           -2.802667998754     1.658400123553     0.757736938029    12.000000000000
         C            0.139187001246     0.957489123553    -0.311778061971    12.000000000000
         C            1.477042001246     0.311951123553    -0.119425061971    12.000000000000
         C            1.769103001246    -0.950642876447    -0.653532061971    12.000000000000
         C            2.487939001246     1.056134123553     0.500110938029    12.000000000000
         C            3.058192001246    -1.473504876447    -0.541950061971    12.000000000000
         C            3.770204001246     0.522544123553     0.624816938029    12.000000000000
         C            4.057922001246    -0.742525876447     0.104673938029    12.000000000000
         H           -2.088602998754     1.460418123553    -1.239018061971     1.007825032230
         H           -2.890210998754    -0.705085876447    -1.793104061971     1.007825032230
         H           -4.232078998754     0.126749123553    -1.005506061971     1.007825032230
         H           -3.977926998754    -2.249363876447    -0.212992061971     1.007825032230
         H           -3.774742998754    -1.111604876447     1.111542938029     1.007825032230
         H           -1.963673998754    -2.792841876447     1.223510938029     1.007825032230
         H           -1.514114998754    -2.460257876447    -0.454841061971     1.007825032230
         H           -1.356295998754    -0.501553876447     1.885780938029     1.007825032230
         H            0.013196001246    -1.254172876447     1.071899938029     1.007825032230
         H           -3.742824998754     2.139063123553     0.468274938029     1.007825032230
         H           -2.988849998754     1.076395123553     1.664181938029     1.007825032230
         H           -2.071963998754     2.438971123553     0.982849938029     1.007825032230
         H            0.991310001246    -1.507628876447    -1.172442061971     1.007825032230
         H            2.257002001246     2.052036123553     0.869868938029     1.007825032230
         H            3.285192001246    -2.448502876447    -0.966959061971     1.007825032230
         H            4.550284001246     1.097897123553     1.117753938029     1.007825032230
         H            5.060593001246    -1.153519876447     0.194956938029     1.007825032230

  Basis Set: AUG-CC-PVTZ
    Blend: AUG-CC-PVTZ
  Basis Set: (AUG-CC-PVTZ AUX)
    Blend: AUG-CC-PVTZ-JKFIT
	 Reference Energy          =    -631.7170059115370577 [Eh]
	 Singles Energy            =      -0.0000000000000000 [Eh]
	 Same-Spin Energy          =      -0.6895237394216704 [Eh]
	 Opposite-Spin Energy      =      -2.2126664652967518 [Eh]
	 Correlation Energy        =      -2.9021902047184223 [Eh]
	 Total Energy              =    -634.6191961162554662 [Eh]

	 ================> DF-SCS-MP2 Energies <==================
	-----------------------------------------------------------
	 SCS Same-Spin Scale       =       0.3333333333333333 [-]
	 SCS Opposite-Spin Scale   =       1.2000000000000000 [-]
	 SCS Same-Spin Energy      =      -0.2298412464738901 [Eh]
	 SCS Opposite-Spin Energy  =      -2.6551997583561020 [Eh]
	 SCS Correlation Energy    =      -2.8850410048299922 [Eh]
	 SCS Total Energy          =    -634.6020469163670441 [Eh]
	-----------------------------------------------------------

  Dipole Moment: [D]
     X:    -0.5135      Y:    -3.1418      Z:     1.5015     Total:     3.5198

*** Psi4 exiting successfully. Buy a developer a beer!
