                               Psi4 1.3.2 release

  ==> Input File <==

--------------------------------------------------------------------------
#psi4
#
memory 32 gb

molecule  {
0 1
  O        0.1371160     2.1442200    -0.7498900
  N       -0.8736232     0.3080159    -0.0604841
  C       -2.2101840     0.8219870    -0.4048790
  C       -3.1715160    -0.2856370    -0.8447810
  C       -3.2543810    -1.4343410     0.1597440
  C       -1.8582660    -1.9851710     0.4427670
  C       -0.9333470    -0.8668740     0.9054230
  C       -2.7330240     1.6830710     0.7442420
  C        0.2088310     0.9821600    -0.3252730
  C        1.5466860     0.3366220    -0.1329200
  C        1.8387470    -0.9259720    -0.6670270
  C        2.5575830     1.0808050     0.4866160
  C        3.1278360    -1.4488340    -0.5554450
  C        3.8398480     0.5472150     0.6113220
  C        4.1275660    -0.7178550     0.0911790
  H       -2.0189590     1.4850890    -1.2525130
  H       -2.8205670    -0.6804150    -1.8065990
  H       -4.1624350     0.1514200    -1.0190010
  H       -3.9082830    -2.2246930    -0.2264870
  H       -3.7050990    -1.0869340     1.0980480
  H       -1.8940300    -2.7681710     1.2100160
  H       -1.4444710    -2.4355870    -0.4683360
  H       -1.2866520    -0.4768830     1.8722860
  H        0.0828400    -1.2295020     1.0584050
  H       -3.6731810     2.1637340     0.4547800
  H       -2.9192060     1.1010660     1.6506870
  H       -2.0023200     2.4636420     0.9693550
  H        1.0609540    -1.4829580    -1.1859370
  H        2.3266460     2.0767070     0.8563740
  H        3.3548360    -2.4238320    -0.9804540
  H        4.6199280     1.1225680     1.1042590
  H        5.1302370    -1.1288490     0.1814620
units angstrom
no_reorient  #important for SAPT in psi4, default
symmetry c1  #important for SAPT in psi4, default
}

set PROPERTIES_ORIGIN ["COM"]
properties('MP2/aug-cc-pvtz', properties = ['dipole'])
--------------------------------------------------------------------------

    Molecular point group: c1
  Charge       = 0
  Multiplicity = 1
  Basis Set: AUG-CC-PVTZ
    Blend: AUG-CC-PVTZ
  Basis Set: (AUG-CC-PVTZ AUX)
    Blend: AUG-CC-PVTZ-JKFIT

    Orbital Energies [Eh]
    ---------------------

    Doubly Occupied:

       1A    -20.496007     2A    -15.581707     3A    -11.335203
       4A    -11.272987     5A    -11.260912     6A    -11.248738
       7A    -11.247548     8A    -11.245741     9A    -11.243831
      10A    -11.243094    11A    -11.241434    12A    -11.235780
      13A    -11.230046    14A    -11.228326    15A    -11.211277
      16A     -1.367370    17A     -1.244048    18A     -1.158985
      19A     -1.093992    20A     -1.054039    21A     -1.028273
      22A     -1.021377    23A     -0.966391    24A     -0.902076
      25A     -0.867877    26A     -0.836176    27A     -0.832781
      28A     -0.794169    29A     -0.728400    30A     -0.715580
      31A     -0.678946    32A     -0.654632    33A     -0.641508
      34A     -0.628665    35A     -0.624559    36A     -0.608931
      37A     -0.600028    38A     -0.594445    39A     -0.590810
      40A     -0.570170    41A     -0.567611    42A     -0.543544
      43A     -0.524996    44A     -0.519350    45A     -0.505268
      46A     -0.501734    47A     -0.496482    48A     -0.491710
      49A     -0.472167    50A     -0.465640    51A     -0.451994
      52A     -0.413738    53A     -0.368116    54A     -0.343112
      55A     -0.339579

  @DF-RHF Final Energy:  -631.72359205512657

   => Energetics <=

    Nuclear Repulsion Energy =            999.0305079171878333
    One-Electron Energy =               -2841.2444021260580485
    Two-Electron Energy =                1210.4903021537436416
    Total Energy =                       -631.7235920551265735
  Basis Set: (AUG-CC-PVTZ AUX)
    Blend: AUG-CC-PVTZ-RI
    Molecular point group: c1

    Geometry (in Angstrom), charge = 0, multiplicity = 1:

       Center              X                  Y                   Z               Mass
    ------------   -----------------  -----------------  -----------------  -----------------
         O            0.070002780574     2.111530502941    -0.734304426559    15.994914619570
         N           -0.940736419426     0.275326402941    -0.044898526559    14.003074004430
         C           -2.277297219426     0.789297502941    -0.389293426559    12.000000000000
         C           -3.238629219426    -0.318326497059    -0.829195426559    12.000000000000
         C           -3.321494219426    -1.467030497059     0.175329573441    12.000000000000
         C           -1.925379219426    -2.017860497059     0.458352573441    12.000000000000
         C           -1.000460219426    -0.899563497059     0.921008573441    12.000000000000
         C           -2.800137219426     1.650381502941     0.759827573441    12.000000000000
         C            0.141717780574     0.949470502941    -0.309687426559    12.000000000000
         C            1.479572780574     0.303932502941    -0.117334426559    12.000000000000
         C            1.771633780574    -0.958661497059    -0.651441426559    12.000000000000
         C            2.490469780574     1.048115502941     0.502201573441    12.000000000000
         C            3.060722780574    -1.481523497059    -0.539859426559    12.000000000000
         C            3.772734780574     0.514525502941     0.626907573441    12.000000000000
         C            4.060452780574    -0.750544497059     0.106764573441    12.000000000000
         H           -2.086072219426     1.452399502941    -1.236927426559     1.007825032230
         H           -2.887680219426    -0.713104497059    -1.791013426559     1.007825032230
         H           -4.229548219426     0.118730502941    -1.003415426559     1.007825032230
         H           -3.975396219426    -2.257382497059    -0.210901426559     1.007825032230
         H           -3.772212219426    -1.119623497059     1.113633573441     1.007825032230
         H           -1.961143219426    -2.800860497059     1.225601573441     1.007825032230
         H           -1.511584219426    -2.468276497059    -0.452750426559     1.007825032230
         H           -1.353765219426    -0.509572497059     1.887871573441     1.007825032230
         H            0.015726780574    -1.262191497059     1.073990573441     1.007825032230
         H           -3.740294219426     2.131044502941     0.470365573441     1.007825032230
         H           -2.986319219426     1.068376502941     1.666272573441     1.007825032230
         H           -2.069433219426     2.430952502941     0.984940573441     1.007825032230
         H            0.993840780574    -1.515647497059    -1.170351426559     1.007825032230
         H            2.259532780574     2.044017502941     0.871959573441     1.007825032230
         H            3.287722780574    -2.456521497059    -0.964868426559     1.007825032230
         H            4.552814780574     1.089878502941     1.119844573441     1.007825032230
         H            5.063123780574    -1.161538497059     0.197047573441     1.007825032230

  Basis Set: AUG-CC-PVTZ
    Blend: AUG-CC-PVTZ
  Basis Set: (AUG-CC-PVTZ AUX)
    Blend: AUG-CC-PVTZ-JKFIT
	 Reference Energy          =    -631.7235920551265735 [Eh]
	 Singles Energy            =      -0.0000000000000000 [Eh]
	 Same-Spin Energy          =      -0.6880547874800131 [Eh]
	 Opposite-Spin Energy      =      -2.2104376177849492 [Eh]
	 Correlation Energy        =      -2.8984924052649621 [Eh]
	 Total Energy              =    -634.6220844603915339 [Eh]

	 ================> DF-SCS-MP2 Energies <==================
	-----------------------------------------------------------
	 SCS Same-Spin Scale       =       0.3333333333333333 [-]
	 SCS Opposite-Spin Scale   =       1.2000000000000000 [-]
	 SCS Same-Spin Energy      =      -0.2293515958266710 [Eh]
	 SCS Opposite-Spin Energy  =      -2.6525251413419388 [Eh]
	 SCS Correlation Energy    =      -2.8818767371686098 [Eh]
	 SCS Total Energy          =    -634.6054687922951416 [Eh]
	-----------------------------------------------------------

  Dipole Moment: [D]
     X:    -1.2560      Y:    -3.5720      Z:     1.5649     Total:     4.0970

*** Psi4 exiting successfully. Buy a developer a beer!
