                               Psi4 1.3.2 release

  ==> Input File <==

--------------------------------------------------------------------------
#psi4
#
memory 32 gb

molecule  {
0 1
  O        0.1371160     2.1442200    -0.7498900
  N       -0.9079200     0.2138270    -0.0832910
  C       -2.1684092     0.8085419    -0.3745589
  C       -3.1715160    -0.2856370    -0.8447810
  C       -3.2543810    -1.4343410     0.1597440
  C       -1.8582660    -1.9851710     0.4427670
  C       -0.9333470    -0.8668740     0.9054230
  C       -2.7330240     1.6830710     0.7442420
  C        0.2088310     0.9821600    -0.3252730
  C        1.5466860     0.3366220    -0.1329200
  C        1.8387470    -0.9259720    -0.6670270
  C        2.5575830     1.0808050     0.4866160
  C        3.1278360    -1.4488340    -0.5554450
  C        3.8398480     0.5472150     0.6113220
  C        4.1275660    -0.7178550     0.0911790
  H       -2.0189590     1.4850890    -1.2525130
  H       -2.8205670    -0.6804150    -1.8065990
  H       -4.1624350     0.1514200    -1.0190010
  H       -3.9082830    -2.2246930    -0.2264870
  H       -3.7050990    -1.0869340     1.0980480
  H       -1.8940300    -2.7681710     1.2100160
  H       -1.4444710    -2.4355870    -0.4683360
  H       -1.2866520    -0.4768830     1.8722860
  H        0.0828400    -1.2295020     1.0584050
  H       -3.6731810     2.1637340     0.4547800
  H       -2.9192060     1.1010660     1.6506870
  H       -2.0023200     2.4636420     0.9693550
  H        1.0609540    -1.4829580    -1.1859370
  H        2.3266460     2.0767070     0.8563740
  H        3.3548360    -2.4238320    -0.9804540
  H        4.6199280     1.1225680     1.1042590
  H        5.1302370    -1.1288490     0.1814620
units angstrom
no_reorient  #important for SAPT in psi4, default
symmetry c1  #important for SAPT in psi4, default
}

set PROPERTIES_ORIGIN ["COM"]
properties('MP2/aug-cc-pvtz', properties = ['dipole'])
--------------------------------------------------------------------------

    Molecular point group: c1
  Charge       = 0
  Multiplicity = 1
  Basis Set: AUG-CC-PVTZ
    Blend: AUG-CC-PVTZ
  Basis Set: (AUG-CC-PVTZ AUX)
    Blend: AUG-CC-PVTZ-JKFIT

    Orbital Energies [Eh]
    ---------------------

    Doubly Occupied:

       1A    -20.516402     2A    -15.581146     3A    -11.350863
       4A    -11.266247     5A    -11.256124     6A    -11.251667
       7A    -11.250377     8A    -11.248311     9A    -11.246337
      10A    -11.245909    11A    -11.243901    12A    -11.229744
      13A    -11.224810    14A    -11.222244    15A    -11.209387
      16A     -1.371682    17A     -1.256007    18A     -1.161834
      19A     -1.083517    20A     -1.052351    21A     -1.030389
      22A     -1.023817    23A     -0.958935    24A     -0.897186
      25A     -0.868974    26A     -0.838247    27A     -0.832199
      28A     -0.790224    29A     -0.728410    30A     -0.719182
      31A     -0.682673    32A     -0.655567    33A     -0.638215
      34A     -0.628591    35A     -0.625943    36A     -0.609001
      37A     -0.598616    38A     -0.594207    39A     -0.590232
      40A     -0.577299    41A     -0.563461    42A     -0.542241
      43A     -0.528465    44A     -0.518373    45A     -0.508401
      46A     -0.503547    47A     -0.493771    48A     -0.493280
      49A     -0.466796    50A     -0.465068    51A     -0.442138
      52A     -0.423568    53A     -0.367895    54A     -0.345331
      55A     -0.342717

  @DF-RHF Final Energy:  -631.72622236903374

   => Energetics <=

    Nuclear Repulsion Energy =            999.5675499703794458
    One-Electron Energy =               -2842.2639011021828992
    Two-Electron Energy =                1210.9701287627697184
    Total Energy =                       -631.7262223690338487
  Basis Set: (AUG-CC-PVTZ AUX)
    Blend: AUG-CC-PVTZ-RI
    Molecular point group: c1

    Geometry (in Angstrom), charge = 0, multiplicity = 1:

       Center              X                  Y                   Z               Mass
    ------------   -----------------  -----------------  -----------------  -----------------
         O            0.069899217011     2.118817796529    -0.734523371419    15.994914619570
         N           -0.975136782989     0.188424796529    -0.067924371419    14.003074004430
         C           -2.235625982989     0.783139696529    -0.359192271419    12.000000000000
         C           -3.238732782989    -0.311039203471    -0.829414371419    12.000000000000
         C           -3.321597782989    -1.459743203471     0.175110628581    12.000000000000
         C           -1.925482782989    -2.010573203471     0.458133628581    12.000000000000
         C           -1.000563782989    -0.892276203471     0.920789628581    12.000000000000
         C           -2.800240782989     1.657668796529     0.759608628581    12.000000000000
         C            0.141614217011     0.956757796529    -0.309906371419    12.000000000000
         C            1.479469217011     0.311219796529    -0.117553371419    12.000000000000
         C            1.771530217011    -0.951374203471    -0.651660371419    12.000000000000
         C            2.490366217011     1.055402796529     0.501982628581    12.000000000000
         C            3.060619217011    -1.474236203471    -0.540078371419    12.000000000000
         C            3.772631217011     0.521812796529     0.626688628581    12.000000000000
         C            4.060349217011    -0.743257203471     0.106545628581    12.000000000000
         H           -2.086175782989     1.459686796529    -1.237146371419     1.007825032230
         H           -2.887783782989    -0.705817203471    -1.791232371419     1.007825032230
         H           -4.229651782989     0.126017796529    -1.003634371419     1.007825032230
         H           -3.975499782989    -2.250095203471    -0.211120371419     1.007825032230
         H           -3.772315782989    -1.112336203471     1.113414628581     1.007825032230
         H           -1.961246782989    -2.793573203471     1.225382628581     1.007825032230
         H           -1.511687782989    -2.460989203471    -0.452969371419     1.007825032230
         H           -1.353868782989    -0.502285203471     1.887652628581     1.007825032230
         H            0.015623217011    -1.254904203471     1.073771628581     1.007825032230
         H           -3.740397782989     2.138331796529     0.470146628581     1.007825032230
         H           -2.986422782989     1.075663796529     1.666053628581     1.007825032230
         H           -2.069536782989     2.438239796529     0.984721628581     1.007825032230
         H            0.993737217011    -1.508360203471    -1.170570371419     1.007825032230
         H            2.259429217011     2.051304796529     0.871740628581     1.007825032230
         H            3.287619217011    -2.449234203471    -0.965087371419     1.007825032230
         H            4.552711217011     1.097165796529     1.119625628581     1.007825032230
         H            5.063020217011    -1.154251203471     0.196828628581     1.007825032230

  Basis Set: AUG-CC-PVTZ
    Blend: AUG-CC-PVTZ
  Basis Set: (AUG-CC-PVTZ AUX)
    Blend: AUG-CC-PVTZ-JKFIT
	 Reference Energy          =    -631.7262223690337350 [Eh]
	 Singles Energy            =      -0.0000000000000000 [Eh]
	 Same-Spin Energy          =      -0.6889359335132068 [Eh]
	 Opposite-Spin Energy      =      -2.2118873541253627 [Eh]
	 Correlation Energy        =      -2.9008232876385698 [Eh]
	 Total Energy              =    -634.6270456566722942 [Eh]

	 ================> DF-SCS-MP2 Energies <==================
	-----------------------------------------------------------
	 SCS Same-Spin Scale       =       0.3333333333333333 [-]
	 SCS Opposite-Spin Scale   =       1.2000000000000000 [-]
	 SCS Same-Spin Energy      =      -0.2296453111710689 [Eh]
	 SCS Opposite-Spin Energy  =      -2.6542648249504350 [Eh]
	 SCS Correlation Energy    =      -2.8839101361215040 [Eh]
	 SCS Total Energy          =    -634.6101325051552067 [Eh]
	-----------------------------------------------------------

  Dipole Moment: [D]
     X:    -0.6722      Y:    -3.1356      Z:     1.4812     Total:     3.5324

*** Psi4 exiting successfully. Buy a developer a beer!
