                               Psi4 1.3.2 release

  ==> Input File <==

--------------------------------------------------------------------------
#psi4
#
memory 32 gb

molecule  {
0 1
  O        0.1371160     2.1442200    -0.7498900
  N       -0.8589074     0.3560785    -0.0497032
  C       -2.2101840     0.8219870    -0.4048790
  C       -3.1715160    -0.2856370    -0.8447810
  C       -3.2543810    -1.4343410     0.1597440
  C       -1.8582660    -1.9851710     0.4427670
  C       -0.9333470    -0.8668740     0.9054230
  C       -2.7330240     1.6830710     0.7442420
  C        0.2088310     0.9821600    -0.3252730
  C        1.5466860     0.3366220    -0.1329200
  C        1.8387470    -0.9259720    -0.6670270
  C        2.5575830     1.0808050     0.4866160
  C        3.1278360    -1.4488340    -0.5554450
  C        3.8398480     0.5472150     0.6113220
  C        4.1275660    -0.7178550     0.0911790
  H       -2.0189590     1.4850890    -1.2525130
  H       -2.8205670    -0.6804150    -1.8065990
  H       -4.1624350     0.1514200    -1.0190010
  H       -3.9082830    -2.2246930    -0.2264870
  H       -3.7050990    -1.0869340     1.0980480
  H       -1.8940300    -2.7681710     1.2100160
  H       -1.4444710    -2.4355870    -0.4683360
  H       -1.2866520    -0.4768830     1.8722860
  H        0.0828400    -1.2295020     1.0584050
  H       -3.6731810     2.1637340     0.4547800
  H       -2.9192060     1.1010660     1.6506870
  H       -2.0023200     2.4636420     0.9693550
  H        1.0609540    -1.4829580    -1.1859370
  H        2.3266460     2.0767070     0.8563740
  H        3.3548360    -2.4238320    -0.9804540
  H        4.6199280     1.1225680     1.1042590
  H        5.1302370    -1.1288490     0.1814620
units angstrom
no_reorient  #important for SAPT in psi4, default
symmetry c1  #important for SAPT in psi4, default
}

set PROPERTIES_ORIGIN ["COM"]
properties('MP2/aug-cc-pvtz', properties = ['dipole'])
--------------------------------------------------------------------------

    Molecular point group: c1
  Charge       = 0
  Multiplicity = 1
  Basis Set: AUG-CC-PVTZ
    Blend: AUG-CC-PVTZ
  Basis Set: (AUG-CC-PVTZ AUX)
    Blend: AUG-CC-PVTZ-JKFIT

    Orbital Energies [Eh]
    ---------------------

    Doubly Occupied:

       1A    -20.486970     2A    -15.582640     3A    -11.328004
       4A    -11.276535     5A    -11.262768     6A    -11.248003
       7A    -11.246731     8A    -11.244967     9A    -11.243251
      10A    -11.242104    11A    -11.240661    12A    -11.238723
      13A    -11.231899    14A    -11.230970    15A    -11.211597
      16A     -1.368823    17A     -1.242253    18A     -1.158192
      19A     -1.098353    20A     -1.054947    21A     -1.027246
      22A     -1.020655    23A     -0.970041    24A     -0.903811
      25A     -0.868901    26A     -0.835619    27A     -0.832321
      28A     -0.797886    29A     -0.728490    30A     -0.713936
      31A     -0.677899    32A     -0.654732    33A     -0.643404
      34A     -0.628928    35A     -0.623981    36A     -0.609932
      37A     -0.601020    38A     -0.596880    39A     -0.590845
      40A     -0.569290    41A     -0.566300    42A     -0.543587
      43A     -0.524506    44A     -0.519846    45A     -0.504550
      46A     -0.500985    47A     -0.497789    48A     -0.491303
      49A     -0.473889    50A     -0.466635    51A     -0.450331
      52A     -0.409365    53A     -0.367539    54A     -0.342491
      55A     -0.338505

  @DF-RHF Final Energy:  -631.71352470687657

   => Energetics <=

    Nuclear Repulsion Energy =            999.2065559135091917
    One-Electron Energy =               -2841.5765060180747241
    Two-Electron Energy =                1210.6564253976889631
    Total Energy =                       -631.7135247068765693
  Basis Set: (AUG-CC-PVTZ AUX)
    Blend: AUG-CC-PVTZ-RI
    Molecular point group: c1

    Geometry (in Angstrom), charge = 0, multiplicity = 1:

       Center              X                  Y                   Z               Mass
    ------------   -----------------  -----------------  -----------------  -----------------
         O            0.068988329692     2.108217251406    -0.735047620508    15.994914619570
         N           -0.927035070308     0.320075751406    -0.034860820508    14.003074004430
         C           -2.278311670308     0.785984251406    -0.390036620508    12.000000000000
         C           -3.239643670308    -0.321639748594    -0.829938620508    12.000000000000
         C           -3.322508670308    -1.470343748594     0.174586379492    12.000000000000
         C           -1.926393670308    -2.021173748594     0.457609379492    12.000000000000
         C           -1.001474670308    -0.902876748594     0.920265379492    12.000000000000
         C           -2.801151670308     1.647068251406     0.759084379492    12.000000000000
         C            0.140703329692     0.946157251406    -0.310430620508    12.000000000000
         C            1.478558329692     0.300619251406    -0.118077620508    12.000000000000
         C            1.770619329692    -0.961974748594    -0.652184620508    12.000000000000
         C            2.489455329692     1.044802251406     0.501458379492    12.000000000000
         C            3.059708329692    -1.484836748594    -0.540602620508    12.000000000000
         C            3.771720329692     0.511212251406     0.626164379492    12.000000000000
         C            4.059438329692    -0.753857748594     0.106021379492    12.000000000000
         H           -2.087086670308     1.449086251406    -1.237670620508     1.007825032230
         H           -2.888694670308    -0.716417748594    -1.791756620508     1.007825032230
         H           -4.230562670308     0.115417251406    -1.004158620508     1.007825032230
         H           -3.976410670308    -2.260695748594    -0.211644620508     1.007825032230
         H           -3.773226670308    -1.122936748594     1.112890379492     1.007825032230
         H           -1.962157670308    -2.804173748594     1.224858379492     1.007825032230
         H           -1.512598670308    -2.471589748594    -0.453493620508     1.007825032230
         H           -1.354779670308    -0.512885748594     1.887128379492     1.007825032230
         H            0.014712329692    -1.265504748594     1.073247379492     1.007825032230
         H           -3.741308670308     2.127731251406     0.469622379492     1.007825032230
         H           -2.987333670308     1.065063251406     1.665529379492     1.007825032230
         H           -2.070447670308     2.427639251406     0.984197379492     1.007825032230
         H            0.992826329692    -1.518960748594    -1.171094620508     1.007825032230
         H            2.258518329692     2.040704251406     0.871216379492     1.007825032230
         H            3.286708329692    -2.459834748594    -0.965611620508     1.007825032230
         H            4.551800329692     1.086565251406     1.119101379492     1.007825032230
         H            5.062109329692    -1.164851748594     0.196304379492     1.007825032230

  Basis Set: AUG-CC-PVTZ
    Blend: AUG-CC-PVTZ
  Basis Set: (AUG-CC-PVTZ AUX)
    Blend: AUG-CC-PVTZ-JKFIT
	 Reference Energy          =    -631.7135247068765693 [Eh]
	 Singles Energy            =      -0.0000000000000000 [Eh]
	 Same-Spin Energy          =      -0.6879567344349096 [Eh]
	 Opposite-Spin Energy      =      -2.2103039110984577 [Eh]
	 Correlation Energy        =      -2.8982606455333673 [Eh]
	 Total Energy              =    -634.6117853524099246 [Eh]

	 ================> DF-SCS-MP2 Energies <==================
	-----------------------------------------------------------
	 SCS Same-Spin Scale       =       0.3333333333333333 [-]
	 SCS Opposite-Spin Scale   =       1.2000000000000000 [-]
	 SCS Same-Spin Energy      =      -0.2293189114783032 [Eh]
	 SCS Opposite-Spin Energy  =      -2.6523646933181491 [Eh]
	 SCS Correlation Energy    =      -2.8816836047964522 [Eh]
	 SCS Total Energy          =    -634.5952083116729909 [Eh]
	-----------------------------------------------------------

  Dipole Moment: [D]
     X:    -1.4408      Y:    -3.7769      Z:     1.6092     Total:     4.3509

*** Psi4 exiting successfully. Buy a developer a beer!
