                               Psi4 1.3.2 release

  ==> Input File <==

--------------------------------------------------------------------------
#psi4
#
memory 32 gb

molecule  {
0 1
  O        0.1371160     2.1442200    -0.7498900
  N       -0.9079200     0.2138270    -0.0832910
  C       -2.2101840     0.8219870    -0.4048790
  C       -3.1715160    -0.2856370    -0.8447810
  C       -3.2543810    -1.4343410     0.1597440
  C       -1.8582660    -1.9851710     0.4427670
  C       -0.9333470    -0.8668740     0.9054230
  C       -2.7330240     1.6830710     0.7442420
  C        0.2441276     1.0633960    -0.2697273
  C        1.5466860     0.3366220    -0.1329200
  C        1.8387470    -0.9259720    -0.6670270
  C        2.5575830     1.0808050     0.4866160
  C        3.1278360    -1.4488340    -0.5554450
  C        3.8398480     0.5472150     0.6113220
  C        4.1275660    -0.7178550     0.0911790
  H       -2.0189590     1.4850890    -1.2525130
  H       -2.8205670    -0.6804150    -1.8065990
  H       -4.1624350     0.1514200    -1.0190010
  H       -3.9082830    -2.2246930    -0.2264870
  H       -3.7050990    -1.0869340     1.0980480
  H       -1.8940300    -2.7681710     1.2100160
  H       -1.4444710    -2.4355870    -0.4683360
  H       -1.2866520    -0.4768830     1.8722860
  H        0.0828400    -1.2295020     1.0584050
  H       -3.6731810     2.1637340     0.4547800
  H       -2.9192060     1.1010660     1.6506870
  H       -2.0023200     2.4636420     0.9693550
  H        1.0609540    -1.4829580    -1.1859370
  H        2.3266460     2.0767070     0.8563740
  H        3.3548360    -2.4238320    -0.9804540
  H        4.6199280     1.1225680     1.1042590
  H        5.1302370    -1.1288490     0.1814620
units angstrom
no_reorient  #important for SAPT in psi4, default
symmetry c1  #important for SAPT in psi4, default
}

set PROPERTIES_ORIGIN ["COM"]
properties('MP2/aug-cc-pvtz', properties = ['dipole'])
--------------------------------------------------------------------------

    Molecular point group: c1
  Charge       = 0
  Multiplicity = 1
  Basis Set: AUG-CC-PVTZ
    Blend: AUG-CC-PVTZ
  Basis Set: (AUG-CC-PVTZ AUX)
    Blend: AUG-CC-PVTZ-JKFIT

    Orbital Energies [Eh]
    ---------------------

    Doubly Occupied:

       1A    -20.530279     2A    -15.568208     3A    -11.351059
       4A    -11.257983     5A    -11.252751     6A    -11.252082
       7A    -11.250647     8A    -11.248363     9A    -11.246396
      10A    -11.245658    11A    -11.243639    12A    -11.225374
      13A    -11.222828    14A    -11.219563    15A    -11.208363
      16A     -1.405477    17A     -1.234147    18A     -1.162004
      19A     -1.076444    20A     -1.048242    21A     -1.031453
      22A     -1.023656    23A     -0.951735    24A     -0.890641
      25A     -0.861960    26A     -0.838666    27A     -0.829774
      28A     -0.780400    29A     -0.727602    30A     -0.713938
      31A     -0.685405    32A     -0.656908    33A     -0.638186
      34A     -0.631037    35A     -0.625301    36A     -0.603709
      37A     -0.600920    38A     -0.594423    39A     -0.586693
      40A     -0.575544    41A     -0.561644    42A     -0.548108
      43A     -0.527104    44A     -0.518139    45A     -0.510660
      46A     -0.503636    47A     -0.498785    48A     -0.489860
      49A     -0.468267    50A     -0.460793    51A     -0.447524
      52A     -0.422058    53A     -0.363219    54A     -0.345374
      55A     -0.343447

  @DF-RHF Final Energy:  -631.72254714794701

   => Energetics <=

    Nuclear Repulsion Energy =            998.2011239257191164
    One-Electron Energy =               -2839.6351982831852183
    Two-Electron Energy =                1209.7115272095193177
    Total Energy =                       -631.7225471479468979
  Basis Set: (AUG-CC-PVTZ AUX)
    Blend: AUG-CC-PVTZ-RI
    Molecular point group: c1

    Geometry (in Angstrom), charge = 0, multiplicity = 1:

       Center              X                  Y                   Z               Mass
    ------------   -----------------  -----------------  -----------------  -----------------
         O            0.070281917803     2.113224494076    -0.736013578128    15.994914619570
         N           -0.974754082197     0.182831494076    -0.069414578128    14.003074004430
         C           -2.277018082197     0.790991494076    -0.391002578128    12.000000000000
         C           -3.238350082197    -0.316632505924    -0.830904578128    12.000000000000
         C           -3.321215082197    -1.465336505924     0.173620421872    12.000000000000
         C           -1.925100082197    -2.016166505924     0.456643421872    12.000000000000
         C           -1.000181082197    -0.897869505924     0.919299421872    12.000000000000
         C           -2.799858082197     1.652075494076     0.758118421872    12.000000000000
         C            0.177293517803     1.032400494076    -0.255850878128    12.000000000000
         C            1.479851917803     0.305626494076    -0.119043578128    12.000000000000
         C            1.771912917803    -0.956967505924    -0.653150578128    12.000000000000
         C            2.490748917803     1.049809494076     0.500492421872    12.000000000000
         C            3.061001917803    -1.479829505924    -0.541568578128    12.000000000000
         C            3.773013917803     0.516219494076     0.625198421872    12.000000000000
         C            4.060731917803    -0.748850505924     0.105055421872    12.000000000000
         H           -2.085793082197     1.454093494076    -1.238636578128     1.007825032230
         H           -2.887401082197    -0.711410505924    -1.792722578128     1.007825032230
         H           -4.229269082197     0.120424494076    -1.005124578128     1.007825032230
         H           -3.975117082197    -2.255688505924    -0.212610578128     1.007825032230
         H           -3.771933082197    -1.117929505924     1.111924421872     1.007825032230
         H           -1.960864082197    -2.799166505924     1.223892421872     1.007825032230
         H           -1.511305082197    -2.466582505924    -0.454459578128     1.007825032230
         H           -1.353486082197    -0.507878505924     1.886162421872     1.007825032230
         H            0.016005917803    -1.260497505924     1.072281421872     1.007825032230
         H           -3.740015082197     2.132738494076     0.468656421872     1.007825032230
         H           -2.986040082197     1.070070494076     1.664563421872     1.007825032230
         H           -2.069154082197     2.432646494076     0.983231421872     1.007825032230
         H            0.994119917803    -1.513953505924    -1.172060578128     1.007825032230
         H            2.259811917803     2.045711494076     0.870250421872     1.007825032230
         H            3.288001917803    -2.454827505924    -0.966577578128     1.007825032230
         H            4.553093917803     1.091572494076     1.118135421872     1.007825032230
         H            5.063402917803    -1.159844505924     0.195338421872     1.007825032230

  Basis Set: AUG-CC-PVTZ
    Blend: AUG-CC-PVTZ
  Basis Set: (AUG-CC-PVTZ AUX)
    Blend: AUG-CC-PVTZ-JKFIT
	 Reference Energy          =    -631.7225471479470116 [Eh]
	 Singles Energy            =      -0.0000000000000000 [Eh]
	 Same-Spin Energy          =      -0.6880135107376404 [Eh]
	 Opposite-Spin Energy      =      -2.2106799478820176 [Eh]
	 Correlation Energy        =      -2.8986934586196580 [Eh]
	 Total Energy              =    -634.6212406065666300 [Eh]

	 ================> DF-SCS-MP2 Energies <==================
	-----------------------------------------------------------
	 SCS Same-Spin Scale       =       0.3333333333333333 [-]
	 SCS Opposite-Spin Scale   =       1.2000000000000000 [-]
	 SCS Same-Spin Energy      =      -0.2293378369125468 [Eh]
	 SCS Opposite-Spin Energy  =      -2.6528159374584210 [Eh]
	 SCS Correlation Energy    =      -2.8821537743709680 [Eh]
	 SCS Total Energy          =    -634.6047009223179884 [Eh]
	-----------------------------------------------------------

  Dipole Moment: [D]
     X:    -0.3952      Y:    -2.6887      Z:     1.3151     Total:     3.0191

*** Psi4 exiting successfully. Buy a developer a beer!
