                               Psi4 1.3.2 release

  ==> Input File <==

--------------------------------------------------------------------------
#psi4
#
memory 32 gb

molecule  {
0 1
  O        0.1371160     2.1442200    -0.7498900
  N       -0.9079200     0.2138270    -0.0832910
  C       -2.2101840     0.8219870    -0.4048790
  C       -3.1715160    -0.2856370    -0.8447810
  C       -3.2543810    -1.4343410     0.1597440
  C       -1.8582660    -1.9851710     0.4427670
  C       -0.9333470    -0.8668740     0.9054230
  C       -2.7330240     1.6830710     0.7442420
  C        0.2088310     0.9821600    -0.3252730
  C        1.4573680     0.3797194    -0.1457619
  C        1.8387470    -0.9259720    -0.6670270
  C        2.5575830     1.0808050     0.4866160
  C        3.1278360    -1.4488340    -0.5554450
  C        3.8398480     0.5472150     0.6113220
  C        4.1275660    -0.7178550     0.0911790
  H       -2.0189590     1.4850890    -1.2525130
  H       -2.8205670    -0.6804150    -1.8065990
  H       -4.1624350     0.1514200    -1.0190010
  H       -3.9082830    -2.2246930    -0.2264870
  H       -3.7050990    -1.0869340     1.0980480
  H       -1.8940300    -2.7681710     1.2100160
  H       -1.4444710    -2.4355870    -0.4683360
  H       -1.2866520    -0.4768830     1.8722860
  H        0.0828400    -1.2295020     1.0584050
  H       -3.6731810     2.1637340     0.4547800
  H       -2.9192060     1.1010660     1.6506870
  H       -2.0023200     2.4636420     0.9693550
  H        1.0609540    -1.4829580    -1.1859370
  H        2.3266460     2.0767070     0.8563740
  H        3.3548360    -2.4238320    -0.9804540
  H        4.6199280     1.1225680     1.1042590
  H        5.1302370    -1.1288490     0.1814620
units angstrom
no_reorient  #important for SAPT in psi4, default
symmetry c1  #important for SAPT in psi4, default
}

set PROPERTIES_ORIGIN ["COM"]
properties('MP2/aug-cc-pvtz', properties = ['dipole'])
--------------------------------------------------------------------------

    Molecular point group: c1
  Charge       = 0
  Multiplicity = 1
  Basis Set: AUG-CC-PVTZ
    Blend: AUG-CC-PVTZ
  Basis Set: (AUG-CC-PVTZ AUX)
    Blend: AUG-CC-PVTZ-JKFIT

    Orbital Energies [Eh]
    ---------------------

    Doubly Occupied:

       1A    -20.512266     2A    -15.578025     3A    -11.342633
       4A    -11.264392     5A    -11.259216     6A    -11.257003
       7A    -11.254536     8A    -11.253211     9A    -11.252117
      10A    -11.246608    11A    -11.244539    12A    -11.229080
      13A    -11.225819    14A    -11.222471    15A    -11.210266
      16A     -1.370853    17A     -1.246553    18A     -1.153961
      19A     -1.086647    20A     -1.053967    21A     -1.032867
      22A     -1.020191    23A     -0.959019    24A     -0.903632
      25A     -0.873309    26A     -0.837257    27A     -0.830417
      28A     -0.784745    29A     -0.731891    30A     -0.718300
      31A     -0.688698    32A     -0.657329    33A     -0.638665
      34A     -0.626765    35A     -0.625373    36A     -0.604023
      37A     -0.599663    38A     -0.589505    39A     -0.587306
      40A     -0.577152    41A     -0.564509    42A     -0.543157
      43A     -0.529537    44A     -0.519962    45A     -0.510025
      46A     -0.497147    47A     -0.492564    48A     -0.482523
      49A     -0.469496    50A     -0.461808    51A     -0.450896
      52A     -0.426262    53A     -0.367542    54A     -0.344635
      55A     -0.336138

  @DF-RHF Final Energy:  -631.71291230606141

   => Energetics <=

    Nuclear Repulsion Energy =            999.1086471850240969
    One-Electron Energy =               -2841.3501779163912033
    Two-Electron Energy =                1210.5286184253059218
    Total Energy =                       -631.7129123060612983
  Basis Set: (AUG-CC-PVTZ AUX)
    Blend: AUG-CC-PVTZ-RI
    Molecular point group: c1

    Geometry (in Angstrom), charge = 0, multiplicity = 1:

       Center              X                  Y                   Z               Mass
    ------------   -----------------  -----------------  -----------------  -----------------
         O            0.077643546977     2.115477538505    -0.731973568761    15.994914619570
         N           -0.967392453023     0.185084538505    -0.065374568761    14.003074004430
         C           -2.269656453023     0.793244538505    -0.386962568761    12.000000000000
         C           -3.230988453023    -0.314379461495    -0.826864568761    12.000000000000
         C           -3.313853453023    -1.463083461495     0.177660431239    12.000000000000
         C           -1.917738453023    -2.013913461495     0.460683431239    12.000000000000
         C           -0.992819453023    -0.895616461495     0.923339431239    12.000000000000
         C           -2.792496453023     1.654328538505     0.762158431239    12.000000000000
         C            0.149358546977     0.953417538505    -0.307356568761    12.000000000000
         C            1.397895546977     0.350976938505    -0.127845468761    12.000000000000
         C            1.779274546977    -0.954714461495    -0.649110568761    12.000000000000
         C            2.498110546977     1.052062538505     0.504532431239    12.000000000000
         C            3.068363546977    -1.477576461495    -0.537528568761    12.000000000000
         C            3.780375546977     0.518472538505     0.629238431239    12.000000000000
         C            4.068093546977    -0.746597461495     0.109095431239    12.000000000000
         H           -2.078431453023     1.456346538505    -1.234596568761     1.007825032230
         H           -2.880039453023    -0.709157461495    -1.788682568761     1.007825032230
         H           -4.221907453023     0.122677538505    -1.001084568761     1.007825032230
         H           -3.967755453023    -2.253435461495    -0.208570568761     1.007825032230
         H           -3.764571453023    -1.115676461495     1.115964431239     1.007825032230
         H           -1.953502453023    -2.796913461495     1.227932431239     1.007825032230
         H           -1.503943453023    -2.464329461495    -0.450419568761     1.007825032230
         H           -1.346124453023    -0.505625461495     1.890202431239     1.007825032230
         H            0.023367546977    -1.258244461495     1.076321431239     1.007825032230
         H           -3.732653453023     2.134991538505     0.472696431239     1.007825032230
         H           -2.978678453023     1.072323538505     1.668603431239     1.007825032230
         H           -2.061792453023     2.434899538505     0.987271431239     1.007825032230
         H            1.001481546977    -1.511700461495    -1.168020568761     1.007825032230
         H            2.267173546977     2.047964538505     0.874290431239     1.007825032230
         H            3.295363546977    -2.452574461495    -0.962537568761     1.007825032230
         H            4.560455546977     1.093825538505     1.122175431239     1.007825032230
         H            5.070764546977    -1.157591461495     0.199378431239     1.007825032230

  Basis Set: AUG-CC-PVTZ
    Blend: AUG-CC-PVTZ
  Basis Set: (AUG-CC-PVTZ AUX)
    Blend: AUG-CC-PVTZ-JKFIT
	 Reference Energy          =    -631.7129123060614120 [Eh]
	 Singles Energy            =      -0.0000000000000000 [Eh]
	 Same-Spin Energy          =      -0.6902020385781127 [Eh]
	 Opposite-Spin Energy      =      -2.2144690711725206 [Eh]
	 Correlation Energy        =      -2.9046711097506330 [Eh]
	 Total Energy              =    -634.6175834158120779 [Eh]

	 ================> DF-SCS-MP2 Energies <==================
	-----------------------------------------------------------
	 SCS Same-Spin Scale       =       0.3333333333333333 [-]
	 SCS Opposite-Spin Scale   =       1.2000000000000000 [-]
	 SCS Same-Spin Energy      =      -0.2300673461927042 [Eh]
	 SCS Opposite-Spin Energy  =      -2.6573628854070246 [Eh]
	 SCS Correlation Energy    =      -2.8874302315997289 [Eh]
	 SCS Total Energy          =    -634.6003425376611631 [Eh]
	-----------------------------------------------------------

  Dipole Moment: [D]
     X:    -0.7008      Y:    -3.1895      Z:     1.4775     Total:     3.5843

*** Psi4 exiting successfully. Buy a developer a beer!
