                               Psi4 1.3.2 release

  ==> Input File <==

--------------------------------------------------------------------------
#psi4
#
memory 32 gb

molecule  {
0 1
  O        0.1371160     2.1442200    -0.7498900
  N       -0.9079200     0.2138270    -0.0832910
  C       -2.2313135     0.8291040    -0.4195163
  C       -3.1715160    -0.2856370    -0.8447810
  C       -3.2543810    -1.4343410     0.1597440
  C       -1.8582660    -1.9851710     0.4427670
  C       -0.9333470    -0.8668740     0.9054230
  C       -2.7330240     1.6830710     0.7442420
  C        0.2088310     0.9821600    -0.3252730
  C        1.5466860     0.3366220    -0.1329200
  C        1.8387470    -0.9259720    -0.6670270
  C        2.5575830     1.0808050     0.4866160
  C        3.1278360    -1.4488340    -0.5554450
  C        3.8398480     0.5472150     0.6113220
  C        4.1275660    -0.7178550     0.0911790
  H       -2.0189590     1.4850890    -1.2525130
  H       -2.8205670    -0.6804150    -1.8065990
  H       -4.1624350     0.1514200    -1.0190010
  H       -3.9082830    -2.2246930    -0.2264870
  H       -3.7050990    -1.0869340     1.0980480
  H       -1.8940300    -2.7681710     1.2100160
  H       -1.4444710    -2.4355870    -0.4683360
  H       -1.2866520    -0.4768830     1.8722860
  H        0.0828400    -1.2295020     1.0584050
  H       -3.6731810     2.1637340     0.4547800
  H       -2.9192060     1.1010660     1.6506870
  H       -2.0023200     2.4636420     0.9693550
  H        1.0609540    -1.4829580    -1.1859370
  H        2.3266460     2.0767070     0.8563740
  H        3.3548360    -2.4238320    -0.9804540
  H        4.6199280     1.1225680     1.1042590
  H        5.1302370    -1.1288490     0.1814620
units angstrom
no_reorient  #important for SAPT in psi4, default
symmetry c1  #important for SAPT in psi4, default
}

set PROPERTIES_ORIGIN ["COM"]
properties('MP2/aug-cc-pvtz', properties = ['dipole'])
--------------------------------------------------------------------------

    Molecular point group: c1
  Charge       = 0
  Multiplicity = 1
  Basis Set: AUG-CC-PVTZ
    Blend: AUG-CC-PVTZ
  Basis Set: (AUG-CC-PVTZ AUX)
    Blend: AUG-CC-PVTZ-JKFIT

    Orbital Energies [Eh]
    ---------------------

    Doubly Occupied:

       1A    -20.513346     2A    -15.577886     3A    -11.348063
       4A    -11.264469     5A    -11.258752     6A    -11.250080
       7A    -11.248872     8A    -11.247079     9A    -11.244931
      10A    -11.244702    11A    -11.242698    12A    -11.229438
      13A    -11.227031    14A    -11.223398    15A    -11.211603
      16A     -1.367061    17A     -1.241983    18A     -1.160282
      19A     -1.085582    20A     -1.052633    21A     -1.030826
      22A     -1.022589    23A     -0.959413    24A     -0.897606
      25A     -0.863894    26A     -0.837081    27A     -0.833744
      28A     -0.785089    29A     -0.729544    30A     -0.717031
      31A     -0.681498    32A     -0.654519    33A     -0.638899
      34A     -0.628107    35A     -0.625763    36A     -0.604782
      37A     -0.599011    38A     -0.593076    39A     -0.585104
      40A     -0.577418    41A     -0.565084    42A     -0.543358
      43A     -0.525096    44A     -0.520548    45A     -0.506975
      46A     -0.502486    47A     -0.493654    48A     -0.492191
      49A     -0.471848    50A     -0.460723    51A     -0.455226
      52A     -0.419607    53A     -0.367696    54A     -0.344077
      55A     -0.341331

  @DF-RHF Final Energy:  -631.72853936584886

   => Energetics <=

    Nuclear Repulsion Energy =            998.2137604193374045
    One-Electron Energy =               -2839.6550355948515971
    Two-Electron Energy =                1209.7127358096652188
    Total Energy =                       -631.7285393658489738
  Basis Set: (AUG-CC-PVTZ AUX)
    Blend: AUG-CC-PVTZ-RI
    Molecular point group: c1

    Geometry (in Angstrom), charge = 0, multiplicity = 1:

       Center              X                  Y                   Z               Mass
    ------------   -----------------  -----------------  -----------------  -----------------
         O            0.073615299477     2.117603086895    -0.731867505193    15.994914619570
         N           -0.971420700523     0.187210086895    -0.065268505193    14.003074004430
         C           -2.294814200523     0.802487086895    -0.401493805193    12.000000000000
         C           -3.235016700523    -0.312253913105    -0.826758505193    12.000000000000
         C           -3.317881700523    -1.460957913105     0.177766494807    12.000000000000
         C           -1.921766700523    -2.011787913105     0.460789494807    12.000000000000
         C           -0.996847700523    -0.893490913105     0.923445494807    12.000000000000
         C           -2.796524700523     1.656454086895     0.762264494807    12.000000000000
         C            0.145330299477     0.955543086895    -0.307250505193    12.000000000000
         C            1.483185299477     0.310005086895    -0.114897505193    12.000000000000
         C            1.775246299477    -0.952588913105    -0.649004505193    12.000000000000
         C            2.494082299477     1.054188086895     0.504638494807    12.000000000000
         C            3.064335299477    -1.475450913105    -0.537422505193    12.000000000000
         C            3.776347299477     0.520598086895     0.629344494807    12.000000000000
         C            4.064065299477    -0.744471913105     0.109201494807    12.000000000000
         H           -2.082459700523     1.458472086895    -1.234490505193     1.007825032230
         H           -2.884067700523    -0.707031913105    -1.788576505193     1.007825032230
         H           -4.225935700523     0.124803086895    -1.000978505193     1.007825032230
         H           -3.971783700523    -2.251309913105    -0.208464505193     1.007825032230
         H           -3.768599700523    -1.113550913105     1.116070494807     1.007825032230
         H           -1.957530700523    -2.794787913105     1.228038494807     1.007825032230
         H           -1.507971700523    -2.462203913105    -0.450313505193     1.007825032230
         H           -1.350152700523    -0.503499913105     1.890308494807     1.007825032230
         H            0.019339299477    -1.256118913105     1.076427494807     1.007825032230
         H           -3.736681700523     2.137117086895     0.472802494807     1.007825032230
         H           -2.982706700523     1.074449086895     1.668709494807     1.007825032230
         H           -2.065820700523     2.437025086895     0.987377494807     1.007825032230
         H            0.997453299477    -1.509574913105    -1.167914505193     1.007825032230
         H            2.263145299477     2.050090086895     0.874396494807     1.007825032230
         H            3.291335299477    -2.450448913105    -0.962431505193     1.007825032230
         H            4.556427299477     1.095951086895     1.122281494807     1.007825032230
         H            5.066736299477    -1.155465913105     0.199484494807     1.007825032230

  Basis Set: AUG-CC-PVTZ
    Blend: AUG-CC-PVTZ
  Basis Set: (AUG-CC-PVTZ AUX)
    Blend: AUG-CC-PVTZ-JKFIT
	 Reference Energy          =    -631.7285393658488601 [Eh]
	 Singles Energy            =      -0.0000000000000000 [Eh]
	 Same-Spin Energy          =      -0.6885746768336054 [Eh]
	 Opposite-Spin Energy      =      -2.2116215854790897 [Eh]
	 Correlation Energy        =      -2.9001962623126953 [Eh]
	 Total Energy              =    -634.6287356281615075 [Eh]

	 ================> DF-SCS-MP2 Energies <==================
	-----------------------------------------------------------
	 SCS Same-Spin Scale       =       0.3333333333333333 [-]
	 SCS Opposite-Spin Scale   =       1.2000000000000000 [-]
	 SCS Same-Spin Energy      =      -0.2295248922778685 [Eh]
	 SCS Opposite-Spin Energy  =      -2.6539459025749075 [Eh]
	 SCS Correlation Energy    =      -2.8834707948527760 [Eh]
	 SCS Total Energy          =    -634.6120101607016295 [Eh]
	-----------------------------------------------------------

  Dipole Moment: [D]
     X:    -0.9155      Y:    -3.1252      Z:     1.4554     Total:     3.5670

*** Psi4 exiting successfully. Buy a developer a beer!
