                               Psi4 1.4a3.dev225

  ==> Input File <==

--------------------------------------------------------------------------
#psi4
#
memory 32 gb

molecule  {
0 1
  O        0.1371160     2.1442200    -0.7498900
  N       -0.9079200     0.2138270    -0.0832910
  C       -2.2101840     0.8219870    -0.4048790
  C       -3.1715160    -0.2856370    -0.8447810
  C       -3.2543810    -1.4343410     0.1597440
  C       -1.8582660    -1.9851710     0.4427670
  C       -0.9333470    -0.8668740     0.9054230
  C       -2.7330240     1.6830710     0.7442420
  C        0.2099884     0.9634063    -0.3184204
  C        1.5466860     0.3366220    -0.1329200
  C        1.8387470    -0.9259720    -0.6670270
  C        2.5575830     1.0808050     0.4866160
  C        3.1278360    -1.4488340    -0.5554450
  C        3.8398480     0.5472150     0.6113220
  C        4.1275660    -0.7178550     0.0911790
  H       -2.0189590     1.4850890    -1.2525130
  H       -2.8205670    -0.6804150    -1.8065990
  H       -4.1624350     0.1514200    -1.0190010
  H       -3.9082830    -2.2246930    -0.2264870
  H       -3.7050990    -1.0869340     1.0980480
  H       -1.8940300    -2.7681710     1.2100160
  H       -1.4444710    -2.4355870    -0.4683360
  H       -1.2866520    -0.4768830     1.8722860
  H        0.0828400    -1.2295020     1.0584050
  H       -3.6731810     2.1637340     0.4547800
  H       -2.9192060     1.1010660     1.6506870
  H       -2.0023200     2.4636420     0.9693550
  H        1.0609540    -1.4829580    -1.1859370
  H        2.3266460     2.0767070     0.8563740
  H        3.3548360    -2.4238320    -0.9804540
  H        4.6199280     1.1225680     1.1042590
  H        5.1302370    -1.1288490     0.1814620
units angstrom
no_reorient  #important for SAPT in psi4, default
symmetry c1  #important for SAPT in psi4, default
}

set PROPERTIES_ORIGIN ["COM"]
properties('MP2/aug-cc-pvtz', properties = ['dipole'])
--------------------------------------------------------------------------

    Molecular point group: c1
  Charge       = 0
  Multiplicity = 1
  Basis Set: AUG-CC-PVTZ
    Blend: AUG-CC-PVTZ
  Basis Set: (AUG-CC-PVTZ AUX)
    Blend: AUG-CC-PVTZ-JKFIT

    Orbital Energies [Eh]
    ---------------------

    Doubly Occupied:

       1A    -20.510093     2A    -15.581825     3A    -11.348918
       4A    -11.266065     5A    -11.258685     6A    -11.251036
       7A    -11.249841     8A    -11.247974     9A    -11.245953
      10A    -11.245427    11A    -11.243433    12A    -11.230293
      13A    -11.226911    14A    -11.223690    15A    -11.211147
      16A     -1.357372    17A     -1.246505    18A     -1.161416
      19A     -1.086372    20A     -1.053519    21A     -1.031884
      22A     -1.023431    23A     -0.960418    24A     -0.898818
      25A     -0.867148    26A     -0.837991    27A     -0.834269
      28A     -0.788274    29A     -0.729981    30A     -0.718584
      31A     -0.681561    32A     -0.655051    33A     -0.639200
      34A     -0.628553    35A     -0.624420    36A     -0.606728
      37A     -0.597903    38A     -0.593369    39A     -0.586589
      40A     -0.576576    41A     -0.564979    42A     -0.541652
      43A     -0.525994    44A     -0.519404    45A     -0.507646
      46A     -0.503063    47A     -0.494546    48A     -0.489857
      49A     -0.469332    50A     -0.462689    51A     -0.452070
      52A     -0.419749    53A     -0.368087    54A     -0.344873
      55A     -0.341804

  @DF-RHF Final Energy:  -631.72696756958749

   => Energetics <=

    Nuclear Repulsion Energy =            998.7392409031267562
    One-Electron Energy =               -2840.6664832550077335
    Two-Electron Energy =                1210.2002747822934907
    Total Energy =                       -631.7269675695874867
  Basis Set: (AUG-CC-PVTZ AUX)
    Blend: AUG-CC-PVTZ-RI
    Molecular point group: c1

    Geometry (in Angstrom), charge = 0, multiplicity = 1:

       Center              X                  Y                   Z               Mass
    ------------   -----------------  -----------------  -----------------  -----------------
         O            0.072298696982     2.119131402998    -0.733137024774    15.994914619570
         N           -0.972737303018     0.188738402998    -0.066538024774    14.003074004430
         C           -2.275001303018     0.796898402998    -0.388126024774    12.000000000000
         C           -3.236333303018    -0.310725597002    -0.828028024774    12.000000000000
         C           -3.319198303018    -1.459429597002     0.176496975226    12.000000000000
         C           -1.923083303018    -2.010259597002     0.459519975226    12.000000000000
         C           -0.998164303018    -0.891962597002     0.922175975226    12.000000000000
         C           -2.797841303018     1.657982402998     0.760994975226    12.000000000000
         C            0.145171096982     0.938317702998    -0.301667424774    12.000000000000
         C            1.481868696982     0.311533402998    -0.116167024774    12.000000000000
         C            1.773929696982    -0.951060597002    -0.650274024774    12.000000000000
         C            2.492765696982     1.055716402998     0.503368975226    12.000000000000
         C            3.063018696982    -1.473922597002    -0.538692024774    12.000000000000
         C            3.775030696982     0.522126402998     0.628074975226    12.000000000000
         C            4.062748696982    -0.742943597002     0.107931975226    12.000000000000
         H           -2.083776303018     1.460000402998    -1.235760024774     1.007825032230
         H           -2.885384303018    -0.705503597002    -1.789846024774     1.007825032230
         H           -4.227252303018     0.126331402998    -1.002248024774     1.007825032230
         H           -3.973100303018    -2.249781597002    -0.209734024774     1.007825032230
         H           -3.769916303018    -1.112022597002     1.114800975226     1.007825032230
         H           -1.958847303018    -2.793259597002     1.226768975226     1.007825032230
         H           -1.509288303018    -2.460675597002    -0.451583024774     1.007825032230
         H           -1.351469303018    -0.501971597002     1.889038975226     1.007825032230
         H            0.018022696982    -1.254590597002     1.075157975226     1.007825032230
         H           -3.737998303018     2.138645402998     0.471532975226     1.007825032230
         H           -2.984023303018     1.075977402998     1.667439975226     1.007825032230
         H           -2.067137303018     2.438553402998     0.986107975226     1.007825032230
         H            0.996136696982    -1.508046597002    -1.169184024774     1.007825032230
         H            2.261828696982     2.051618402998     0.873126975226     1.007825032230
         H            3.290018696982    -2.448920597002    -0.963701024774     1.007825032230
         H            4.555110696982     1.097479402998     1.121011975226     1.007825032230
         H            5.065419696982    -1.153937597002     0.198214975226     1.007825032230

  Basis Set: AUG-CC-PVTZ
    Blend: AUG-CC-PVTZ
  Basis Set: (AUG-CC-PVTZ AUX)
    Blend: AUG-CC-PVTZ-JKFIT
	 Reference Energy          =    -631.7269675695874867 [Eh]
	 Singles Energy            =      -0.0000000000000000 [Eh]
	 Same-Spin Energy          =      -0.6891082699173778 [Eh]
	 Opposite-Spin Energy      =      -2.2125179689268126 [Eh]
	 Correlation Energy        =      -2.9016262388441905 [Eh]
	 Total Energy              =    -634.6285938084316740 [Eh]

	 ================> DF-SCS-MP2 Energies <==================
	-----------------------------------------------------------
	 SCS Same-Spin Scale       =       0.3333333333333333 [-]
	 SCS Opposite-Spin Scale   =       1.2000000000000000 [-]
	 SCS Same-Spin Energy      =      -0.2297027566391259 [Eh]
	 SCS Opposite-Spin Energy  =      -2.6550215627121752 [Eh]
	 SCS Correlation Energy    =      -2.8847243193513012 [Eh]
	 SCS Total Energy          =    -634.6116918889388216 [Eh]
	-----------------------------------------------------------

  Dipole Moment: [D]
     X:    -0.8807      Y:    -3.2484      Z:     1.5128     Total:     3.6900

*** Psi4 exiting successfully. Buy a developer a beer!
