                               Psi4 1.3.2 release

  ==> Input File <==

--------------------------------------------------------------------------
#psi4
#
memory 32 gb

molecule  {
0 1
  O        0.0510298     2.1357632    -0.7496839
  N       -0.9079200     0.2138270    -0.0832910
  C       -2.2101840     0.8219870    -0.4048790
  C       -3.1715160    -0.2856370    -0.8447810
  C       -3.2543810    -1.4343410     0.1597440
  C       -1.8582660    -1.9851710     0.4427670
  C       -0.9333470    -0.8668740     0.9054230
  C       -2.7330240     1.6830710     0.7442420
  C        0.2088310     0.9821600    -0.3252730
  C        1.5466860     0.3366220    -0.1329200
  C        1.8387470    -0.9259720    -0.6670270
  C        2.5575830     1.0808050     0.4866160
  C        3.1278360    -1.4488340    -0.5554450
  C        3.8398480     0.5472150     0.6113220
  C        4.1275660    -0.7178550     0.0911790
  H       -2.0189590     1.4850890    -1.2525130
  H       -2.8205670    -0.6804150    -1.8065990
  H       -4.1624350     0.1514200    -1.0190010
  H       -3.9082830    -2.2246930    -0.2264870
  H       -3.7050990    -1.0869340     1.0980480
  H       -1.8940300    -2.7681710     1.2100160
  H       -1.4444710    -2.4355870    -0.4683360
  H       -1.2866520    -0.4768830     1.8722860
  H        0.0828400    -1.2295020     1.0584050
  H       -3.6731810     2.1637340     0.4547800
  H       -2.9192060     1.1010660     1.6506870
  H       -2.0023200     2.4636420     0.9693550
  H        1.0609540    -1.4829580    -1.1859370
  H        2.3266460     2.0767070     0.8563740
  H        3.3548360    -2.4238320    -0.9804540
  H        4.6199280     1.1225680     1.1042590
  H        5.1302370    -1.1288490     0.1814620
units angstrom
no_reorient  #important for SAPT in psi4, default
symmetry c1  #important for SAPT in psi4, default
}

set PROPERTIES_ORIGIN ["COM"]
properties('MP2/aug-cc-pvtz', properties = ['dipole'])
--------------------------------------------------------------------------

    Molecular point group: c1
  Charge       = 0
  Multiplicity = 1
  Basis Set: AUG-CC-PVTZ
    Blend: AUG-CC-PVTZ
  Basis Set: (AUG-CC-PVTZ AUX)
    Blend: AUG-CC-PVTZ-JKFIT

    Orbital Energies [Eh]
    ---------------------

    Doubly Occupied:

       1A    -20.512598     2A    -15.575181     3A    -11.348603
       4A    -11.262869     5A    -11.254363     6A    -11.253894
       7A    -11.252333     8A    -11.249976     9A    -11.248274
      10A    -11.247229    11A    -11.245268    12A    -11.227933
      13A    -11.224583    14A    -11.220892    15A    -11.208467
      16A     -1.369505    17A     -1.241425    18A     -1.163449
      19A     -1.082870    20A     -1.051094    21A     -1.032378
      22A     -1.025306    23A     -0.957110    24A     -0.895912
      25A     -0.865620    26A     -0.839124    27A     -0.832680
      28A     -0.786326    29A     -0.728807    30A     -0.716795
      31A     -0.683096    32A     -0.655217    33A     -0.638907
      34A     -0.628414    35A     -0.624312    36A     -0.606081
      37A     -0.598873    38A     -0.595158    39A     -0.585087
      40A     -0.575571    41A     -0.563084    42A     -0.541996
      43A     -0.526480    44A     -0.517914    45A     -0.508694
      46A     -0.504716    47A     -0.492617    48A     -0.491960
      49A     -0.467861    50A     -0.460082    51A     -0.448874
      52A     -0.420612    53A     -0.364687    54A     -0.346606
      55A     -0.345119

  @DF-RHF Final Energy:  -631.72741332030967

   => Energetics <=

    Nuclear Repulsion Energy =            999.1319380648254764
    One-Electron Energy =               -2841.4929321582872035
    Two-Electron Energy =                1210.6335807731518344
    Total Energy =                       -631.7274133203097790
  Basis Set: (AUG-CC-PVTZ AUX)
    Blend: AUG-CC-PVTZ-RI
    Molecular point group: c1

    Geometry (in Angstrom), charge = 0, multiplicity = 1:

       Center              X                  Y                   Z               Mass
    ------------   -----------------  -----------------  -----------------  -----------------
         O           -0.006940541589     2.110232629100    -0.732542334935    15.994914619570
         N           -0.965890341589     0.188296429100    -0.066149434935    14.003074004430
         C           -2.268154341589     0.796456429100    -0.387737434935    12.000000000000
         C           -3.229486341589    -0.311167570900    -0.827639434935    12.000000000000
         C           -3.312351341589    -1.459871570900     0.176885565065    12.000000000000
         C           -1.916236341589    -2.010701570900     0.459908565065    12.000000000000
         C           -0.991317341589    -0.892404570900     0.922564565065    12.000000000000
         C           -2.790994341589     1.657540429100     0.761383565065    12.000000000000
         C            0.150860658411     0.956629429100    -0.308131434935    12.000000000000
         C            1.488715658411     0.311091429100    -0.115778434935    12.000000000000
         C            1.780776658411    -0.951502570900    -0.649885434935    12.000000000000
         C            2.499612658411     1.055274429100     0.503757565065    12.000000000000
         C            3.069865658411    -1.474364570900    -0.538303434935    12.000000000000
         C            3.781877658411     0.521684429100     0.628463565065    12.000000000000
         C            4.069595658411    -0.743385570900     0.108320565065    12.000000000000
         H           -2.076929341589     1.459558429100    -1.235371434935     1.007825032230
         H           -2.878537341589    -0.705945570900    -1.789457434935     1.007825032230
         H           -4.220405341589     0.125889429100    -1.001859434935     1.007825032230
         H           -3.966253341589    -2.250223570900    -0.209345434935     1.007825032230
         H           -3.763069341589    -1.112464570900     1.115189565065     1.007825032230
         H           -1.952000341589    -2.793701570900     1.227157565065     1.007825032230
         H           -1.502441341589    -2.461117570900    -0.451194434935     1.007825032230
         H           -1.344622341589    -0.502413570900     1.889427565065     1.007825032230
         H            0.024869658411    -1.255032570900     1.075546565065     1.007825032230
         H           -3.731151341589     2.138203429100     0.471921565065     1.007825032230
         H           -2.977176341589     1.075535429100     1.667828565065     1.007825032230
         H           -2.060290341589     2.438111429100     0.986496565065     1.007825032230
         H            1.002983658411    -1.508488570900    -1.168795434935     1.007825032230
         H            2.268675658411     2.051176429100     0.873515565065     1.007825032230
         H            3.296865658411    -2.449362570900    -0.963312434935     1.007825032230
         H            4.561957658411     1.097037429100     1.121400565065     1.007825032230
         H            5.072266658411    -1.154379570900     0.198603565065     1.007825032230

  Basis Set: AUG-CC-PVTZ
    Blend: AUG-CC-PVTZ
  Basis Set: (AUG-CC-PVTZ AUX)
    Blend: AUG-CC-PVTZ-JKFIT
	 Reference Energy          =    -631.7274133203096653 [Eh]
	 Singles Energy            =      -0.0000000000000000 [Eh]
	 Same-Spin Energy          =      -0.6888446039893152 [Eh]
	 Opposite-Spin Energy      =      -2.2117973945329896 [Eh]
	 Correlation Energy        =      -2.9006419985223051 [Eh]
	 Total Energy              =    -634.6280553188320255 [Eh]

	 ================> DF-SCS-MP2 Energies <==================
	-----------------------------------------------------------
	 SCS Same-Spin Scale       =       0.3333333333333333 [-]
	 SCS Opposite-Spin Scale   =       1.2000000000000000 [-]
	 SCS Same-Spin Energy      =      -0.2296148679964384 [Eh]
	 SCS Opposite-Spin Energy  =      -2.6541568734395873 [Eh]
	 SCS Correlation Energy    =      -2.8837717414360258 [Eh]
	 SCS Total Energy          =    -634.6111850617456867 [Eh]
	-----------------------------------------------------------

  Dipole Moment: [D]
     X:    -0.4831      Y:    -3.1298      Z:     1.4477     Total:     3.4821

*** Psi4 exiting successfully. Buy a developer a beer!
