                               Psi4 1.3.2 release

  ==> Input File <==

--------------------------------------------------------------------------
#psi4
#
memory 32 gb

molecule  {
0 1
  O        0.1371160     2.1442200    -0.7498900
  N       -0.9174927     0.1907251    -0.0892420
  C       -2.2101840     0.8219870    -0.4048790
  C       -3.1715160    -0.2856370    -0.8447810
  C       -3.2543810    -1.4343410     0.1597440
  C       -1.8582660    -1.9851710     0.4427670
  C       -0.9333470    -0.8668740     0.9054230
  C       -2.7330240     1.6830710     0.7442420
  C        0.2088310     0.9821600    -0.3252730
  C        1.5466860     0.3366220    -0.1329200
  C        1.8387470    -0.9259720    -0.6670270
  C        2.5575830     1.0808050     0.4866160
  C        3.1278360    -1.4488340    -0.5554450
  C        3.8398480     0.5472150     0.6113220
  C        4.1275660    -0.7178550     0.0911790
  H       -2.0189590     1.4850890    -1.2525130
  H       -2.8205670    -0.6804150    -1.8065990
  H       -4.1624350     0.1514200    -1.0190010
  H       -3.9082830    -2.2246930    -0.2264870
  H       -3.7050990    -1.0869340     1.0980480
  H       -1.8940300    -2.7681710     1.2100160
  H       -1.4444710    -2.4355870    -0.4683360
  H       -1.2866520    -0.4768830     1.8722860
  H        0.0828400    -1.2295020     1.0584050
  H       -3.6731810     2.1637340     0.4547800
  H       -2.9192060     1.1010660     1.6506870
  H       -2.0023200     2.4636420     0.9693550
  H        1.0609540    -1.4829580    -1.1859370
  H        2.3266460     2.0767070     0.8563740
  H        3.3548360    -2.4238320    -0.9804540
  H        4.6199280     1.1225680     1.1042590
  H        5.1302370    -1.1288490     0.1814620
units angstrom
no_reorient  #important for SAPT in psi4, default
symmetry c1  #important for SAPT in psi4, default
}

set PROPERTIES_ORIGIN ["COM"]
properties('MP2/aug-cc-pvtz', properties = ['dipole'])
--------------------------------------------------------------------------

    Molecular point group: c1
  Charge       = 0
  Multiplicity = 1
  Basis Set: AUG-CC-PVTZ
    Blend: AUG-CC-PVTZ
  Basis Set: (AUG-CC-PVTZ AUX)
    Blend: AUG-CC-PVTZ-JKFIT

    Orbital Energies [Eh]
    ---------------------

    Doubly Occupied:

       1A    -20.518841     2A    -15.578412     3A    -11.352186
       4A    -11.263041     5A    -11.256964     6A    -11.251170
       7A    -11.249855     8A    -11.247966     9A    -11.246021
      10A    -11.245459    11A    -11.243541    12A    -11.227975
      13A    -11.225334    14A    -11.221665    15A    -11.210697
      16A     -1.369474    17A     -1.246900    18A     -1.161295
      19A     -1.082489    20A     -1.052085    21A     -1.031495
      22A     -1.023448    23A     -0.957529    24A     -0.895904
      25A     -0.864853    26A     -0.837705    27A     -0.833339
      28A     -0.785075    29A     -0.729380    30A     -0.718159
      31A     -0.682718    32A     -0.654904    33A     -0.638148
      34A     -0.628010    35A     -0.626068    36A     -0.605473
      37A     -0.598799    38A     -0.593846    39A     -0.585029
      40A     -0.579073    41A     -0.563778    42A     -0.542777
      43A     -0.526400    44A     -0.519853    45A     -0.508108
      46A     -0.503078    47A     -0.493481    48A     -0.492656
      49A     -0.469344    50A     -0.461620    51A     -0.450783
      52A     -0.422267    53A     -0.367773    54A     -0.344873
      55A     -0.342362

  @DF-RHF Final Energy:  -631.72776120501237

   => Energetics <=

    Nuclear Repulsion Energy =            998.5702932989895544
    One-Electron Energy =               -2840.3371549760290691
    Two-Electron Energy =                1210.0391004720270303
    Total Energy =                       -631.7277612050124844
  Basis Set: (AUG-CC-PVTZ AUX)
    Blend: AUG-CC-PVTZ-RI
    Molecular point group: c1

    Geometry (in Angstrom), charge = 0, multiplicity = 1:

       Center              X                  Y                   Z               Mass
    ------------   -----------------  -----------------  -----------------  -----------------
         O            0.073026975858     2.119616081400    -0.732321967093    15.994914619570
         N           -0.981581724142     0.166121181400    -0.071673967093    14.003074004430
         C           -2.274273024142     0.797383081400    -0.387310967093    12.000000000000
         C           -3.235605024142    -0.310240918600    -0.827212967093    12.000000000000
         C           -3.318470024142    -1.458944918600     0.177312032907    12.000000000000
         C           -1.922355024142    -2.009774918600     0.460335032907    12.000000000000
         C           -0.997436024142    -0.891477918600     0.922991032907    12.000000000000
         C           -2.797113024142     1.658467081400     0.761810032907    12.000000000000
         C            0.144741975858     0.957556081400    -0.307704967093    12.000000000000
         C            1.482596975858     0.312018081400    -0.115351967093    12.000000000000
         C            1.774657975858    -0.950575918600    -0.649458967093    12.000000000000
         C            2.493493975858     1.056201081400     0.504184032907    12.000000000000
         C            3.063746975858    -1.473437918600    -0.537876967093    12.000000000000
         C            3.775758975858     0.522611081400     0.628890032907    12.000000000000
         C            4.063476975858    -0.742458918600     0.108747032907    12.000000000000
         H           -2.083048024142     1.460485081400    -1.234944967093     1.007825032230
         H           -2.884656024142    -0.705018918600    -1.789030967093     1.007825032230
         H           -4.226524024142     0.126816081400    -1.001432967093     1.007825032230
         H           -3.972372024142    -2.249296918600    -0.208918967093     1.007825032230
         H           -3.769188024142    -1.111537918600     1.115616032907     1.007825032230
         H           -1.958119024142    -2.792774918600     1.227584032907     1.007825032230
         H           -1.508560024142    -2.460190918600    -0.450767967093     1.007825032230
         H           -1.350741024142    -0.501486918600     1.889854032907     1.007825032230
         H            0.018750975858    -1.254105918600     1.075973032907     1.007825032230
         H           -3.737270024142     2.139130081400     0.472348032907     1.007825032230
         H           -2.983295024142     1.076462081400     1.668255032907     1.007825032230
         H           -2.066409024142     2.439038081400     0.986923032907     1.007825032230
         H            0.996864975858    -1.507561918600    -1.168368967093     1.007825032230
         H            2.262556975858     2.052103081400     0.873942032907     1.007825032230
         H            3.290746975858    -2.448435918600    -0.962885967093     1.007825032230
         H            4.555838975858     1.097964081400     1.121827032907     1.007825032230
         H            5.066147975858    -1.153452918600     0.199030032907     1.007825032230

  Basis Set: AUG-CC-PVTZ
    Blend: AUG-CC-PVTZ
  Basis Set: (AUG-CC-PVTZ AUX)
    Blend: AUG-CC-PVTZ-JKFIT
	 Reference Energy          =    -631.7277612050123707 [Eh]
	 Singles Energy            =      -0.0000000000000000 [Eh]
	 Same-Spin Energy          =      -0.6888379308574246 [Eh]
	 Opposite-Spin Energy      =      -2.2120533771942053 [Eh]
	 Correlation Energy        =      -2.9008913080516301 [Eh]
	 Total Energy              =    -634.6286525130640257 [Eh]

	 ================> DF-SCS-MP2 Energies <==================
	-----------------------------------------------------------
	 SCS Same-Spin Scale       =       0.3333333333333333 [-]
	 SCS Opposite-Spin Scale   =       1.2000000000000000 [-]
	 SCS Same-Spin Energy      =      -0.2296126436191415 [Eh]
	 SCS Opposite-Spin Energy  =      -2.6544640526330463 [Eh]
	 SCS Correlation Energy    =      -2.8840766962521878 [Eh]
	 SCS Total Energy          =    -634.6118379012646074 [Eh]
	-----------------------------------------------------------

  Dipole Moment: [D]
     X:    -0.7189      Y:    -3.0147      Z:     1.4371     Total:     3.4162

*** Psi4 exiting successfully. Buy a developer a beer!
