                               Psi4 1.3.2 release

  ==> Input File <==

--------------------------------------------------------------------------
#psi4
#
memory 32 gb

molecule  {
0 1
  O        0.1371160     2.1442200    -0.7498900
  N       -0.9079200     0.2138270    -0.0832910
  C       -2.2986044     0.8632795    -0.4267140
  C       -3.1715160    -0.2856370    -0.8447810
  C       -3.2543810    -1.4343410     0.1597440
  C       -1.8582660    -1.9851710     0.4427670
  C       -0.9333470    -0.8668740     0.9054230
  C       -2.7330240     1.6830710     0.7442420
  C        0.2088310     0.9821600    -0.3252730
  C        1.5466860     0.3366220    -0.1329200
  C        1.8387470    -0.9259720    -0.6670270
  C        2.5575830     1.0808050     0.4866160
  C        3.1278360    -1.4488340    -0.5554450
  C        3.8398480     0.5472150     0.6113220
  C        4.1275660    -0.7178550     0.0911790
  H       -2.0189590     1.4850890    -1.2525130
  H       -2.8205670    -0.6804150    -1.8065990
  H       -4.1624350     0.1514200    -1.0190010
  H       -3.9082830    -2.2246930    -0.2264870
  H       -3.7050990    -1.0869340     1.0980480
  H       -1.8940300    -2.7681710     1.2100160
  H       -1.4444710    -2.4355870    -0.4683360
  H       -1.2866520    -0.4768830     1.8722860
  H        0.0828400    -1.2295020     1.0584050
  H       -3.6731810     2.1637340     0.4547800
  H       -2.9192060     1.1010660     1.6506870
  H       -2.0023200     2.4636420     0.9693550
  H        1.0609540    -1.4829580    -1.1859370
  H        2.3266460     2.0767070     0.8563740
  H        3.3548360    -2.4238320    -0.9804540
  H        4.6199280     1.1225680     1.1042590
  H        5.1302370    -1.1288490     0.1814620
units angstrom
no_reorient  #important for SAPT in psi4, default
symmetry c1  #important for SAPT in psi4, default
}

set PROPERTIES_ORIGIN ["COM"]
properties('MP2/aug-cc-pvtz', properties = ['dipole'])
--------------------------------------------------------------------------

    Molecular point group: c1
  Charge       = 0
  Multiplicity = 1
  Basis Set: AUG-CC-PVTZ
    Blend: AUG-CC-PVTZ
  Basis Set: (AUG-CC-PVTZ AUX)
    Blend: AUG-CC-PVTZ-JKFIT

    Orbital Energies [Eh]
    ---------------------

    Doubly Occupied:

       1A    -20.510261     2A    -15.573165     3A    -11.345021
       4A    -11.263363     5A    -11.262193     6A    -11.248393
       7A    -11.247229     8A    -11.245725     9A    -11.243467
      10A    -11.243367    11A    -11.241412    12A    -11.228964
      13A    -11.228350    14A    -11.225424    15A    -11.214022
      16A     -1.362910    17A     -1.230216    18A     -1.158652
      19A     -1.087925    20A     -1.055077    21A     -1.030183
      22A     -1.021216    23A     -0.963797    24A     -0.898336
      25A     -0.858922    26A     -0.835703    27A     -0.833169
      28A     -0.780312    29A     -0.730602    30A     -0.713056
      31A     -0.680215    32A     -0.653658    33A     -0.640702
      34A     -0.629658    35A     -0.623945    36A     -0.602237
      37A     -0.599607    38A     -0.591811    39A     -0.582890
      40A     -0.576914    41A     -0.566286    42A     -0.544236
      43A     -0.522711    44A     -0.522266    45A     -0.504852
      46A     -0.501903    47A     -0.496476    48A     -0.490842
      49A     -0.477546    50A     -0.460653    51A     -0.452844
      52A     -0.414593    53A     -0.366656    54A     -0.342722
      55A     -0.339811

  @DF-RHF Final Energy:  -631.72057599537561

   => Energetics <=

    Nuclear Repulsion Energy =            997.0097987698532052
    One-Electron Energy =               -2837.3278241313792023
    Two-Electron Energy =                1208.5974493661503857
    Total Energy =                       -631.7205759953756115
  Basis Set: (AUG-CC-PVTZ AUX)
    Blend: AUG-CC-PVTZ-RI
    Molecular point group: c1

    Geometry (in Angstrom), charge = 0, multiplicity = 1:

       Center              X                  Y                   Z               Mass
    ------------   -----------------  -----------------  -----------------  -----------------
         O            0.077590521101     2.115584163287    -0.731442299814    15.994914619570
         N           -0.967445478899     0.185191163287    -0.064843299814    14.003074004430
         C           -2.358129878899     0.834643663287    -0.408266299814    12.000000000000
         C           -3.231041478899    -0.314272836713    -0.826333299814    12.000000000000
         C           -3.313906478899    -1.462976836713     0.178191700186    12.000000000000
         C           -1.917791478899    -2.013806836713     0.461214700186    12.000000000000
         C           -0.992872478899    -0.895509836713     0.923870700186    12.000000000000
         C           -2.792549478899     1.654435163287     0.762689700186    12.000000000000
         C            0.149305521101     0.953524163287    -0.306825299814    12.000000000000
         C            1.487160521101     0.307986163287    -0.114472299814    12.000000000000
         C            1.779221521101    -0.954607836713    -0.648579299814    12.000000000000
         C            2.498057521101     1.052169163287     0.505063700186    12.000000000000
         C            3.068310521101    -1.477469836713    -0.536997299814    12.000000000000
         C            3.780322521101     0.518579163287     0.629769700186    12.000000000000
         C            4.068040521101    -0.746490836713     0.109626700186    12.000000000000
         H           -2.078484478899     1.456453163287    -1.234065299814     1.007825032230
         H           -2.880092478899    -0.709050836713    -1.788151299814     1.007825032230
         H           -4.221960478899     0.122784163287    -1.000553299814     1.007825032230
         H           -3.967808478899    -2.253328836713    -0.208039299814     1.007825032230
         H           -3.764624478899    -1.115569836713     1.116495700186     1.007825032230
         H           -1.953555478899    -2.796806836713     1.228463700186     1.007825032230
         H           -1.503996478899    -2.464222836713    -0.449888299814     1.007825032230
         H           -1.346177478899    -0.505518836713     1.890733700186     1.007825032230
         H            0.023314521101    -1.258137836713     1.076852700186     1.007825032230
         H           -3.732706478899     2.135098163287     0.473227700186     1.007825032230
         H           -2.978731478899     1.072430163287     1.669134700186     1.007825032230
         H           -2.061845478899     2.435006163287     0.987802700186     1.007825032230
         H            1.001428521101    -1.511593836713    -1.167489299814     1.007825032230
         H            2.267120521101     2.048071163287     0.874821700186     1.007825032230
         H            3.295310521101    -2.452467836713    -0.962006299814     1.007825032230
         H            4.560402521101     1.093932163287     1.122706700186     1.007825032230
         H            5.070711521101    -1.157484836713     0.199909700186     1.007825032230

  Basis Set: AUG-CC-PVTZ
    Blend: AUG-CC-PVTZ
  Basis Set: (AUG-CC-PVTZ AUX)
    Blend: AUG-CC-PVTZ-JKFIT
	 Reference Energy          =    -631.7205759953756115 [Eh]
	 Singles Energy            =      -0.0000000000000000 [Eh]
	 Same-Spin Energy          =      -0.6889265942462440 [Eh]
	 Opposite-Spin Energy      =      -2.2124214478642994 [Eh]
	 Correlation Energy        =      -2.9013480421105435 [Eh]
	 Total Energy              =    -634.6219240374861101 [Eh]

	 ================> DF-SCS-MP2 Energies <==================
	-----------------------------------------------------------
	 SCS Same-Spin Scale       =       0.3333333333333333 [-]
	 SCS Opposite-Spin Scale   =       1.2000000000000000 [-]
	 SCS Same-Spin Energy      =      -0.2296421980820813 [Eh]
	 SCS Opposite-Spin Energy  =      -2.6549057374371592 [Eh]
	 SCS Correlation Energy    =      -2.8845479355192407 [Eh]
	 SCS Total Energy          =    -634.6051239308948198 [Eh]
	-----------------------------------------------------------

  Dipole Moment: [D]
     X:    -1.1651      Y:    -3.0662      Z:     1.4649     Total:     3.5924

*** Psi4 exiting successfully. Buy a developer a beer!
