                               Psi4 1.3.2 release

  ==> Input File <==

--------------------------------------------------------------------------
#psi4
#
memory 32 gb

molecule  {
0 1
  O        0.1371160     2.1442200    -0.7498900
  N       -0.9126517     0.2606991     0.0080796
  C       -2.2101840     0.8219870    -0.4048790
  C       -3.1715160    -0.2856370    -0.8447810
  C       -3.2543810    -1.4343410     0.1597440
  C       -1.8582660    -1.9851710     0.4427670
  C       -0.9333470    -0.8668740     0.9054230
  C       -2.7330240     1.6830710     0.7442420
  C        0.2088310     0.9821600    -0.3252730
  C        1.5466860     0.3366220    -0.1329200
  C        1.8387470    -0.9259720    -0.6670270
  C        2.5575830     1.0808050     0.4866160
  C        3.1278360    -1.4488340    -0.5554450
  C        3.8398480     0.5472150     0.6113220
  C        4.1275660    -0.7178550     0.0911790
  H       -2.0189590     1.4850890    -1.2525130
  H       -2.8205670    -0.6804150    -1.8065990
  H       -4.1624350     0.1514200    -1.0190010
  H       -3.9082830    -2.2246930    -0.2264870
  H       -3.7050990    -1.0869340     1.0980480
  H       -1.8940300    -2.7681710     1.2100160
  H       -1.4444710    -2.4355870    -0.4683360
  H       -1.2866520    -0.4768830     1.8722860
  H        0.0828400    -1.2295020     1.0584050
  H       -3.6731810     2.1637340     0.4547800
  H       -2.9192060     1.1010660     1.6506870
  H       -2.0023200     2.4636420     0.9693550
  H        1.0609540    -1.4829580    -1.1859370
  H        2.3266460     2.0767070     0.8563740
  H        3.3548360    -2.4238320    -0.9804540
  H        4.6199280     1.1225680     1.1042590
  H        5.1302370    -1.1288490     0.1814620
units angstrom
no_reorient  #important for SAPT in psi4, default
symmetry c1  #important for SAPT in psi4, default
}

set PROPERTIES_ORIGIN ["COM"]
properties('MP2/aug-cc-pvtz', properties = ['dipole'])
--------------------------------------------------------------------------

    Molecular point group: c1
  Charge       = 0
  Multiplicity = 1
  Basis Set: AUG-CC-PVTZ
    Blend: AUG-CC-PVTZ
  Basis Set: (AUG-CC-PVTZ AUX)
    Blend: AUG-CC-PVTZ-JKFIT

    Orbital Energies [Eh]
    ---------------------

    Doubly Occupied:

       1A    -20.511103     2A    -15.578258     3A    -11.348547
       4A    -11.263442     5A    -11.258891     6A    -11.250884
       7A    -11.249693     8A    -11.247506     9A    -11.245406
      10A    -11.245296    11A    -11.243183    12A    -11.230864
      13A    -11.227332    14A    -11.225188    15A    -11.208679
      16A     -1.367442    17A     -1.249463    18A     -1.160908
      19A     -1.085952    20A     -1.053558    21A     -1.031625
      22A     -1.023207    23A     -0.958624    24A     -0.898138
      25A     -0.866437    26A     -0.838039    27A     -0.835746
      28A     -0.789616    29A     -0.728593    30A     -0.716780
      31A     -0.681769    32A     -0.656134    33A     -0.639062
      34A     -0.628008    35A     -0.627340    36A     -0.608787
      37A     -0.599393    38A     -0.593755    39A     -0.586385
      40A     -0.580459    41A     -0.565679    42A     -0.541041
      43A     -0.525132    44A     -0.519936    45A     -0.507907
      46A     -0.503510    47A     -0.493420    48A     -0.491493
      49A     -0.471466    50A     -0.464306    51A     -0.452815
      52A     -0.419234    53A     -0.361926    54A     -0.344686
      55A     -0.341741

  @DF-RHF Final Energy:  -631.72705669010338

   => Energetics <=

    Nuclear Repulsion Energy =            998.8668188320237959
    One-Electron Energy =               -2840.9001822709892622
    Two-Electron Energy =                1210.3063067488619708
    Total Energy =                       -631.7270566901033817
  Basis Set: (AUG-CC-PVTZ AUX)
    Blend: AUG-CC-PVTZ-RI
    Molecular point group: c1

    Geometry (in Angstrom), charge = 0, multiplicity = 1:

       Center              X                  Y                   Z               Mass
    ------------   -----------------  -----------------  -----------------  -----------------
         O            0.072693255861     2.114792341882    -0.739030945397    15.994914619570
         N           -0.977074444139     0.231271441882     0.018938654603    14.003074004430
         C           -2.274606744139     0.792559341882    -0.394019945397    12.000000000000
         C           -3.235938744139    -0.315064658118    -0.833921945397    12.000000000000
         C           -3.318803744139    -1.463768658118     0.170603054603    12.000000000000
         C           -1.922688744139    -2.014598658118     0.453626054603    12.000000000000
         C           -0.997769744139    -0.896301658118     0.916282054603    12.000000000000
         C           -2.797446744139     1.653643341882     0.755101054603    12.000000000000
         C            0.144408255861     0.952732341882    -0.314413945397    12.000000000000
         C            1.482263255861     0.307194341882    -0.122060945397    12.000000000000
         C            1.774324255861    -0.955399658118    -0.656167945397    12.000000000000
         C            2.493160255861     1.051377341882     0.497475054603    12.000000000000
         C            3.063413255861    -1.478261658118    -0.544585945397    12.000000000000
         C            3.775425255861     0.517787341882     0.622181054603    12.000000000000
         C            4.063143255861    -0.747282658118     0.102038054603    12.000000000000
         H           -2.083381744139     1.455661341882    -1.241653945397     1.007825032230
         H           -2.884989744139    -0.709842658118    -1.795739945397     1.007825032230
         H           -4.226857744139     0.121992341882    -1.008141945397     1.007825032230
         H           -3.972705744139    -2.254120658118    -0.215627945397     1.007825032230
         H           -3.769521744139    -1.116361658118     1.108907054603     1.007825032230
         H           -1.958452744139    -2.797598658118     1.220875054603     1.007825032230
         H           -1.508893744139    -2.465014658118    -0.457476945397     1.007825032230
         H           -1.351074744139    -0.506310658118     1.883145054603     1.007825032230
         H            0.018417255861    -1.258929658118     1.069264054603     1.007825032230
         H           -3.737603744139     2.134306341882     0.465639054603     1.007825032230
         H           -2.983628744139     1.071638341882     1.661546054603     1.007825032230
         H           -2.066742744139     2.434214341882     0.980214054603     1.007825032230
         H            0.996531255861    -1.512385658118    -1.175077945397     1.007825032230
         H            2.262223255861     2.047279341882     0.867233054603     1.007825032230
         H            3.290413255861    -2.453259658118    -0.969594945397     1.007825032230
         H            4.555505255861     1.093140341882     1.115118054603     1.007825032230
         H            5.065814255861    -1.158276658118     0.192321054603     1.007825032230

  Basis Set: AUG-CC-PVTZ
    Blend: AUG-CC-PVTZ
  Basis Set: (AUG-CC-PVTZ AUX)
    Blend: AUG-CC-PVTZ-JKFIT
	 Reference Energy          =    -631.7270566901033817 [Eh]
	 Singles Energy            =      -0.0000000000000000 [Eh]
	 Same-Spin Energy          =      -0.6887890123340534 [Eh]
	 Opposite-Spin Energy      =      -2.2115421803221125 [Eh]
	 Correlation Energy        =      -2.9003311926561661 [Eh]
	 Total Energy              =    -634.6273878827595354 [Eh]

	 ================> DF-SCS-MP2 Energies <==================
	-----------------------------------------------------------
	 SCS Same-Spin Scale       =       0.3333333333333333 [-]
	 SCS Opposite-Spin Scale   =       1.2000000000000000 [-]
	 SCS Same-Spin Energy      =      -0.2295963374446845 [Eh]
	 SCS Opposite-Spin Energy  =      -2.6538506163865350 [Eh]
	 SCS Correlation Energy    =      -2.8834469538312195 [Eh]
	 SCS Total Energy          =    -634.6105036439346350 [Eh]
	-----------------------------------------------------------

  Dipole Moment: [D]
     X:    -0.8942      Y:    -3.2845      Z:     1.3597     Total:     3.6656

*** Psi4 exiting successfully. Buy a developer a beer!
