                               Psi4 1.3.2 release

  ==> Input File <==

--------------------------------------------------------------------------
#psi4
#
memory 32 gb

molecule  {
0 1
  O        0.1371160     2.1442200    -0.7498900
  N       -0.9079200     0.2138270    -0.0832910
  C       -2.2101840     0.8219870    -0.4048790
  C       -3.1715160    -0.2856370    -0.8447810
  C       -3.2543810    -1.4343410     0.1597440
  C       -1.8582660    -1.9851710     0.4427670
  C       -0.9333470    -0.8668740     0.9054230
  C       -2.7330240     1.6830710     0.7442420
  C        0.1681522     0.8545370    -0.4067511
  C        1.5466860     0.3366220    -0.1329200
  C        1.8387470    -0.9259720    -0.6670270
  C        2.5575830     1.0808050     0.4866160
  C        3.1278360    -1.4488340    -0.5554450
  C        3.8398480     0.5472150     0.6113220
  C        4.1275660    -0.7178550     0.0911790
  H       -2.0189590     1.4850890    -1.2525130
  H       -2.8205670    -0.6804150    -1.8065990
  H       -4.1624350     0.1514200    -1.0190010
  H       -3.9082830    -2.2246930    -0.2264870
  H       -3.7050990    -1.0869340     1.0980480
  H       -1.8940300    -2.7681710     1.2100160
  H       -1.4444710    -2.4355870    -0.4683360
  H       -1.2866520    -0.4768830     1.8722860
  H        0.0828400    -1.2295020     1.0584050
  H       -3.6731810     2.1637340     0.4547800
  H       -2.9192060     1.1010660     1.6506870
  H       -2.0023200     2.4636420     0.9693550
  H        1.0609540    -1.4829580    -1.1859370
  H        2.3266460     2.0767070     0.8563740
  H        3.3548360    -2.4238320    -0.9804540
  H        4.6199280     1.1225680     1.1042590
  H        5.1302370    -1.1288490     0.1814620
units angstrom
no_reorient  #important for SAPT in psi4, default
symmetry c1  #important for SAPT in psi4, default
}

set PROPERTIES_ORIGIN ["COM"]
properties('MP2/aug-cc-pvtz', properties = ['dipole'])
--------------------------------------------------------------------------

    Molecular point group: c1
  Charge       = 0
  Multiplicity = 1
  Basis Set: AUG-CC-PVTZ
    Blend: AUG-CC-PVTZ
  Basis Set: (AUG-CC-PVTZ AUX)
    Blend: AUG-CC-PVTZ-JKFIT

    Orbital Energies [Eh]
    ---------------------

    Doubly Occupied:

       1A    -20.490033     2A    -15.595907     3A    -11.346034
       4A    -11.274490     5A    -11.264886     6A    -11.251676
       7A    -11.247263     8A    -11.246531     9A    -11.245599
      10A    -11.243590    11A    -11.242726    12A    -11.235686
      13A    -11.231375    14A    -11.228233    15A    -11.214439
      16A     -1.337241    17A     -1.239393    18A     -1.159400
      19A     -1.096513    20A     -1.059379    21A     -1.030905
      22A     -1.021610    23A     -0.970792    24A     -0.907070
      25A     -0.871684    26A     -0.839229    27A     -0.834236
      28A     -0.797565    29A     -0.731652    30A     -0.723102
      31A     -0.678752    32A     -0.659002    33A     -0.642337
      34A     -0.632028    35A     -0.622167    36A     -0.612360
      37A     -0.597924    38A     -0.592829    39A     -0.589152
      40A     -0.573548    41A     -0.561337    42A     -0.538142
      43A     -0.527609    44A     -0.518900    45A     -0.505454
      46A     -0.499694    47A     -0.497222    48A     -0.486982
      49A     -0.466222    50A     -0.465332    51A     -0.458156
      52A     -0.403983    53A     -0.366706    54A     -0.343772
      55A     -0.338553

  @DF-RHF Final Energy:  -631.70312486285798

   => Energetics <=

    Nuclear Repulsion Energy =            999.1187419754038501
    One-Electron Energy =               -2841.3309348843740736
    Two-Electron Energy =                1210.5090680461123611
    Total Energy =                       -631.7031248628579760
  Basis Set: (AUG-CC-PVTZ AUX)
    Blend: AUG-CC-PVTZ-RI
    Molecular point group: c1

    Geometry (in Angstrom), charge = 0, multiplicity = 1:

       Center              X                  Y                   Z               Mass
    ------------   -----------------  -----------------  -----------------  -----------------
         O            0.074770177775     2.125562875835    -0.727918873305    15.994914619570
         N           -0.970265822225     0.195169875835    -0.061319873305    14.003074004430
         C           -2.272529822225     0.803329875835    -0.382907873305    12.000000000000
         C           -3.233861822225    -0.304294124165    -0.822809873305    12.000000000000
         C           -3.316726822225    -1.452998124165     0.181715126695    12.000000000000
         C           -1.920611822225    -2.003828124165     0.464738126695    12.000000000000
         C           -0.995692822225    -0.885531124165     0.927394126695    12.000000000000
         C           -2.795369822225     1.664413875835     0.766213126695    12.000000000000
         C            0.105806377775     0.835879875835    -0.384779973305    12.000000000000
         C            1.484340177775     0.317964875835    -0.110948873305    12.000000000000
         C            1.776401177775    -0.944629124165    -0.645055873305    12.000000000000
         C            2.495237177775     1.062147875835     0.508587126695    12.000000000000
         C            3.065490177775    -1.467491124165    -0.533473873305    12.000000000000
         C            3.777502177775     0.528557875835     0.633293126695    12.000000000000
         C            4.065220177775    -0.736512124165     0.113150126695    12.000000000000
         H           -2.081304822225     1.466431875835    -1.230541873305     1.007825032230
         H           -2.882912822225    -0.699072124165    -1.784627873305     1.007825032230
         H           -4.224780822225     0.132762875835    -0.997029873305     1.007825032230
         H           -3.970628822225    -2.243350124165    -0.204515873305     1.007825032230
         H           -3.767444822225    -1.105591124165     1.120019126695     1.007825032230
         H           -1.956375822225    -2.786828124165     1.231987126695     1.007825032230
         H           -1.506816822225    -2.454244124165    -0.446364873305     1.007825032230
         H           -1.348997822225    -0.495540124165     1.894257126695     1.007825032230
         H            0.020494177775    -1.248159124165     1.080376126695     1.007825032230
         H           -3.735526822225     2.145076875835     0.476751126695     1.007825032230
         H           -2.981551822225     1.082408875835     1.672658126695     1.007825032230
         H           -2.064665822225     2.444984875835     0.991326126695     1.007825032230
         H            0.998608177775    -1.501615124165    -1.163965873305     1.007825032230
         H            2.264300177775     2.058049875835     0.878345126695     1.007825032230
         H            3.292490177775    -2.442489124165    -0.958482873305     1.007825032230
         H            4.557582177775     1.103910875835     1.126230126695     1.007825032230
         H            5.067891177775    -1.147506124165     0.203433126695     1.007825032230

  Basis Set: AUG-CC-PVTZ
    Blend: AUG-CC-PVTZ
  Basis Set: (AUG-CC-PVTZ AUX)
    Blend: AUG-CC-PVTZ-JKFIT
	 Reference Energy          =    -631.7031248628579760 [Eh]
	 Singles Energy            =      -0.0000000000000000 [Eh]
	 Same-Spin Energy          =      -0.6905592783472748 [Eh]
	 Opposite-Spin Energy      =      -2.2155615588640498 [Eh]
	 Correlation Energy        =      -2.9061208372113247 [Eh]
	 Total Energy              =    -634.6092457000693230 [Eh]

	 ================> DF-SCS-MP2 Energies <==================
	-----------------------------------------------------------
	 SCS Same-Spin Scale       =       0.3333333333333333 [-]
	 SCS Opposite-Spin Scale   =       1.2000000000000000 [-]
	 SCS Same-Spin Energy      =      -0.2301864261157583 [Eh]
	 SCS Opposite-Spin Energy  =      -2.6586738706368598 [Eh]
	 SCS Correlation Energy    =      -2.8888602967526182 [Eh]
	 SCS Total Energy          =    -634.5919851596105445 [Eh]
	-----------------------------------------------------------

  Dipole Moment: [D]
     X:    -1.4048      Y:    -3.7705      Z:     1.7246     Total:     4.3777

*** Psi4 exiting successfully. Buy a developer a beer!
