                               Psi4 1.3.2 release

  ==> Input File <==

--------------------------------------------------------------------------
#psi4
#
memory 32 gb

molecule  {
0 1
  O        0.1371160     2.1442200    -0.7498900
  N       -0.9353517     0.2515814    -0.0947854
  C       -2.2101840     0.8219870    -0.4048790
  C       -3.1715160    -0.2856370    -0.8447810
  C       -3.2543810    -1.4343410     0.1597440
  C       -1.8582660    -1.9851710     0.4427670
  C       -0.9333470    -0.8668740     0.9054230
  C       -2.7330240     1.6830710     0.7442420
  C        0.2088310     0.9821600    -0.3252730
  C        1.5466860     0.3366220    -0.1329200
  C        1.8387470    -0.9259720    -0.6670270
  C        2.5575830     1.0808050     0.4866160
  C        3.1278360    -1.4488340    -0.5554450
  C        3.8398480     0.5472150     0.6113220
  C        4.1275660    -0.7178550     0.0911790
  H       -2.0189590     1.4850890    -1.2525130
  H       -2.8205670    -0.6804150    -1.8065990
  H       -4.1624350     0.1514200    -1.0190010
  H       -3.9082830    -2.2246930    -0.2264870
  H       -3.7050990    -1.0869340     1.0980480
  H       -1.8940300    -2.7681710     1.2100160
  H       -1.4444710    -2.4355870    -0.4683360
  H       -1.2866520    -0.4768830     1.8722860
  H        0.0828400    -1.2295020     1.0584050
  H       -3.6731810     2.1637340     0.4547800
  H       -2.9192060     1.1010660     1.6506870
  H       -2.0023200     2.4636420     0.9693550
  H        1.0609540    -1.4829580    -1.1859370
  H        2.3266460     2.0767070     0.8563740
  H        3.3548360    -2.4238320    -0.9804540
  H        4.6199280     1.1225680     1.1042590
  H        5.1302370    -1.1288490     0.1814620
units angstrom
no_reorient  #important for SAPT in psi4, default
symmetry c1  #important for SAPT in psi4, default
}

set PROPERTIES_ORIGIN ["COM"]
properties('MP2/aug-cc-pvtz', properties = ['dipole'])
--------------------------------------------------------------------------

    Molecular point group: c1
  Charge       = 0
  Multiplicity = 1
  Basis Set: AUG-CC-PVTZ
    Blend: AUG-CC-PVTZ
  Basis Set: (AUG-CC-PVTZ AUX)
    Blend: AUG-CC-PVTZ-JKFIT

    Orbital Energies [Eh]
    ---------------------

    Doubly Occupied:

       1A    -20.511959     2A    -15.578209     3A    -11.348197
       4A    -11.267484     5A    -11.253882     6A    -11.252393
       7A    -11.250569     8A    -11.248322     9A    -11.246448
      10A    -11.245895    11A    -11.243902    12A    -11.230249
      13A    -11.226253    14A    -11.222405    15A    -11.208733
      16A     -1.368586    17A     -1.245904    18A     -1.161833
      19A     -1.083745    20A     -1.053946    21A     -1.030274
      22A     -1.023798    23A     -0.958182    24A     -0.896111
      25A     -0.868714    26A     -0.838333    27A     -0.832889
      28A     -0.788928    29A     -0.729203    30A     -0.717480
      31A     -0.682199    32A     -0.652779    33A     -0.638645
      34A     -0.628248    35A     -0.625927    36A     -0.607488
      37A     -0.599446    38A     -0.594285    39A     -0.588720
      40A     -0.574580    41A     -0.564484    42A     -0.542015
      43A     -0.526159    44A     -0.519151    45A     -0.507993
      46A     -0.503459    47A     -0.493836    48A     -0.492663
      49A     -0.470060    50A     -0.464940    51A     -0.448155
      52A     -0.421479    53A     -0.364959    54A     -0.345306
      55A     -0.342607

  @DF-RHF Final Energy:  -631.72711635135545

   => Energetics <=

    Nuclear Repulsion Energy =            998.6794154655366356
    One-Electron Energy =               -2840.5482406244850608
    Two-Electron Energy =                1210.1417088075927495
    Total Energy =                       -631.7271163513555621
  Basis Set: (AUG-CC-PVTZ AUX)
    Blend: AUG-CC-PVTZ-RI
    Molecular point group: c1

    Geometry (in Angstrom), charge = 0, multiplicity = 1:

       Center              X                  Y                   Z               Mass
    ------------   -----------------  -----------------  -----------------  -----------------
         O            0.074258106907     2.115420881194    -0.731939826331    15.994914619570
         N           -0.998209593093     0.222782281194    -0.076835226331    14.003074004430
         C           -2.273041893093     0.793187881194    -0.386928826331    12.000000000000
         C           -3.234373893093    -0.314436118806    -0.826830826331    12.000000000000
         C           -3.317238893093    -1.463140118806     0.177694173669    12.000000000000
         C           -1.921123893093    -2.013970118806     0.460717173669    12.000000000000
         C           -0.996204893093    -0.895673118806     0.923373173669    12.000000000000
         C           -2.795881893093     1.654271881194     0.762192173669    12.000000000000
         C            0.145973106907     0.953360881194    -0.307322826331    12.000000000000
         C            1.483828106907     0.307822881194    -0.114969826331    12.000000000000
         C            1.775889106907    -0.954771118806    -0.649076826331    12.000000000000
         C            2.494725106907     1.052005881194     0.504566173669    12.000000000000
         C            3.064978106907    -1.477633118806    -0.537494826331    12.000000000000
         C            3.776990106907     0.518415881194     0.629272173669    12.000000000000
         C            4.064708106907    -0.746654118806     0.109129173669    12.000000000000
         H           -2.081816893093     1.456289881194    -1.234562826331     1.007825032230
         H           -2.883424893093    -0.709214118806    -1.788648826331     1.007825032230
         H           -4.225292893093     0.122620881194    -1.001050826331     1.007825032230
         H           -3.971140893093    -2.253492118806    -0.208536826331     1.007825032230
         H           -3.767956893093    -1.115733118806     1.115998173669     1.007825032230
         H           -1.956887893093    -2.796970118806     1.227966173669     1.007825032230
         H           -1.507328893093    -2.464386118806    -0.450385826331     1.007825032230
         H           -1.349509893093    -0.505682118806     1.890236173669     1.007825032230
         H            0.019982106907    -1.258301118806     1.076355173669     1.007825032230
         H           -3.736038893093     2.134934881194     0.472730173669     1.007825032230
         H           -2.982063893093     1.072266881194     1.668637173669     1.007825032230
         H           -2.065177893093     2.434842881194     0.987305173669     1.007825032230
         H            0.998096106907    -1.511757118806    -1.167986826331     1.007825032230
         H            2.263788106907     2.047907881194     0.874324173669     1.007825032230
         H            3.291978106907    -2.452631118806    -0.962503826331     1.007825032230
         H            4.557070106907     1.093768881194     1.122209173669     1.007825032230
         H            5.067379106907    -1.157648118806     0.199412173669     1.007825032230

  Basis Set: AUG-CC-PVTZ
    Blend: AUG-CC-PVTZ
  Basis Set: (AUG-CC-PVTZ AUX)
    Blend: AUG-CC-PVTZ-JKFIT
	 Reference Energy          =    -631.7271163513554484 [Eh]
	 Singles Energy            =      -0.0000000000000000 [Eh]
	 Same-Spin Energy          =      -0.6886433488895387 [Eh]
	 Opposite-Spin Energy      =      -2.2115834366501486 [Eh]
	 Correlation Energy        =      -2.9002267855396875 [Eh]
	 Total Energy              =    -634.6273431368950924 [Eh]

	 ================> DF-SCS-MP2 Energies <==================
	-----------------------------------------------------------
	 SCS Same-Spin Scale       =       0.3333333333333333 [-]
	 SCS Opposite-Spin Scale   =       1.2000000000000000 [-]
	 SCS Same-Spin Energy      =      -0.2295477829631796 [Eh]
	 SCS Opposite-Spin Energy  =      -2.6539001239801783 [Eh]
	 SCS Correlation Energy    =      -2.8834479069433581 [Eh]
	 SCS Total Energy          =    -634.6105642582988366 [Eh]
	-----------------------------------------------------------

  Dipole Moment: [D]
     X:    -0.7422      Y:    -3.2361      Z:     1.4939     Total:     3.6407

*** Psi4 exiting successfully. Buy a developer a beer!
