                               Psi4 1.3.2 release

  ==> Input File <==

--------------------------------------------------------------------------
#psi4
#
memory 32 gb

molecule  {
0 1
  O        0.1371160     2.1442200    -0.7498900
  N       -0.9079200     0.2138270    -0.0832910
  C       -2.2101840     0.8219870    -0.4048790
  C       -3.1889040    -0.2776287    -0.8261347
  C       -3.2543810    -1.4343410     0.1597440
  C       -1.8582660    -1.9851710     0.4427670
  C       -0.9333470    -0.8668740     0.9054230
  C       -2.7330240     1.6830710     0.7442420
  C        0.2088310     0.9821600    -0.3252730
  C        1.5466860     0.3366220    -0.1329200
  C        1.8387470    -0.9259720    -0.6670270
  C        2.5575830     1.0808050     0.4866160
  C        3.1278360    -1.4488340    -0.5554450
  C        3.8398480     0.5472150     0.6113220
  C        4.1275660    -0.7178550     0.0911790
  H       -2.0189590     1.4850890    -1.2525130
  H       -2.8205670    -0.6804150    -1.8065990
  H       -4.1624350     0.1514200    -1.0190010
  H       -3.9082830    -2.2246930    -0.2264870
  H       -3.7050990    -1.0869340     1.0980480
  H       -1.8940300    -2.7681710     1.2100160
  H       -1.4444710    -2.4355870    -0.4683360
  H       -1.2866520    -0.4768830     1.8722860
  H        0.0828400    -1.2295020     1.0584050
  H       -3.6731810     2.1637340     0.4547800
  H       -2.9192060     1.1010660     1.6506870
  H       -2.0023200     2.4636420     0.9693550
  H        1.0609540    -1.4829580    -1.1859370
  H        2.3266460     2.0767070     0.8563740
  H        3.3548360    -2.4238320    -0.9804540
  H        4.6199280     1.1225680     1.1042590
  H        5.1302370    -1.1288490     0.1814620
units angstrom
no_reorient  #important for SAPT in psi4, default
symmetry c1  #important for SAPT in psi4, default
}

set PROPERTIES_ORIGIN ["COM"]
properties('MP2/aug-cc-pvtz', properties = ['dipole'])
--------------------------------------------------------------------------

    Molecular point group: c1
  Charge       = 0
  Multiplicity = 1
  Basis Set: AUG-CC-PVTZ
    Blend: AUG-CC-PVTZ
  Basis Set: (AUG-CC-PVTZ AUX)
    Blend: AUG-CC-PVTZ-JKFIT

    Orbital Energies [Eh]
    ---------------------

    Doubly Occupied:

       1A    -20.514535     2A    -15.579517     3A    -11.349262
       4A    -11.265247     5A    -11.257836     6A    -11.250706
       7A    -11.249461     8A    -11.247564     9A    -11.245486
      10A    -11.245164    11A    -11.243165    12A    -11.229944
      13A    -11.226211    14A    -11.223512    15A    -11.210281
      16A     -1.368697    17A     -1.246519    18A     -1.160877
      19A     -1.085559    20A     -1.052644    21A     -1.031059
      22A     -1.023080    23A     -0.959330    24A     -0.896847
      25A     -0.866022    26A     -0.837589    27A     -0.833621
      28A     -0.786809    29A     -0.728464    30A     -0.717957
      31A     -0.682026    32A     -0.654921    33A     -0.638544
      34A     -0.627045    35A     -0.626950    36A     -0.606383
      37A     -0.598322    38A     -0.593293    39A     -0.587794
      40A     -0.578240    41A     -0.565878    42A     -0.542472
      43A     -0.526099    44A     -0.520107    45A     -0.507970
      46A     -0.502998    47A     -0.493268    48A     -0.492232
      49A     -0.465937    50A     -0.464555    51A     -0.451795
      52A     -0.421277    53A     -0.368023    54A     -0.344559
      55A     -0.341890

  @DF-RHF Final Energy:  -631.72836437285730

   => Energetics <=

    Nuclear Repulsion Energy =            998.6226499717439538
    One-Electron Energy =               -2840.4309426488216559
    Two-Electron Energy =                1210.0799283042204024
    Total Energy =                       -631.7283643728571860
  Basis Set: (AUG-CC-PVTZ AUX)
    Blend: AUG-CC-PVTZ-RI
    Molecular point group: c1

    Geometry (in Angstrom), charge = 0, multiplicity = 1:

       Center              X                  Y                   Z               Mass
    ------------   -----------------  -----------------  -----------------  -----------------
         O            0.073394269714     2.117550433192    -0.733833739653    15.994914619570
         N           -0.971641730286     0.187157433192    -0.067234739653    14.003074004430
         C           -2.273905730286     0.795317433192    -0.388822739653    12.000000000000
         C           -3.252625730286    -0.304298266808    -0.810078439653    12.000000000000
         C           -3.318102730286    -1.461010566808     0.175800260347    12.000000000000
         C           -1.921987730286    -2.011840566808     0.458823260347    12.000000000000
         C           -0.997068730286    -0.893543566808     0.921479260347    12.000000000000
         C           -2.796745730286     1.656401433192     0.760298260347    12.000000000000
         C            0.145109269714     0.955490433192    -0.309216739653    12.000000000000
         C            1.482964269714     0.309952433192    -0.116863739653    12.000000000000
         C            1.775025269714    -0.952641566808    -0.650970739653    12.000000000000
         C            2.493861269714     1.054135433192     0.502672260347    12.000000000000
         C            3.064114269714    -1.475503566808    -0.539388739653    12.000000000000
         C            3.776126269714     0.520545433192     0.627378260347    12.000000000000
         C            4.063844269714    -0.744524566808     0.107235260347    12.000000000000
         H           -2.082680730286     1.458419433192    -1.236456739653     1.007825032230
         H           -2.884288730286    -0.707084566808    -1.790542739653     1.007825032230
         H           -4.226156730286     0.124750433192    -1.002944739653     1.007825032230
         H           -3.972004730286    -2.251362566808    -0.210430739653     1.007825032230
         H           -3.768820730286    -1.113603566808     1.114104260347     1.007825032230
         H           -1.957751730286    -2.794840566808     1.226072260347     1.007825032230
         H           -1.508192730286    -2.462256566808    -0.452279739653     1.007825032230
         H           -1.350373730286    -0.503552566808     1.888342260347     1.007825032230
         H            0.019118269714    -1.256171566808     1.074461260347     1.007825032230
         H           -3.736902730286     2.137064433192     0.470836260347     1.007825032230
         H           -2.982927730286     1.074396433192     1.666743260347     1.007825032230
         H           -2.066041730286     2.436972433192     0.985411260347     1.007825032230
         H            0.997232269714    -1.509627566808    -1.169880739653     1.007825032230
         H            2.262924269714     2.050037433192     0.872430260347     1.007825032230
         H            3.291114269714    -2.450501566808    -0.964397739653     1.007825032230
         H            4.556206269714     1.095898433192     1.120315260347     1.007825032230
         H            5.066515269714    -1.155518566808     0.197518260347     1.007825032230

  Basis Set: AUG-CC-PVTZ
    Blend: AUG-CC-PVTZ
  Basis Set: (AUG-CC-PVTZ AUX)
    Blend: AUG-CC-PVTZ-JKFIT
	 Reference Energy          =    -631.7283643728572997 [Eh]
	 Singles Energy            =      -0.0000000000000000 [Eh]
	 Same-Spin Energy          =      -0.6886635611211015 [Eh]
	 Opposite-Spin Energy      =      -2.2116542265079020 [Eh]
	 Correlation Energy        =      -2.9003177876290036 [Eh]
	 Total Energy              =    -634.6286821604862780 [Eh]

	 ================> DF-SCS-MP2 Energies <==================
	-----------------------------------------------------------
	 SCS Same-Spin Scale       =       0.3333333333333333 [-]
	 SCS Opposite-Spin Scale   =       1.2000000000000000 [-]
	 SCS Same-Spin Energy      =      -0.2295545203737005 [Eh]
	 SCS Opposite-Spin Energy  =      -2.6539850718094824 [Eh]
	 SCS Correlation Energy    =      -2.8835395921831828 [Eh]
	 SCS Total Energy          =    -634.6119039650404829 [Eh]
	-----------------------------------------------------------

  Dipole Moment: [D]
     X:    -0.8320      Y:    -3.1294      Z:     1.4732     Total:     3.5575

*** Psi4 exiting successfully. Buy a developer a beer!
