                               Psi4 1.3.2 release

  ==> Input File <==

--------------------------------------------------------------------------
#psi4
#
memory 32 gb

molecule  {
0 1
  O        0.1371160     2.1442200    -0.7498900
  N       -0.9079200     0.2138270    -0.0832910
  C       -2.2101840     0.8219870    -0.4048790
  C       -3.2392584    -0.2516044    -0.7694489
  C       -3.2543810    -1.4343410     0.1597440
  C       -1.8582660    -1.9851710     0.4427670
  C       -0.9333470    -0.8668740     0.9054230
  C       -2.7330240     1.6830710     0.7442420
  C        0.2088310     0.9821600    -0.3252730
  C        1.5466860     0.3366220    -0.1329200
  C        1.8387470    -0.9259720    -0.6670270
  C        2.5575830     1.0808050     0.4866160
  C        3.1278360    -1.4488340    -0.5554450
  C        3.8398480     0.5472150     0.6113220
  C        4.1275660    -0.7178550     0.0911790
  H       -2.0189590     1.4850890    -1.2525130
  H       -2.8205670    -0.6804150    -1.8065990
  H       -4.1624350     0.1514200    -1.0190010
  H       -3.9082830    -2.2246930    -0.2264870
  H       -3.7050990    -1.0869340     1.0980480
  H       -1.8940300    -2.7681710     1.2100160
  H       -1.4444710    -2.4355870    -0.4683360
  H       -1.2866520    -0.4768830     1.8722860
  H        0.0828400    -1.2295020     1.0584050
  H       -3.6731810     2.1637340     0.4547800
  H       -2.9192060     1.1010660     1.6506870
  H       -2.0023200     2.4636420     0.9693550
  H        1.0609540    -1.4829580    -1.1859370
  H        2.3266460     2.0767070     0.8563740
  H        3.3548360    -2.4238320    -0.9804540
  H        4.6199280     1.1225680     1.1042590
  H        5.1302370    -1.1288490     0.1814620
units angstrom
no_reorient  #important for SAPT in psi4, default
symmetry c1  #important for SAPT in psi4, default
}

set PROPERTIES_ORIGIN ["COM"]
properties('MP2/aug-cc-pvtz', properties = ['dipole'])
--------------------------------------------------------------------------

    Molecular point group: c1
  Charge       = 0
  Multiplicity = 1
  Basis Set: AUG-CC-PVTZ
    Blend: AUG-CC-PVTZ
  Basis Set: (AUG-CC-PVTZ AUX)
    Blend: AUG-CC-PVTZ-JKFIT

    Orbital Energies [Eh]
    ---------------------

    Doubly Occupied:

       1A    -20.515130     2A    -15.580815     3A    -11.350058
       4A    -11.265884     5A    -11.258952     6A    -11.251008
       7A    -11.249716     8A    -11.247790     9A    -11.245756
      10A    -11.245346    11A    -11.243367    12A    -11.231320
      13A    -11.226924    14A    -11.226208    15A    -11.209109
      16A     -1.369276    17A     -1.247003    18A     -1.161126
      19A     -1.088043    20A     -1.053533    21A     -1.031938
      22A     -1.023311    23A     -0.960109    24A     -0.895906
      25A     -0.867971    26A     -0.838299    27A     -0.834414
      28A     -0.787850    29A     -0.727970    30A     -0.718058
      31A     -0.682660    32A     -0.655884    33A     -0.638866
      34A     -0.629664    35A     -0.624844    36A     -0.607540
      37A     -0.597575    38A     -0.592509    39A     -0.592289
      40A     -0.580163    41A     -0.568778    42A     -0.540991
      43A     -0.526202    44A     -0.522181    45A     -0.508971
      46A     -0.503432    47A     -0.493405    48A     -0.491434
      49A     -0.472631    50A     -0.460143    51A     -0.440139
      52A     -0.421854    53A     -0.367905    54A     -0.344758
      55A     -0.342171

  @DF-RHF Final Energy:  -631.71720179774866

   => Energetics <=

    Nuclear Repulsion Energy =            998.4994837571001653
    One-Electron Energy =               -2840.1150094159947912
    Two-Electron Energy =                1209.8983238611458546
    Total Energy =                       -631.7172017977486576
  Basis Set: (AUG-CC-PVTZ AUX)
    Blend: AUG-CC-PVTZ-RI
    Molecular point group: c1

    Geometry (in Angstrom), charge = 0, multiplicity = 1:

       Center              X                  Y                   Z               Mass
    ------------   -----------------  -----------------  -----------------  -----------------
         O            0.076368964654     2.116013043142    -0.737182463150    15.994914619570
         N           -0.968667035346     0.185620043142    -0.070583463150    14.003074004430
         C           -2.270931035346     0.793780043142    -0.392171463150    12.000000000000
         C           -3.300005435346    -0.279811356858    -0.756741363150    12.000000000000
         C           -3.315128035346    -1.462547956858     0.172451536850    12.000000000000
         C           -1.919013035346    -2.013377956858     0.455474536850    12.000000000000
         C           -0.994094035346    -0.895080956858     0.918130536850    12.000000000000
         C           -2.793771035346     1.654864043142     0.756949536850    12.000000000000
         C            0.148083964654     0.953953043142    -0.312565463150    12.000000000000
         C            1.485938964654     0.308415043142    -0.120212463150    12.000000000000
         C            1.777999964654    -0.954178956858    -0.654319463150    12.000000000000
         C            2.496835964654     1.052598043142     0.499323536850    12.000000000000
         C            3.067088964654    -1.477040956858    -0.542737463150    12.000000000000
         C            3.779100964654     0.519008043142     0.624029536850    12.000000000000
         C            4.066818964654    -0.746061956858     0.103886536850    12.000000000000
         H           -2.079706035346     1.456882043142    -1.239805463150     1.007825032230
         H           -2.881314035346    -0.708621956858    -1.793891463150     1.007825032230
         H           -4.223182035346     0.123213043142    -1.006293463150     1.007825032230
         H           -3.969030035346    -2.252899956858    -0.213779463150     1.007825032230
         H           -3.765846035346    -1.115140956858     1.110755536850     1.007825032230
         H           -1.954777035346    -2.796377956858     1.222723536850     1.007825032230
         H           -1.505218035346    -2.463793956858    -0.455628463150     1.007825032230
         H           -1.347399035346    -0.505089956858     1.884993536850     1.007825032230
         H            0.022092964654    -1.257708956858     1.071112536850     1.007825032230
         H           -3.733928035346     2.135527043142     0.467487536850     1.007825032230
         H           -2.979953035346     1.072859043142     1.663394536850     1.007825032230
         H           -2.063067035346     2.435435043142     0.982062536850     1.007825032230
         H            1.000206964654    -1.511164956858    -1.173229463150     1.007825032230
         H            2.265898964654     2.048500043142     0.869081536850     1.007825032230
         H            3.294088964654    -2.452038956858    -0.967746463150     1.007825032230
         H            4.559180964654     1.094361043142     1.116966536850     1.007825032230
         H            5.069489964654    -1.157055956858     0.194169536850     1.007825032230

  Basis Set: AUG-CC-PVTZ
    Blend: AUG-CC-PVTZ
  Basis Set: (AUG-CC-PVTZ AUX)
    Blend: AUG-CC-PVTZ-JKFIT
	 Reference Energy          =    -631.7172017977486576 [Eh]
	 Singles Energy            =      -0.0000000000000000 [Eh]
	 Same-Spin Energy          =      -0.6889311541783090 [Eh]
	 Opposite-Spin Energy      =      -2.2123143075405958 [Eh]
	 Correlation Energy        =      -2.9012454617189047 [Eh]
	 Total Energy              =    -634.6184472594675299 [Eh]

	 ================> DF-SCS-MP2 Energies <==================
	-----------------------------------------------------------
	 SCS Same-Spin Scale       =       0.3333333333333333 [-]
	 SCS Opposite-Spin Scale   =       1.2000000000000000 [-]
	 SCS Same-Spin Energy      =      -0.2296437180594363 [Eh]
	 SCS Opposite-Spin Energy  =      -2.6547771690487147 [Eh]
	 SCS Correlation Energy    =      -2.8844208871081509 [Eh]
	 SCS Total Energy          =    -634.6016226848568067 [Eh]
	-----------------------------------------------------------

  Dipole Moment: [D]
     X:    -0.8186      Y:    -3.1268      Z:     1.5206     Total:     3.5720

*** Psi4 exiting successfully. Buy a developer a beer!
