                               Psi4 1.3.2 release

  ==> Input File <==

--------------------------------------------------------------------------
#psi4
#
memory 32 gb

molecule  {
0 1
  O        0.1587086     2.1454506    -0.7496181
  N       -0.9079200     0.2138270    -0.0832910
  C       -2.2101840     0.8219870    -0.4048790
  C       -3.1715160    -0.2856370    -0.8447810
  C       -3.2543810    -1.4343410     0.1597440
  C       -1.8582660    -1.9851710     0.4427670
  C       -0.9333470    -0.8668740     0.9054230
  C       -2.7330240     1.6830710     0.7442420
  C        0.2088310     0.9821600    -0.3252730
  C        1.5466860     0.3366220    -0.1329200
  C        1.8387470    -0.9259720    -0.6670270
  C        2.5575830     1.0808050     0.4866160
  C        3.1278360    -1.4488340    -0.5554450
  C        3.8398480     0.5472150     0.6113220
  C        4.1275660    -0.7178550     0.0911790
  H       -2.0189590     1.4850890    -1.2525130
  H       -2.8205670    -0.6804150    -1.8065990
  H       -4.1624350     0.1514200    -1.0190010
  H       -3.9082830    -2.2246930    -0.2264870
  H       -3.7050990    -1.0869340     1.0980480
  H       -1.8940300    -2.7681710     1.2100160
  H       -1.4444710    -2.4355870    -0.4683360
  H       -1.2866520    -0.4768830     1.8722860
  H        0.0828400    -1.2295020     1.0584050
  H       -3.6731810     2.1637340     0.4547800
  H       -2.9192060     1.1010660     1.6506870
  H       -2.0023200     2.4636420     0.9693550
  H        1.0609540    -1.4829580    -1.1859370
  H        2.3266460     2.0767070     0.8563740
  H        3.3548360    -2.4238320    -0.9804540
  H        4.6199280     1.1225680     1.1042590
  H        5.1302370    -1.1288490     0.1814620
units angstrom
no_reorient  #important for SAPT in psi4, default
symmetry c1  #important for SAPT in psi4, default
}

set PROPERTIES_ORIGIN ["COM"]
properties('MP2/aug-cc-pvtz', properties = ['dipole'])
--------------------------------------------------------------------------

    Molecular point group: c1
  Charge       = 0
  Multiplicity = 1
  Basis Set: AUG-CC-PVTZ
    Blend: AUG-CC-PVTZ
  Basis Set: (AUG-CC-PVTZ AUX)
    Blend: AUG-CC-PVTZ-JKFIT

    Orbital Energies [Eh]
    ---------------------

    Doubly Occupied:

       1A    -20.514776     2A    -15.580117     3A    -11.349165
       4A    -11.265609     5A    -11.258466     6A    -11.249820
       7A    -11.248625     8A    -11.246863     9A    -11.244695
      10A    -11.244559    11A    -11.242552    12A    -11.229926
      13A    -11.226680    14A    -11.223469    15A    -11.211351
      16A     -1.368418    17A     -1.247629    18A     -1.160132
      19A     -1.085247    20A     -1.052825    21A     -1.030330
      22A     -1.022424    23A     -0.959707    24A     -0.897653
      25A     -0.865520    26A     -0.837048    27A     -0.833337
      28A     -0.786915    29A     -0.729111    30A     -0.718082
      31A     -0.681594    32A     -0.654759    33A     -0.638555
      34A     -0.627899    35A     -0.626340    36A     -0.606168
      37A     -0.598919    38A     -0.593021    39A     -0.586966
      40A     -0.577968    41A     -0.564975    42A     -0.543222
      43A     -0.526104    44A     -0.519831    45A     -0.507340
      46A     -0.502391    47A     -0.494198    48A     -0.492633
      49A     -0.470369    50A     -0.462941    51A     -0.452086
      52A     -0.420950    53A     -0.368866    54A     -0.343970
      55A     -0.340919

  @DF-RHF Final Energy:  -631.72912368822415

   => Energetics <=

    Nuclear Repulsion Energy =            998.5730175353922959
    One-Electron Energy =               -2840.3362182052014759
    Two-Electron Energy =                1210.0340769815850308
    Total Energy =                       -631.7291236882240355
  Basis Set: (AUG-CC-PVTZ AUX)
    Blend: AUG-CC-PVTZ-RI
    Molecular point group: c1

    Geometry (in Angstrom), charge = 0, multiplicity = 1:

       Center              X                  Y                   Z               Mass
    ------------   -----------------  -----------------  -----------------  -----------------
         O            0.092259429024     2.119157225171    -0.732481716150    15.994914619570
         N           -0.974369170976     0.187533625171    -0.066154616150    14.003074004430
         C           -2.276633170976     0.795693625171    -0.387742616150    12.000000000000
         C           -3.237965170976    -0.311930374829    -0.827644616150    12.000000000000
         C           -3.320830170976    -1.460634374829     0.176880383850    12.000000000000
         C           -1.924715170976    -2.011464374829     0.459903383850    12.000000000000
         C           -0.999796170976    -0.893167374829     0.922559383850    12.000000000000
         C           -2.799473170976     1.656777625171     0.761378383850    12.000000000000
         C            0.142381829024     0.955866625171    -0.308136616150    12.000000000000
         C            1.480236829024     0.310328625171    -0.115783616150    12.000000000000
         C            1.772297829024    -0.952265374829    -0.649890616150    12.000000000000
         C            2.491133829024     1.054511625171     0.503752383850    12.000000000000
         C            3.061386829024    -1.475127374829    -0.538308616150    12.000000000000
         C            3.773398829024     0.520921625171     0.628458383850    12.000000000000
         C            4.061116829024    -0.744148374829     0.108315383850    12.000000000000
         H           -2.085408170976     1.458795625171    -1.235376616150     1.007825032230
         H           -2.887016170976    -0.706708374829    -1.789462616150     1.007825032230
         H           -4.228884170976     0.125126625171    -1.001864616150     1.007825032230
         H           -3.974732170976    -2.250986374829    -0.209350616150     1.007825032230
         H           -3.771548170976    -1.113227374829     1.115184383850     1.007825032230
         H           -1.960479170976    -2.794464374829     1.227152383850     1.007825032230
         H           -1.510920170976    -2.461880374829    -0.451199616150     1.007825032230
         H           -1.353101170976    -0.503176374829     1.889422383850     1.007825032230
         H            0.016390829024    -1.255795374829     1.075541383850     1.007825032230
         H           -3.739630170976     2.137440625171     0.471916383850     1.007825032230
         H           -2.985655170976     1.074772625171     1.667823383850     1.007825032230
         H           -2.068769170976     2.437348625171     0.986491383850     1.007825032230
         H            0.994504829024    -1.509251374829    -1.168800616150     1.007825032230
         H            2.260196829024     2.050413625171     0.873510383850     1.007825032230
         H            3.288386829024    -2.450125374829    -0.963317616150     1.007825032230
         H            4.553478829024     1.096274625171     1.121395383850     1.007825032230
         H            5.063787829024    -1.155142374829     0.198598383850     1.007825032230

  Basis Set: AUG-CC-PVTZ
    Blend: AUG-CC-PVTZ
  Basis Set: (AUG-CC-PVTZ AUX)
    Blend: AUG-CC-PVTZ-JKFIT
	 Reference Energy          =    -631.7291236882241492 [Eh]
	 Singles Energy            =      -0.0000000000000000 [Eh]
	 Same-Spin Energy          =      -0.6886020800974222 [Eh]
	 Opposite-Spin Energy      =      -2.2115925218511814 [Eh]
	 Correlation Energy        =      -2.9001946019486038 [Eh]
	 Total Energy              =    -634.6293182901727050 [Eh]

	 ================> DF-SCS-MP2 Energies <==================
	-----------------------------------------------------------
	 SCS Same-Spin Scale       =       0.3333333333333333 [-]
	 SCS Opposite-Spin Scale   =       1.2000000000000000 [-]
	 SCS Same-Spin Energy      =      -0.2295340266991407 [Eh]
	 SCS Opposite-Spin Energy  =      -2.6539110262214174 [Eh]
	 SCS Correlation Energy    =      -2.8834450529205582 [Eh]
	 SCS Total Energy          =    -634.6125687411447416 [Eh]
	-----------------------------------------------------------

  Dipole Moment: [D]
     X:    -0.9217      Y:    -3.1255      Z:     1.4665     Total:     3.5733

*** Psi4 exiting successfully. Buy a developer a beer!
