                               Psi4 1.4a3.dev225

  ==> Input File <==

--------------------------------------------------------------------------
#psi4
#
memory 32 gb

molecule  {
0 1
  O        0.1371160     2.1442200    -0.7498900
  N       -0.9079200     0.2138270    -0.0832910
  C       -2.2278681     0.8302455    -0.4092460
  C       -3.1715160    -0.2856370    -0.8447810
  C       -3.2543810    -1.4343410     0.1597440
  C       -1.8582660    -1.9851710     0.4427670
  C       -0.9333470    -0.8668740     0.9054230
  C       -2.7330240     1.6830710     0.7442420
  C        0.2088310     0.9821600    -0.3252730
  C        1.5466860     0.3366220    -0.1329200
  C        1.8387470    -0.9259720    -0.6670270
  C        2.5575830     1.0808050     0.4866160
  C        3.1278360    -1.4488340    -0.5554450
  C        3.8398480     0.5472150     0.6113220
  C        4.1275660    -0.7178550     0.0911790
  H       -2.0189590     1.4850890    -1.2525130
  H       -2.8205670    -0.6804150    -1.8065990
  H       -4.1624350     0.1514200    -1.0190010
  H       -3.9082830    -2.2246930    -0.2264870
  H       -3.7050990    -1.0869340     1.0980480
  H       -1.8940300    -2.7681710     1.2100160
  H       -1.4444710    -2.4355870    -0.4683360
  H       -1.2866520    -0.4768830     1.8722860
  H        0.0828400    -1.2295020     1.0584050
  H       -3.6731810     2.1637340     0.4547800
  H       -2.9192060     1.1010660     1.6506870
  H       -2.0023200     2.4636420     0.9693550
  H        1.0609540    -1.4829580    -1.1859370
  H        2.3266460     2.0767070     0.8563740
  H        3.3548360    -2.4238320    -0.9804540
  H        4.6199280     1.1225680     1.1042590
  H        5.1302370    -1.1288490     0.1814620
units angstrom
no_reorient  #important for SAPT in psi4, default
symmetry c1  #important for SAPT in psi4, default
}

set PROPERTIES_ORIGIN ["COM"]
properties('MP2/aug-cc-pvtz', properties = ['dipole'])
--------------------------------------------------------------------------

    Molecular point group: c1
  Charge       = 0
  Multiplicity = 1
  Basis Set: AUG-CC-PVTZ
    Blend: AUG-CC-PVTZ
  Basis Set: (AUG-CC-PVTZ AUX)
    Blend: AUG-CC-PVTZ-JKFIT

    Orbital Energies [Eh]
    ---------------------

    Doubly Occupied:

       1A    -20.513554     2A    -15.578165     3A    -11.348273
       4A    -11.264522     5A    -11.258550     6A    -11.250201
       7A    -11.248985     8A    -11.247166     9A    -11.245042
      10A    -11.244788    11A    -11.242791    12A    -11.229375
      13A    -11.226712    14A    -11.223364    15A    -11.211363
      16A     -1.367356    17A     -1.242883    18A     -1.160396
      19A     -1.085250    20A     -1.052866    21A     -1.030833
      22A     -1.022681    23A     -0.960093    24A     -0.897410
      25A     -0.864090    26A     -0.836997    27A     -0.833374
      28A     -0.785428    29A     -0.729290    30A     -0.716978
      31A     -0.681524    32A     -0.654514    33A     -0.638826
      34A     -0.628123    35A     -0.625807    36A     -0.605339
      37A     -0.599029    38A     -0.593172    39A     -0.585480
      40A     -0.577451    41A     -0.565044    42A     -0.543177
      43A     -0.525376    44A     -0.519860    45A     -0.507038
      46A     -0.502599    47A     -0.494517    48A     -0.492344
      49A     -0.471499    50A     -0.460861    51A     -0.453544
      52A     -0.419867    53A     -0.368122    54A     -0.344168
      55A     -0.341440

  @DF-RHF Final Energy:  -631.72875201075556

   => Energetics <=

    Nuclear Repulsion Energy =            998.3278254066054842
    One-Electron Energy =               -2839.8781612654474884
    Two-Electron Energy =                1209.8215838480864477
    Total Energy =                       -631.7287520107556702
  Basis Set: (AUG-CC-PVTZ AUX)
    Blend: AUG-CC-PVTZ-RI
    Molecular point group: c1

    Geometry (in Angstrom), charge = 0, multiplicity = 1:

       Center              X                  Y                   Z               Mass
    ------------   -----------------  -----------------  -----------------  -----------------
         O            0.073411761873     2.117535652584    -0.732474224952    15.994914619570
         N           -0.971624238127     0.187142652584    -0.065875224952    14.003074004430
         C           -2.291572338127     0.803561152584    -0.391830224952    12.000000000000
         C           -3.235220238127    -0.312321347416    -0.827365224952    12.000000000000
         C           -3.318085238127    -1.461025347416     0.177159775048    12.000000000000
         C           -1.921970238127    -2.011855347416     0.460182775048    12.000000000000
         C           -0.997051238127    -0.893558347416     0.922838775048    12.000000000000
         C           -2.796728238127     1.656386652584     0.761657775048    12.000000000000
         C            0.145126761873     0.955475652584    -0.307857224952    12.000000000000
         C            1.482981761873     0.309937652584    -0.115504224952    12.000000000000
         C            1.775042761873    -0.952656347416    -0.649611224952    12.000000000000
         C            2.493878761873     1.054120652584     0.504031775048    12.000000000000
         C            3.064131761873    -1.475518347416    -0.538029224952    12.000000000000
         C            3.776143761873     0.520530652584     0.628737775048    12.000000000000
         C            4.063861761873    -0.744539347416     0.108594775048    12.000000000000
         H           -2.082663238127     1.458404652584    -1.235097224952     1.007825032230
         H           -2.884271238127    -0.707099347416    -1.789183224952     1.007825032230
         H           -4.226139238127     0.124735652584    -1.001585224952     1.007825032230
         H           -3.971987238127    -2.251377347416    -0.209071224952     1.007825032230
         H           -3.768803238127    -1.113618347416     1.115463775048     1.007825032230
         H           -1.957734238127    -2.794855347416     1.227431775048     1.007825032230
         H           -1.508175238127    -2.462271347416    -0.450920224952     1.007825032230
         H           -1.350356238127    -0.503567347416     1.889701775048     1.007825032230
         H            0.019135761873    -1.256186347416     1.075820775048     1.007825032230
         H           -3.736885238127     2.137049652584     0.472195775048     1.007825032230
         H           -2.982910238127     1.074381652584     1.668102775048     1.007825032230
         H           -2.066024238127     2.436957652584     0.986770775048     1.007825032230
         H            0.997249761873    -1.509642347416    -1.168521224952     1.007825032230
         H            2.262941761873     2.050022652584     0.873789775048     1.007825032230
         H            3.291131761873    -2.450516347416    -0.963038224952     1.007825032230
         H            4.556223761873     1.095883652584     1.121674775048     1.007825032230
         H            5.066532761873    -1.155533347416     0.198877775048     1.007825032230

  Basis Set: AUG-CC-PVTZ
    Blend: AUG-CC-PVTZ
  Basis Set: (AUG-CC-PVTZ AUX)
    Blend: AUG-CC-PVTZ-JKFIT
	 Reference Energy          =    -631.7287520107555565 [Eh]
	 Singles Energy            =      -0.0000000000000000 [Eh]
	 Same-Spin Energy          =      -0.6886167205510600 [Eh]
	 Opposite-Spin Energy      =      -2.2116540901576003 [Eh]
	 Correlation Energy        =      -2.9002708107086601 [Eh]
	 Total Energy              =    -634.6290228214642184 [Eh]

	 ================> DF-SCS-MP2 Energies <==================
	-----------------------------------------------------------
	 SCS Same-Spin Scale       =       0.3333333333333333 [-]
	 SCS Opposite-Spin Scale   =       1.2000000000000000 [-]
	 SCS Same-Spin Energy      =      -0.2295389068503533 [Eh]
	 SCS Opposite-Spin Energy  =      -2.6539849081891203 [Eh]
	 SCS Correlation Energy    =      -2.8835238150394735 [Eh]
	 SCS Total Energy          =    -634.6122758257949954 [Eh]
	-----------------------------------------------------------

  Dipole Moment: [D]
     X:    -0.8985      Y:    -3.1161      Z:     1.4642     Total:     3.5583

*** Psi4 exiting successfully. Buy a developer a beer!
