                               Psi4 1.3.2 release

  ==> Input File <==

--------------------------------------------------------------------------
#psi4
#
memory 32 gb

molecule  {
0 1
  O        0.1371160     2.1442200    -0.7498900
  N       -0.9079200     0.2138270    -0.0832910
  C       -2.2101840     0.8219870    -0.4048790
  C       -3.0612302    -0.3265233    -0.9536489
  C       -3.2543810    -1.4343410     0.1597440
  C       -1.8582660    -1.9851710     0.4427670
  C       -0.9333470    -0.8668740     0.9054230
  C       -2.7330240     1.6830710     0.7442420
  C        0.2088310     0.9821600    -0.3252730
  C        1.5466860     0.3366220    -0.1329200
  C        1.8387470    -0.9259720    -0.6670270
  C        2.5575830     1.0808050     0.4866160
  C        3.1278360    -1.4488340    -0.5554450
  C        3.8398480     0.5472150     0.6113220
  C        4.1275660    -0.7178550     0.0911790
  H       -2.0189590     1.4850890    -1.2525130
  H       -2.8205670    -0.6804150    -1.8065990
  H       -4.1624350     0.1514200    -1.0190010
  H       -3.9082830    -2.2246930    -0.2264870
  H       -3.7050990    -1.0869340     1.0980480
  H       -1.8940300    -2.7681710     1.2100160
  H       -1.4444710    -2.4355870    -0.4683360
  H       -1.2866520    -0.4768830     1.8722860
  H        0.0828400    -1.2295020     1.0584050
  H       -3.6731810     2.1637340     0.4547800
  H       -2.9192060     1.1010660     1.6506870
  H       -2.0023200     2.4636420     0.9693550
  H        1.0609540    -1.4829580    -1.1859370
  H        2.3266460     2.0767070     0.8563740
  H        3.3548360    -2.4238320    -0.9804540
  H        4.6199280     1.1225680     1.1042590
  H        5.1302370    -1.1288490     0.1814620
units angstrom
no_reorient  #important for SAPT in psi4, default
symmetry c1  #important for SAPT in psi4, default
}

set PROPERTIES_ORIGIN ["COM"]
properties('MP2/aug-cc-pvtz', properties = ['dipole'])
--------------------------------------------------------------------------

    Molecular point group: c1
  Charge       = 0
  Multiplicity = 1
  Basis Set: AUG-CC-PVTZ
    Blend: AUG-CC-PVTZ
  Basis Set: (AUG-CC-PVTZ AUX)
    Blend: AUG-CC-PVTZ-JKFIT

    Orbital Energies [Eh]
    ---------------------

    Doubly Occupied:

       1A    -20.513723     2A    -15.577427     3A    -11.348043
       4A    -11.264565     5A    -11.258879     6A    -11.250368
       7A    -11.249183     8A    -11.247319     9A    -11.245193
      10A    -11.245006    11A    -11.242978    12A    -11.229081
      13A    -11.227615    14A    -11.223801    15A    -11.214697
      16A     -1.367996    17A     -1.246593    18A     -1.160635
      19A     -1.080749    20A     -1.052300    21A     -1.029772
      22A     -1.022845    23A     -0.960225    24A     -0.901250
      25A     -0.865181    26A     -0.836675    27A     -0.831085
      28A     -0.791312    29A     -0.735625    30A     -0.717647
      31A     -0.681621    32A     -0.658063    33A     -0.639915
      34A     -0.632810    35A     -0.621561    36A     -0.605777
      37A     -0.603144    38A     -0.593858    39A     -0.583987
      40A     -0.573455    41A     -0.555915    42A     -0.543938
      43A     -0.526870    44A     -0.519238    45A     -0.510172
      46A     -0.505623    47A     -0.501310    48A     -0.493403
      49A     -0.483281    50A     -0.449197    51A     -0.435409
      52A     -0.417988    53A     -0.367917    54A     -0.344386
      55A     -0.341553

  @DF-RHF Final Energy:  -631.69689562712142

   => Energetics <=

    Nuclear Repulsion Energy =            998.9348984170709400
    One-Electron Energy =               -2841.0072713675858722
    Two-Electron Energy =                1210.3754773233933975
    Total Energy =                       -631.6968956271214211
  Basis Set: (AUG-CC-PVTZ AUX)
    Blend: AUG-CC-PVTZ-RI
    Molecular point group: c1

    Geometry (in Angstrom), charge = 0, multiplicity = 1:

       Center              X                  Y                   Z               Mass
    ------------   -----------------  -----------------  -----------------  -----------------
         O            0.065851917768     2.120438890193    -0.726300816105    15.994914619570
         N           -0.979184082232     0.190045890193    -0.059701816105    14.003074004430
         C           -2.281448082232     0.798205890193    -0.381289816105    12.000000000000
         C           -3.132494282232    -0.350304409807    -0.930059716105    12.000000000000
         C           -3.325645082232    -1.458122109807     0.183333183895    12.000000000000
         C           -1.929530082232    -2.008952109807     0.466356183895    12.000000000000
         C           -1.004611082232    -0.890655109807     0.929012183895    12.000000000000
         C           -2.804288082232     1.659289890193     0.767831183895    12.000000000000
         C            0.137566917768     0.958378890193    -0.301683816105    12.000000000000
         C            1.475421917768     0.312840890193    -0.109330816105    12.000000000000
         C            1.767482917768    -0.949753109807    -0.643437816105    12.000000000000
         C            2.486318917768     1.057023890193     0.510205183895    12.000000000000
         C            3.056571917768    -1.472615109807    -0.531855816105    12.000000000000
         C            3.768583917768     0.523433890193     0.634911183895    12.000000000000
         C            4.056301917768    -0.741636109807     0.114768183895    12.000000000000
         H           -2.090223082232     1.461307890193    -1.228923816105     1.007825032230
         H           -2.891831082232    -0.704196109807    -1.783009816105     1.007825032230
         H           -4.233699082232     0.127638890193    -0.995411816105     1.007825032230
         H           -3.979547082232    -2.248474109807    -0.202897816105     1.007825032230
         H           -3.776363082232    -1.110715109807     1.121637183895     1.007825032230
         H           -1.965294082232    -2.791952109807     1.233605183895     1.007825032230
         H           -1.515735082232    -2.459368109807    -0.444746816105     1.007825032230
         H           -1.357916082232    -0.500664109807     1.895875183895     1.007825032230
         H            0.011575917768    -1.253283109807     1.081994183895     1.007825032230
         H           -3.744445082232     2.139952890193     0.478369183895     1.007825032230
         H           -2.990470082232     1.077284890193     1.674276183895     1.007825032230
         H           -2.073584082232     2.439860890193     0.992944183895     1.007825032230
         H            0.989689917768    -1.506739109807    -1.162347816105     1.007825032230
         H            2.255381917768     2.052925890193     0.879963183895     1.007825032230
         H            3.283571917768    -2.447613109807    -0.956864816105     1.007825032230
         H            4.548663917768     1.098786890193     1.127848183895     1.007825032230
         H            5.058972917768    -1.152630109807     0.205051183895     1.007825032230

  Basis Set: AUG-CC-PVTZ
    Blend: AUG-CC-PVTZ
  Basis Set: (AUG-CC-PVTZ AUX)
    Blend: AUG-CC-PVTZ-JKFIT
	 Reference Energy          =    -631.6968956271214211 [Eh]
	 Singles Energy            =      -0.0000000000000000 [Eh]
	 Same-Spin Energy          =      -0.6890401770247174 [Eh]
	 Opposite-Spin Energy      =      -2.2131819611725065 [Eh]
	 Correlation Energy        =      -2.9022221381972240 [Eh]
	 Total Energy              =    -634.5991177653186242 [Eh]

	 ================> DF-SCS-MP2 Energies <==================
	-----------------------------------------------------------
	 SCS Same-Spin Scale       =       0.3333333333333333 [-]
	 SCS Opposite-Spin Scale   =       1.2000000000000000 [-]
	 SCS Same-Spin Energy      =      -0.2296800590082391 [Eh]
	 SCS Opposite-Spin Energy  =      -2.6558183534070077 [Eh]
	 SCS Correlation Energy    =      -2.8854984124152470 [Eh]
	 SCS Total Energy          =    -634.5823940395366662 [Eh]
	-----------------------------------------------------------

  Dipole Moment: [D]
     X:    -0.8038      Y:    -3.1094      Z:     1.4708     Total:     3.5324

*** Psi4 exiting successfully. Buy a developer a beer!
