                               Psi4 1.4a3.dev225

  ==> Input File <==

--------------------------------------------------------------------------
#psi4
#
memory 32 gb

molecule  {
0 1
  O        0.1371160     2.1442200    -0.7498900
  N       -0.9079200     0.2138270    -0.0832910
  C       -2.2101840     0.8219870    -0.4048790
  C       -3.1715160    -0.2856370    -0.8447810
  C       -3.2543810    -1.4343410     0.1597440
  C       -1.8582660    -1.9851710     0.4427670
  C       -0.9333470    -0.8668740     0.9054230
  C       -2.7330240     1.6830710     0.7442420
  C        0.2076736     1.0009137    -0.3321256
  C        1.5466860     0.3366220    -0.1329200
  C        1.8387470    -0.9259720    -0.6670270
  C        2.5575830     1.0808050     0.4866160
  C        3.1278360    -1.4488340    -0.5554450
  C        3.8398480     0.5472150     0.6113220
  C        4.1275660    -0.7178550     0.0911790
  H       -2.0189590     1.4850890    -1.2525130
  H       -2.8205670    -0.6804150    -1.8065990
  H       -4.1624350     0.1514200    -1.0190010
  H       -3.9082830    -2.2246930    -0.2264870
  H       -3.7050990    -1.0869340     1.0980480
  H       -1.8940300    -2.7681710     1.2100160
  H       -1.4444710    -2.4355870    -0.4683360
  H       -1.2866520    -0.4768830     1.8722860
  H        0.0828400    -1.2295020     1.0584050
  H       -3.6731810     2.1637340     0.4547800
  H       -2.9192060     1.1010660     1.6506870
  H       -2.0023200     2.4636420     0.9693550
  H        1.0609540    -1.4829580    -1.1859370
  H        2.3266460     2.0767070     0.8563740
  H        3.3548360    -2.4238320    -0.9804540
  H        4.6199280     1.1225680     1.1042590
  H        5.1302370    -1.1288490     0.1814620
units angstrom
no_reorient  #important for SAPT in psi4, default
symmetry c1  #important for SAPT in psi4, default
}

set PROPERTIES_ORIGIN ["COM"]
properties('MP2/aug-cc-pvtz', properties = ['dipole'])
--------------------------------------------------------------------------

    Molecular point group: c1
  Charge       = 0
  Multiplicity = 1
  Basis Set: AUG-CC-PVTZ
    Blend: AUG-CC-PVTZ
  Basis Set: (AUG-CC-PVTZ AUX)
    Blend: AUG-CC-PVTZ-JKFIT

    Orbital Energies [Eh]
    ---------------------

    Doubly Occupied:

       1A    -20.518641     2A    -15.576432     3A    -11.349054
       4A    -11.264079     5A    -11.256657     6A    -11.250180
       7A    -11.248906     8A    -11.247015     9A    -11.244881
      10A    -11.244766    11A    -11.242772    12A    -11.228778
      13A    -11.225631    14A    -11.222246    15A    -11.210417
      16A     -1.381089    17A     -1.245559    18A     -1.160176
      19A     -1.083155    20A     -1.051386    21A     -1.029715
      22A     -1.022576    23A     -0.957966    24A     -0.895714
      25A     -0.863952    26A     -0.836792    27A     -0.832356
      28A     -0.785321    29A     -0.728079    30A     -0.717298
      31A     -0.682454    32A     -0.654889    33A     -0.637989
      34A     -0.628346    35A     -0.627159    36A     -0.605672
      37A     -0.600176    38A     -0.593381    39A     -0.586855
      40A     -0.577849    41A     -0.564099    42A     -0.544520
      43A     -0.526318    44A     -0.519578    45A     -0.508009
      46A     -0.502576    47A     -0.495421    48A     -0.493062
      49A     -0.470110    50A     -0.462209    51A     -0.450871
      52A     -0.421495    53A     -0.367742    54A     -0.344127
      55A     -0.341718

  @DF-RHF Final Energy:  -631.73018208784242

   => Energetics <=

    Nuclear Repulsion Energy =            998.5968016885979068
    One-Electron Energy =               -2840.3975271230119688
    Two-Electron Energy =                1210.0705433465716396
    Total Energy =                       -631.7301820878424223
  Basis Set: (AUG-CC-PVTZ AUX)
    Blend: AUG-CC-PVTZ-RI
    Molecular point group: c1

    Geometry (in Angstrom), charge = 0, multiplicity = 1:

       Center              X                  Y                   Z               Mass
    ------------   -----------------  -----------------  -----------------  -----------------
         O            0.072435444195     2.116915646818    -0.732327387700    15.994914619570
         N           -0.972600555805     0.186522646818    -0.065728387700    14.003074004430
         C           -2.274864555805     0.794682646818    -0.387316387700    12.000000000000
         C           -3.236196555805    -0.312941353182    -0.827218387700    12.000000000000
         C           -3.319061555805    -1.461645353182     0.177306612300    12.000000000000
         C           -1.922946555805    -2.012475353182     0.460329612300    12.000000000000
         C           -0.998027555805    -0.894178353182     0.922985612300    12.000000000000
         C           -2.797704555805     1.655766646818     0.761804612300    12.000000000000
         C            0.142993044195     0.973609346818    -0.314562987700    12.000000000000
         C            1.482005444195     0.309317646818    -0.115357387700    12.000000000000
         C            1.774066444195    -0.953276353182    -0.649464387700    12.000000000000
         C            2.492902444195     1.053500646818     0.504178612300    12.000000000000
         C            3.063155444195    -1.476138353182    -0.537882387700    12.000000000000
         C            3.775167444195     0.519910646818     0.628884612300    12.000000000000
         C            4.062885444195    -0.745159353182     0.108741612300    12.000000000000
         H           -2.083639555805     1.457784646818    -1.234950387700     1.007825032230
         H           -2.885247555805    -0.707719353182    -1.789036387700     1.007825032230
         H           -4.227115555805     0.124115646818    -1.001438387700     1.007825032230
         H           -3.972963555805    -2.251997353182    -0.208924387700     1.007825032230
         H           -3.769779555805    -1.114238353182     1.115610612300     1.007825032230
         H           -1.958710555805    -2.795475353182     1.227578612300     1.007825032230
         H           -1.509151555805    -2.462891353182    -0.450773387700     1.007825032230
         H           -1.351332555805    -0.504187353182     1.889848612300     1.007825032230
         H            0.018159444195    -1.256806353182     1.075967612300     1.007825032230
         H           -3.737861555805     2.136429646818     0.472342612300     1.007825032230
         H           -2.983886555805     1.073761646818     1.668249612300     1.007825032230
         H           -2.067000555805     2.436337646818     0.986917612300     1.007825032230
         H            0.996273444195    -1.510262353182    -1.168374387700     1.007825032230
         H            2.261965444195     2.049402646818     0.873936612300     1.007825032230
         H            3.290155444195    -2.451136353182    -0.962891387700     1.007825032230
         H            4.555247444195     1.095263646818     1.121821612300     1.007825032230
         H            5.065556444195    -1.156153353182     0.199024612300     1.007825032230

  Basis Set: AUG-CC-PVTZ
    Blend: AUG-CC-PVTZ
  Basis Set: (AUG-CC-PVTZ AUX)
    Blend: AUG-CC-PVTZ-JKFIT
	 Reference Energy          =    -631.7301820878424223 [Eh]
	 Singles Energy            =      -0.0000000000000000 [Eh]
	 Same-Spin Energy          =      -0.6881632226509684 [Eh]
	 Opposite-Spin Energy      =      -2.2107019928994220 [Eh]
	 Correlation Energy        =      -2.8988652155503907 [Eh]
	 Total Energy              =    -634.6290473033927810 [Eh]

	 ================> DF-SCS-MP2 Energies <==================
	-----------------------------------------------------------
	 SCS Same-Spin Scale       =       0.3333333333333333 [-]
	 SCS Opposite-Spin Scale   =       1.2000000000000000 [-]
	 SCS Same-Spin Energy      =      -0.2293877408836561 [Eh]
	 SCS Opposite-Spin Energy  =      -2.6528423914793064 [Eh]
	 SCS Correlation Energy    =      -2.8822301323629627 [Eh]
	 SCS Total Energy          =    -634.6124122202053286 [Eh]
	-----------------------------------------------------------

  Dipole Moment: [D]
     X:    -0.7865      Y:    -3.0049      Z:     1.4128     Total:     3.4123

*** Psi4 exiting successfully. Buy a developer a beer!
