                               Psi4 1.3.2 release

  ==> Input File <==

--------------------------------------------------------------------------
#psi4
#
memory 32 gb

molecule  {
0 1
  O        0.1371160     2.1442200    -0.7498900
  N       -0.9613894     0.2902259    -0.1065606
  C       -2.2101840     0.8219870    -0.4048790
  C       -3.1715160    -0.2856370    -0.8447810
  C       -3.2543810    -1.4343410     0.1597440
  C       -1.8582660    -1.9851710     0.4427670
  C       -0.9333470    -0.8668740     0.9054230
  C       -2.7330240     1.6830710     0.7442420
  C        0.2088310     0.9821600    -0.3252730
  C        1.5466860     0.3366220    -0.1329200
  C        1.8387470    -0.9259720    -0.6670270
  C        2.5575830     1.0808050     0.4866160
  C        3.1278360    -1.4488340    -0.5554450
  C        3.8398480     0.5472150     0.6113220
  C        4.1275660    -0.7178550     0.0911790
  H       -2.0189590     1.4850890    -1.2525130
  H       -2.8205670    -0.6804150    -1.8065990
  H       -4.1624350     0.1514200    -1.0190010
  H       -3.9082830    -2.2246930    -0.2264870
  H       -3.7050990    -1.0869340     1.0980480
  H       -1.8940300    -2.7681710     1.2100160
  H       -1.4444710    -2.4355870    -0.4683360
  H       -1.2866520    -0.4768830     1.8722860
  H        0.0828400    -1.2295020     1.0584050
  H       -3.6731810     2.1637340     0.4547800
  H       -2.9192060     1.1010660     1.6506870
  H       -2.0023200     2.4636420     0.9693550
  H        1.0609540    -1.4829580    -1.1859370
  H        2.3266460     2.0767070     0.8563740
  H        3.3548360    -2.4238320    -0.9804540
  H        4.6199280     1.1225680     1.1042590
  H        5.1302370    -1.1288490     0.1814620
units angstrom
no_reorient  #important for SAPT in psi4, default
symmetry c1  #important for SAPT in psi4, default
}

set PROPERTIES_ORIGIN ["COM"]
properties('MP2/aug-cc-pvtz', properties = ['dipole'])
--------------------------------------------------------------------------

    Molecular point group: c1
  Charge       = 0
  Multiplicity = 1
  Basis Set: AUG-CC-PVTZ
    Blend: AUG-CC-PVTZ
  Basis Set: (AUG-CC-PVTZ AUX)
    Blend: AUG-CC-PVTZ-JKFIT

    Orbital Energies [Eh]
    ---------------------

    Doubly Occupied:

       1A    -20.509642     2A    -15.577128     3A    -11.347718
       4A    -11.269737     5A    -11.254313     6A    -11.251634
       7A    -11.250132     8A    -11.249153     9A    -11.247497
      10A    -11.246675    11A    -11.244698    12A    -11.230962
      13A    -11.226230    14A    -11.221890    15A    -11.206679
      16A     -1.368987    17A     -1.246848    18A     -1.162865
      19A     -1.083005    20A     -1.055205    21A     -1.029699
      22A     -1.024534    23A     -0.957259    24A     -0.895511
      25A     -0.871742    26A     -0.839412    27A     -0.832751
      28A     -0.790918    29A     -0.730106    30A     -0.716508
      31A     -0.682692    32A     -0.651191    33A     -0.639143
      34A     -0.628478    35A     -0.625874    36A     -0.609394
      37A     -0.600024    38A     -0.595342    39A     -0.591090
      40A     -0.570607    41A     -0.564264    42A     -0.541130
      43A     -0.526059    44A     -0.518458    45A     -0.508484
      46A     -0.504096    47A     -0.494048    48A     -0.492545
      49A     -0.470853    50A     -0.466595    51A     -0.444132
      52A     -0.421231    53A     -0.361331    54A     -0.346111
      55A     -0.343412

  @DF-RHF Final Energy:  -631.71978399173736

   => Energetics <=

    Nuclear Repulsion Energy =            998.7127832547764683
    One-Electron Energy =               -2840.5930872385151815
    Two-Electron Energy =                1210.1605199920013547
    Total Energy =                       -631.7197839917373585
  Basis Set: (AUG-CC-PVTZ AUX)
    Blend: AUG-CC-PVTZ-RI
    Molecular point group: c1

    Geometry (in Angstrom), charge = 0, multiplicity = 1:

       Center              X                  Y                   Z               Mass
    ------------   -----------------  -----------------  -----------------  -----------------
         O            0.076053046205     2.112756877395    -0.731128089149    15.994914619570
         N           -1.022452353795     0.258762777395    -0.087798689149    14.003074004430
         C           -2.271246953795     0.790523877395    -0.386117089149    12.000000000000
         C           -3.232578953795    -0.317100122605    -0.826019089149    12.000000000000
         C           -3.315443953795    -1.465804122605     0.178505910851    12.000000000000
         C           -1.919328953795    -2.016634122605     0.461528910851    12.000000000000
         C           -0.994409953795    -0.898337122605     0.924184910851    12.000000000000
         C           -2.794086953795     1.651607877395     0.763003910851    12.000000000000
         C            0.147768046205     0.950696877395    -0.306511089149    12.000000000000
         C            1.485623046205     0.305158877395    -0.114158089149    12.000000000000
         C            1.777684046205    -0.957435122605    -0.648265089149    12.000000000000
         C            2.496520046205     1.049341877395     0.505377910851    12.000000000000
         C            3.066773046205    -1.480297122605    -0.536683089149    12.000000000000
         C            3.778785046205     0.515751877395     0.630083910851    12.000000000000
         C            4.066503046205    -0.749318122605     0.109940910851    12.000000000000
         H           -2.080021953795     1.453625877395    -1.233751089149     1.007825032230
         H           -2.881629953795    -0.711878122605    -1.787837089149     1.007825032230
         H           -4.223497953795     0.119956877395    -1.000239089149     1.007825032230
         H           -3.969345953795    -2.256156122605    -0.207725089149     1.007825032230
         H           -3.766161953795    -1.118397122605     1.116809910851     1.007825032230
         H           -1.955092953795    -2.799634122605     1.228777910851     1.007825032230
         H           -1.505533953795    -2.467050122605    -0.449574089149     1.007825032230
         H           -1.347714953795    -0.508346122605     1.891047910851     1.007825032230
         H            0.021777046205    -1.260965122605     1.077166910851     1.007825032230
         H           -3.734243953795     2.132270877395     0.473541910851     1.007825032230
         H           -2.980268953795     1.069602877395     1.669448910851     1.007825032230
         H           -2.063382953795     2.432178877395     0.988116910851     1.007825032230
         H            0.999891046205    -1.514421122605    -1.167175089149     1.007825032230
         H            2.265583046205     2.045243877395     0.875135910851     1.007825032230
         H            3.293773046205    -2.455295122605    -0.961692089149     1.007825032230
         H            4.558865046205     1.091104877395     1.123020910851     1.007825032230
         H            5.069174046205    -1.160312122605     0.200223910851     1.007825032230

  Basis Set: AUG-CC-PVTZ
    Blend: AUG-CC-PVTZ
  Basis Set: (AUG-CC-PVTZ AUX)
    Blend: AUG-CC-PVTZ-JKFIT
	 Reference Energy          =    -631.7197839917373585 [Eh]
	 Singles Energy            =      -0.0000000000000000 [Eh]
	 Same-Spin Energy          =      -0.6889166680549641 [Eh]
	 Opposite-Spin Energy      =      -2.2120482789471376 [Eh]
	 Correlation Energy        =      -2.9009649470021017 [Eh]
	 Total Energy              =    -634.6207489387394389 [Eh]

	 ================> DF-SCS-MP2 Energies <==================
	-----------------------------------------------------------
	 SCS Same-Spin Scale       =       0.3333333333333333 [-]
	 SCS Opposite-Spin Scale   =       1.2000000000000000 [-]
	 SCS Same-Spin Energy      =      -0.2296388893516547 [Eh]
	 SCS Opposite-Spin Energy  =      -2.6544579347365649 [Eh]
	 SCS Correlation Energy    =      -2.8840968240882194 [Eh]
	 SCS Total Energy          =    -634.6038808158256188 [Eh]
	-----------------------------------------------------------

  Dipole Moment: [D]
     X:    -0.6513      Y:    -3.3411      Z:     1.5202     Total:     3.7280

*** Psi4 exiting successfully. Buy a developer a beer!
