                               Psi4 1.3.2 release

  ==> Input File <==

--------------------------------------------------------------------------
#psi4
#
memory 32 gb

molecule  {
0 1
  O        0.1371160     2.1442200    -0.7498900
  N       -0.9079200     0.2138270    -0.0832910
  C       -2.2101840     0.8219870    -0.4048790
  C       -3.1715160    -0.2856370    -0.8447810
  C       -3.2543810    -1.4343410     0.1597440
  C       -1.8582660    -1.9851710     0.4427670
  C       -0.9333470    -0.8668740     0.9054230
  C       -2.7330240     1.6830710     0.7442420
  C        0.3710361     1.0937583    -0.3604202
  C        1.5466860     0.3366220    -0.1329200
  C        1.8387470    -0.9259720    -0.6670270
  C        2.5575830     1.0808050     0.4866160
  C        3.1278360    -1.4488340    -0.5554450
  C        3.8398480     0.5472150     0.6113220
  C        4.1275660    -0.7178550     0.0911790
  H       -2.0189590     1.4850890    -1.2525130
  H       -2.8205670    -0.6804150    -1.8065990
  H       -4.1624350     0.1514200    -1.0190010
  H       -3.9082830    -2.2246930    -0.2264870
  H       -3.7050990    -1.0869340     1.0980480
  H       -1.8940300    -2.7681710     1.2100160
  H       -1.4444710    -2.4355870    -0.4683360
  H       -1.2866520    -0.4768830     1.8722860
  H        0.0828400    -1.2295020     1.0584050
  H       -3.6731810     2.1637340     0.4547800
  H       -2.9192060     1.1010660     1.6506870
  H       -2.0023200     2.4636420     0.9693550
  H        1.0609540    -1.4829580    -1.1859370
  H        2.3266460     2.0767070     0.8563740
  H        3.3548360    -2.4238320    -0.9804540
  H        4.6199280     1.1225680     1.1042590
  H        5.1302370    -1.1288490     0.1814620
units angstrom
no_reorient  #important for SAPT in psi4, default
symmetry c1  #important for SAPT in psi4, default
}

set PROPERTIES_ORIGIN ["COM"]
properties('MP2/aug-cc-pvtz', properties = ['dipole'])
--------------------------------------------------------------------------

    Molecular point group: c1
  Charge       = 0
  Multiplicity = 1
  Basis Set: AUG-CC-PVTZ
    Blend: AUG-CC-PVTZ
  Basis Set: (AUG-CC-PVTZ AUX)
    Blend: AUG-CC-PVTZ-JKFIT

    Orbital Energies [Eh]
    ---------------------

    Doubly Occupied:

       1A    -20.547941     2A    -15.541055     3A    -11.356038
       4A    -11.262075     5A    -11.258106     6A    -11.256762
       7A    -11.253941     8A    -11.253344     9A    -11.250995
      10A    -11.243905    11A    -11.241456    12A    -11.215180
      13A    -11.214342    14A    -11.210485    15A    -11.199569
      16A     -1.443860    17A     -1.203986    18A     -1.172946
      19A     -1.069140    20A     -1.046657    21A     -1.033928
      22A     -1.027276    23A     -0.937797    24A     -0.895077
      25A     -0.854465    26A     -0.846113    27A     -0.821273
      28A     -0.775798    29A     -0.726740    30A     -0.706602
      31A     -0.692476    32A     -0.672197    33A     -0.647035
      34A     -0.628465    35A     -0.621150    36A     -0.606670
      37A     -0.602164    38A     -0.591585    39A     -0.587432
      40A     -0.565218    41A     -0.553241    42A     -0.551335
      43A     -0.531706    44A     -0.516241    45A     -0.510128
      46A     -0.509013    47A     -0.502682    48A     -0.480490
      49A     -0.461999    50A     -0.455529    51A     -0.438530
      52A     -0.410791    53A     -0.357817    54A     -0.352651
      55A     -0.334965

  @DF-RHF Final Energy:  -631.69152994634612

   => Energetics <=

    Nuclear Repulsion Energy =            997.6064784424665959
    One-Electron Energy =               -2838.4992918846119210
    Two-Electron Energy =                1209.2012834957990890
    Total Energy =                       -631.6915299463462361
  Basis Set: (AUG-CC-PVTZ AUX)
    Blend: AUG-CC-PVTZ-RI
    Molecular point group: c1

    Geometry (in Angstrom), charge = 0, multiplicity = 1:

       Center              X                  Y                   Z               Mass
    ------------   -----------------  -----------------  -----------------  -----------------
         O            0.062784776088     2.111430835921    -0.730655879283    15.994914619570
         N           -0.982251223912     0.181037835921    -0.064056879283    14.003074004430
         C           -2.284515223912     0.789197835921    -0.385644879283    12.000000000000
         C           -3.245847223912    -0.318426164079    -0.825546879283    12.000000000000
         C           -3.328712223912    -1.467130164079     0.178978120717    12.000000000000
         C           -1.932597223912    -2.017960164079     0.462001120717    12.000000000000
         C           -1.007678223912    -0.899663164079     0.924657120717    12.000000000000
         C           -2.807355223912     1.650281835921     0.763476120717    12.000000000000
         C            0.296704876088     1.060969135921    -0.341186079283    12.000000000000
         C            1.472354776088     0.303832835921    -0.113685879283    12.000000000000
         C            1.764415776088    -0.958761164079    -0.647792879283    12.000000000000
         C            2.483251776088     1.048015835921     0.505850120717    12.000000000000
         C            3.053504776088    -1.481623164079    -0.536210879283    12.000000000000
         C            3.765516776088     0.514425835921     0.630556120717    12.000000000000
         C            4.053234776088    -0.750644164079     0.110413120717    12.000000000000
         H           -2.093290223912     1.452299835921    -1.233278879283     1.007825032230
         H           -2.894898223912    -0.713204164079    -1.787364879283     1.007825032230
         H           -4.236766223912     0.118630835921    -0.999766879283     1.007825032230
         H           -3.982614223912    -2.257482164079    -0.207252879283     1.007825032230
         H           -3.779430223912    -1.119723164079     1.117282120717     1.007825032230
         H           -1.968361223912    -2.800960164079     1.229250120717     1.007825032230
         H           -1.518802223912    -2.468376164079    -0.449101879283     1.007825032230
         H           -1.360983223912    -0.509672164079     1.891520120717     1.007825032230
         H            0.008508776088    -1.262291164079     1.077639120717     1.007825032230
         H           -3.747512223912     2.130944835921     0.474014120717     1.007825032230
         H           -2.993537223912     1.068276835921     1.669921120717     1.007825032230
         H           -2.076651223912     2.430852835921     0.988589120717     1.007825032230
         H            0.986622776088    -1.515747164079    -1.166702879283     1.007825032230
         H            2.252314776088     2.043917835921     0.875608120717     1.007825032230
         H            3.280504776088    -2.456621164079    -0.961219879283     1.007825032230
         H            4.545596776088     1.089778835921     1.123493120717     1.007825032230
         H            5.055905776088    -1.161638164079     0.200696120717     1.007825032230

  Basis Set: AUG-CC-PVTZ
    Blend: AUG-CC-PVTZ
  Basis Set: (AUG-CC-PVTZ AUX)
    Blend: AUG-CC-PVTZ-JKFIT
	 Reference Energy          =    -631.6915299463461224 [Eh]
	 Singles Energy            =      -0.0000000000000000 [Eh]
	 Same-Spin Energy          =      -0.6888721265730030 [Eh]
	 Opposite-Spin Energy      =      -2.2119455954604734 [Eh]
	 Correlation Energy        =      -2.9008177220334765 [Eh]
	 Total Energy              =    -634.5923476683796025 [Eh]

	 ================> DF-SCS-MP2 Energies <==================
	-----------------------------------------------------------
	 SCS Same-Spin Scale       =       0.3333333333333333 [-]
	 SCS Opposite-Spin Scale   =       1.2000000000000000 [-]
	 SCS Same-Spin Energy      =      -0.2296240421910010 [Eh]
	 SCS Opposite-Spin Energy  =      -2.6543347145525682 [Eh]
	 SCS Correlation Energy    =      -2.8839587567435694 [Eh]
	 SCS Total Energy          =    -634.5754887030897180 [Eh]
	-----------------------------------------------------------

  Dipole Moment: [D]
     X:     1.1475      Y:    -2.2095      Z:     0.9750     Total:     2.6738

*** Psi4 exiting successfully. Buy a developer a beer!
