                               Psi4 1.3.2 release

  ==> Input File <==

--------------------------------------------------------------------------
#psi4
#
memory 32 gb

molecule  {
0 1
  O        0.1371160     2.1442200    -0.7498900
  N       -0.9079200     0.2138270    -0.0832910
  C       -2.2955929     0.8520068    -0.4612839
  C       -3.1715160    -0.2856370    -0.8447810
  C       -3.2543810    -1.4343410     0.1597440
  C       -1.8582660    -1.9851710     0.4427670
  C       -0.9333470    -0.8668740     0.9054230
  C       -2.7330240     1.6830710     0.7442420
  C        0.2088310     0.9821600    -0.3252730
  C        1.5466860     0.3366220    -0.1329200
  C        1.8387470    -0.9259720    -0.6670270
  C        2.5575830     1.0808050     0.4866160
  C        3.1278360    -1.4488340    -0.5554450
  C        3.8398480     0.5472150     0.6113220
  C        4.1275660    -0.7178550     0.0911790
  H       -2.0189590     1.4850890    -1.2525130
  H       -2.8205670    -0.6804150    -1.8065990
  H       -4.1624350     0.1514200    -1.0190010
  H       -3.9082830    -2.2246930    -0.2264870
  H       -3.7050990    -1.0869340     1.0980480
  H       -1.8940300    -2.7681710     1.2100160
  H       -1.4444710    -2.4355870    -0.4683360
  H       -1.2866520    -0.4768830     1.8722860
  H        0.0828400    -1.2295020     1.0584050
  H       -3.6731810     2.1637340     0.4547800
  H       -2.9192060     1.1010660     1.6506870
  H       -2.0023200     2.4636420     0.9693550
  H        1.0609540    -1.4829580    -1.1859370
  H        2.3266460     2.0767070     0.8563740
  H        3.3548360    -2.4238320    -0.9804540
  H        4.6199280     1.1225680     1.1042590
  H        5.1302370    -1.1288490     0.1814620
units angstrom
no_reorient  #important for SAPT in psi4, default
symmetry c1  #important for SAPT in psi4, default
}

set PROPERTIES_ORIGIN ["COM"]
properties('MP2/aug-cc-pvtz', properties = ['dipole'])
--------------------------------------------------------------------------

    Molecular point group: c1
  Charge       = 0
  Multiplicity = 1
  Basis Set: AUG-CC-PVTZ
    Blend: AUG-CC-PVTZ
  Basis Set: (AUG-CC-PVTZ AUX)
    Blend: AUG-CC-PVTZ-JKFIT

    Orbital Energies [Eh]
    ---------------------

    Doubly Occupied:

       1A    -20.510199     2A    -15.573044     3A    -11.344901
       4A    -11.263366     5A    -11.262479     6A    -11.248322
       7A    -11.247165     8A    -11.245697     9A    -11.243410
      10A    -11.243310    11A    -11.241353    12A    -11.229672
      13A    -11.228890    14A    -11.225122    15A    -11.214633
      16A     -1.362831    17A     -1.229925    18A     -1.158593
      19A     -1.088693    20A     -1.053592    21A     -1.030217
      22A     -1.021172    23A     -0.960469    24A     -0.899243
      25A     -0.859346    26A     -0.837393    27A     -0.833601
      28A     -0.780333    29A     -0.731651    30A     -0.713834
      31A     -0.680509    32A     -0.654061    33A     -0.640647
      34A     -0.629424    35A     -0.623966    36A     -0.601265
      37A     -0.598864    38A     -0.591695    39A     -0.582446
      40A     -0.576559    41A     -0.565863    42A     -0.544632
      43A     -0.524898    44A     -0.522253    45A     -0.505475
      46A     -0.501251    47A     -0.493176    48A     -0.489964
      49A     -0.479067    50A     -0.463296    51A     -0.453534
      52A     -0.414712    53A     -0.365313    54A     -0.342681
      55A     -0.339740

  @DF-RHF Final Energy:  -631.71927340316267

   => Energetics <=

    Nuclear Repulsion Energy =            996.8702306269599376
    One-Electron Energy =               -2837.0435151062602017
    Two-Electron Energy =                1208.4540110761377036
    Total Energy =                       -631.7192734031625605
  Basis Set: (AUG-CC-PVTZ AUX)
    Blend: AUG-CC-PVTZ-RI
    Molecular point group: c1

    Geometry (in Angstrom), charge = 0, multiplicity = 1:

       Center              X                  Y                   Z               Mass
    ------------   -----------------  -----------------  -----------------  -----------------
         O            0.077412616214     2.116250100001    -0.729400076957    15.994914619570
         N           -0.967623383786     0.185857100001    -0.062801076957    14.003074004430
         C           -2.355296283786     0.824036900001    -0.440793976957    12.000000000000
         C           -3.231219383786    -0.313606899999    -0.824291076957    12.000000000000
         C           -3.314084383786    -1.462310899999     0.180233923043    12.000000000000
         C           -1.917969383786    -2.013140899999     0.463256923043    12.000000000000
         C           -0.993050383786    -0.894843899999     0.925912923043    12.000000000000
         C           -2.792727383786     1.655101100001     0.764731923043    12.000000000000
         C            0.149127616214     0.954190100001    -0.304783076957    12.000000000000
         C            1.486982616214     0.308652100001    -0.112430076957    12.000000000000
         C            1.779043616214    -0.953941899999    -0.646537076957    12.000000000000
         C            2.497879616214     1.052835100001     0.507105923043    12.000000000000
         C            3.068132616214    -1.476803899999    -0.534955076957    12.000000000000
         C            3.780144616214     0.519245100001     0.631811923043    12.000000000000
         C            4.067862616214    -0.745824899999     0.111668923043    12.000000000000
         H           -2.078662383786     1.457119100001    -1.232023076957     1.007825032230
         H           -2.880270383786    -0.708384899999    -1.786109076957     1.007825032230
         H           -4.222138383786     0.123450100001    -0.998511076957     1.007825032230
         H           -3.967986383786    -2.252662899999    -0.205997076957     1.007825032230
         H           -3.764802383786    -1.114903899999     1.118537923043     1.007825032230
         H           -1.953733383786    -2.796140899999     1.230505923043     1.007825032230
         H           -1.504174383786    -2.463556899999    -0.447846076957     1.007825032230
         H           -1.346355383786    -0.504852899999     1.892775923043     1.007825032230
         H            0.023136616214    -1.257471899999     1.078894923043     1.007825032230
         H           -3.732884383786     2.135764100001     0.475269923043     1.007825032230
         H           -2.978909383786     1.073096100001     1.671176923043     1.007825032230
         H           -2.062023383786     2.435672100001     0.989844923043     1.007825032230
         H            1.001250616214    -1.510927899999    -1.165447076957     1.007825032230
         H            2.266942616214     2.048737100001     0.876863923043     1.007825032230
         H            3.295132616214    -2.451801899999    -0.959964076957     1.007825032230
         H            4.560224616214     1.094598100001     1.124748923043     1.007825032230
         H            5.070533616214    -1.156818899999     0.201951923043     1.007825032230

  Basis Set: AUG-CC-PVTZ
    Blend: AUG-CC-PVTZ
  Basis Set: (AUG-CC-PVTZ AUX)
    Blend: AUG-CC-PVTZ-JKFIT
	 Reference Energy          =    -631.7192734031626742 [Eh]
	 Singles Energy            =      -0.0000000000000000 [Eh]
	 Same-Spin Energy          =      -0.6887738453286519 [Eh]
	 Opposite-Spin Energy      =      -2.2122939671237631 [Eh]
	 Correlation Energy        =      -2.9010678124524150 [Eh]
	 Total Energy              =    -634.6203412156150989 [Eh]

	 ================> DF-SCS-MP2 Energies <==================
	-----------------------------------------------------------
	 SCS Same-Spin Scale       =       0.3333333333333333 [-]
	 SCS Opposite-Spin Scale   =       1.2000000000000000 [-]
	 SCS Same-Spin Energy      =      -0.2295912817762173 [Eh]
	 SCS Opposite-Spin Energy  =      -2.6547527605485155 [Eh]
	 SCS Correlation Energy    =      -2.8843440423247326 [Eh]
	 SCS Total Energy          =    -634.6036174454874299 [Eh]
	-----------------------------------------------------------

  Dipole Moment: [D]
     X:    -1.1712      Y:    -3.1126      Z:     1.4317     Total:     3.6208

*** Psi4 exiting successfully. Buy a developer a beer!
