                               Psi4 1.3.2 release

  ==> Input File <==

--------------------------------------------------------------------------
#psi4
#
memory 32 gb

molecule  {
0 1
  O        0.1371160     2.1442200    -0.7498900
  N       -0.9079200     0.2138270    -0.0832910
  C       -2.2101840     0.8219870    -0.4048790
  C       -3.1715160    -0.2856370    -0.8447810
  C       -3.2543810    -1.4343410     0.1597440
  C       -1.8582660    -1.9851710     0.4427670
  C       -0.9333470    -0.8668740     0.9054230
  C       -2.7330240     1.6830710     0.7442420
  C        0.1936174     0.9403373    -0.3527112
  C        1.5466860     0.3366220    -0.1329200
  C        1.8387470    -0.9259720    -0.6670270
  C        2.5575830     1.0808050     0.4866160
  C        3.1278360    -1.4488340    -0.5554450
  C        3.8398480     0.5472150     0.6113220
  C        4.1275660    -0.7178550     0.0911790
  H       -2.0189590     1.4850890    -1.2525130
  H       -2.8205670    -0.6804150    -1.8065990
  H       -4.1624350     0.1514200    -1.0190010
  H       -3.9082830    -2.2246930    -0.2264870
  H       -3.7050990    -1.0869340     1.0980480
  H       -1.8940300    -2.7681710     1.2100160
  H       -1.4444710    -2.4355870    -0.4683360
  H       -1.2866520    -0.4768830     1.8722860
  H        0.0828400    -1.2295020     1.0584050
  H       -3.6731810     2.1637340     0.4547800
  H       -2.9192060     1.1010660     1.6506870
  H       -2.0023200     2.4636420     0.9693550
  H        1.0609540    -1.4829580    -1.1859370
  H        2.3266460     2.0767070     0.8563740
  H        3.3548360    -2.4238320    -0.9804540
  H        4.6199280     1.1225680     1.1042590
  H        5.1302370    -1.1288490     0.1814620
units angstrom
no_reorient  #important for SAPT in psi4, default
symmetry c1  #important for SAPT in psi4, default
}

set PROPERTIES_ORIGIN ["COM"]
properties('MP2/aug-cc-pvtz', properties = ['dipole'])
--------------------------------------------------------------------------

    Molecular point group: c1
  Charge       = 0
  Multiplicity = 1
  Basis Set: AUG-CC-PVTZ
    Blend: AUG-CC-PVTZ
  Basis Set: (AUG-CC-PVTZ AUX)
    Blend: AUG-CC-PVTZ-JKFIT

    Orbital Energies [Eh]
    ---------------------

    Doubly Occupied:

       1A    -20.506207     2A    -15.584676     3A    -11.348125
       4A    -11.268433     5A    -11.260115     6A    -11.250590
       7A    -11.248719     8A    -11.247153     9A    -11.245418
      10A    -11.244571    11A    -11.242942    12A    -11.231617
      13A    -11.227996    14A    -11.224715    15A    -11.211994
      16A     -1.352937    17A     -1.249116    18A     -1.160326
      19A     -1.088884    20A     -1.054735    21A     -1.030680
      22A     -1.022607    23A     -0.963070    24A     -0.900696
      25A     -0.867496    26A     -0.836950    27A     -0.834742
      28A     -0.790322    29A     -0.729743    30A     -0.719854
      31A     -0.680589    32A     -0.655716    33A     -0.639454
      34A     -0.629102    35A     -0.623991    36A     -0.608492
      37A     -0.597617    38A     -0.592735    39A     -0.587152
      40A     -0.576137    41A     -0.565430    42A     -0.541492
      43A     -0.526056    44A     -0.519711    45A     -0.506074
      46A     -0.502336    47A     -0.495787    48A     -0.489526
      49A     -0.469510    50A     -0.463639    51A     -0.453790
      52A     -0.416754    53A     -0.368917    54A     -0.344232
      55A     -0.340822

  @DF-RHF Final Energy:  -631.72520551712682

   => Energetics <=

    Nuclear Repulsion Energy =            998.8460823413786329
    One-Electron Energy =               -2840.8615974882491173
    Two-Electron Energy =                1210.2903096297436605
    Total Energy =                       -631.7252055171268239
  Basis Set: (AUG-CC-PVTZ AUX)
    Blend: AUG-CC-PVTZ-RI
    Molecular point group: c1

    Geometry (in Angstrom), charge = 0, multiplicity = 1:

       Center              X                  Y                   Z               Mass
    ------------   -----------------  -----------------  -----------------  -----------------
         O            0.073265816655     2.120494208186    -0.731111289799    15.994914619570
         N           -0.971770183345     0.190101208186    -0.064512289799    14.003074004430
         C           -2.274034183345     0.798261208186    -0.386100289799    12.000000000000
         C           -3.235366183345    -0.309362791814    -0.826002289799    12.000000000000
         C           -3.318231183345    -1.458066791814     0.178522710201    12.000000000000
         C           -1.922116183345    -2.008896791814     0.461545710201    12.000000000000
         C           -0.997197183345    -0.890599791814     0.924201710201    12.000000000000
         C           -2.796874183345     1.659345208186     0.763020710201    12.000000000000
         C            0.129767216655     0.916611508186    -0.333932489799    12.000000000000
         C            1.482835816655     0.312896208186    -0.114141289799    12.000000000000
         C            1.774896816655    -0.949697791814    -0.648248289799    12.000000000000
         C            2.493732816655     1.057079208186     0.505394710201    12.000000000000
         C            3.063985816655    -1.472559791814    -0.536666289799    12.000000000000
         C            3.775997816655     0.523489208186     0.630100710201    12.000000000000
         C            4.063715816655    -0.741580791814     0.109957710201    12.000000000000
         H           -2.082809183345     1.461363208186    -1.233734289799     1.007825032230
         H           -2.884417183345    -0.704140791814    -1.787820289799     1.007825032230
         H           -4.226285183345     0.127694208186    -1.000222289799     1.007825032230
         H           -3.972133183345    -2.248418791814    -0.207708289799     1.007825032230
         H           -3.768949183345    -1.110659791814     1.116826710201     1.007825032230
         H           -1.957880183345    -2.791896791814     1.228794710201     1.007825032230
         H           -1.508321183345    -2.459312791814    -0.449557289799     1.007825032230
         H           -1.350502183345    -0.500608791814     1.891064710201     1.007825032230
         H            0.018989816655    -1.253227791814     1.077183710201     1.007825032230
         H           -3.737031183345     2.140008208186     0.473558710201     1.007825032230
         H           -2.983056183345     1.077340208186     1.669465710201     1.007825032230
         H           -2.066170183345     2.439916208186     0.988133710201     1.007825032230
         H            0.997103816655    -1.506683791814    -1.167158289799     1.007825032230
         H            2.262795816655     2.052981208186     0.875152710201     1.007825032230
         H            3.290985816655    -2.447557791814    -0.961675289799     1.007825032230
         H            4.556077816655     1.098842208186     1.123037710201     1.007825032230
         H            5.066386816655    -1.152574791814     0.200240710201     1.007825032230

  Basis Set: AUG-CC-PVTZ
    Blend: AUG-CC-PVTZ
  Basis Set: (AUG-CC-PVTZ AUX)
    Blend: AUG-CC-PVTZ-JKFIT
	 Reference Energy          =    -631.7252055171268239 [Eh]
	 Singles Energy            =      -0.0000000000000000 [Eh]
	 Same-Spin Energy          =      -0.6891724746451235 [Eh]
	 Opposite-Spin Energy      =      -2.2126334672433501 [Eh]
	 Correlation Energy        =      -2.9018059418884734 [Eh]
	 Total Energy              =    -634.6270114590153071 [Eh]

	 ================> DF-SCS-MP2 Energies <==================
	-----------------------------------------------------------
	 SCS Same-Spin Scale       =       0.3333333333333333 [-]
	 SCS Opposite-Spin Scale   =       1.2000000000000000 [-]
	 SCS Same-Spin Energy      =      -0.2297241582150412 [Eh]
	 SCS Opposite-Spin Energy  =      -2.6551601606920201 [Eh]
	 SCS Correlation Energy    =      -2.8848843189070612 [Eh]
	 SCS Total Energy          =    -634.6100898360339215 [Eh]
	-----------------------------------------------------------

  Dipole Moment: [D]
     X:    -1.0371      Y:    -3.3467      Z:     1.5458     Total:     3.8295

*** Psi4 exiting successfully. Buy a developer a beer!
