                               Psi4 1.3.2 release

  ==> Input File <==

--------------------------------------------------------------------------
#psi4
#
memory 32 gb

molecule  {
0 1
  O        0.1371160     2.1442200    -0.7498900
  N       -0.9079200     0.2138270    -0.0832910
  C       -2.1217636     0.7806945    -0.3830440
  C       -3.1715160    -0.2856370    -0.8447810
  C       -3.2543810    -1.4343410     0.1597440
  C       -1.8582660    -1.9851710     0.4427670
  C       -0.9333470    -0.8668740     0.9054230
  C       -2.7330240     1.6830710     0.7442420
  C        0.2088310     0.9821600    -0.3252730
  C        1.5466860     0.3366220    -0.1329200
  C        1.8387470    -0.9259720    -0.6670270
  C        2.5575830     1.0808050     0.4866160
  C        3.1278360    -1.4488340    -0.5554450
  C        3.8398480     0.5472150     0.6113220
  C        4.1275660    -0.7178550     0.0911790
  H       -2.0189590     1.4850890    -1.2525130
  H       -2.8205670    -0.6804150    -1.8065990
  H       -4.1624350     0.1514200    -1.0190010
  H       -3.9082830    -2.2246930    -0.2264870
  H       -3.7050990    -1.0869340     1.0980480
  H       -1.8940300    -2.7681710     1.2100160
  H       -1.4444710    -2.4355870    -0.4683360
  H       -1.2866520    -0.4768830     1.8722860
  H        0.0828400    -1.2295020     1.0584050
  H       -3.6731810     2.1637340     0.4547800
  H       -2.9192060     1.1010660     1.6506870
  H       -2.0023200     2.4636420     0.9693550
  H        1.0609540    -1.4829580    -1.1859370
  H        2.3266460     2.0767070     0.8563740
  H        3.3548360    -2.4238320    -0.9804540
  H        4.6199280     1.1225680     1.1042590
  H        5.1302370    -1.1288490     0.1814620
units angstrom
no_reorient  #important for SAPT in psi4, default
symmetry c1  #important for SAPT in psi4, default
}

set PROPERTIES_ORIGIN ["COM"]
properties('MP2/aug-cc-pvtz', properties = ['dipole'])
--------------------------------------------------------------------------

    Molecular point group: c1
  Charge       = 0
  Multiplicity = 1
  Basis Set: AUG-CC-PVTZ
    Blend: AUG-CC-PVTZ
  Basis Set: (AUG-CC-PVTZ AUX)
    Blend: AUG-CC-PVTZ-JKFIT

    Orbital Energies [Eh]
    ---------------------

    Doubly Occupied:

       1A    -20.518543     2A    -15.582529     3A    -11.352632
       4A    -11.267844     5A    -11.254949     6A    -11.252654
       7A    -11.251337     8A    -11.249117     9A    -11.247191
      10A    -11.246697    11A    -11.244650    12A    -11.230438
      13A    -11.224202    14A    -11.221496    15A    -11.208009
      16A     -1.375366    17A     -1.266903    18A     -1.162834
      19A     -1.083560    20A     -1.051726    21A     -1.029307
      22A     -1.024522    23A     -0.954783    24A     -0.897875
      25A     -0.873639    26A     -0.839445    27A     -0.832889
      28A     -0.793821    29A     -0.728558    30A     -0.721621
      31A     -0.683746    32A     -0.656851    33A     -0.638085
      34A     -0.629745    35A     -0.625903    36A     -0.610391
      37A     -0.598688    38A     -0.595171    39A     -0.594005
      40A     -0.576858    41A     -0.561549    42A     -0.542204
      43A     -0.529643    44A     -0.519610    45A     -0.508979
      46A     -0.504294    47A     -0.494023    48A     -0.490143
      49A     -0.468124    50A     -0.462554    51A     -0.438380
      52A     -0.426198    53A     -0.364000    54A     -0.346140
      55A     -0.343511

  @DF-RHF Final Energy:  -631.71904910273236

   => Energetics <=

    Nuclear Repulsion Energy =           1000.3993911458223920
    One-Electron Energy =               -2843.8410209184416999
    Two-Electron Energy =                1211.7225806698868382
    Total Energy =                       -631.7190491027324697
  Basis Set: (AUG-CC-PVTZ AUX)
    Blend: AUG-CC-PVTZ-RI
    Molecular point group: c1

    Geometry (in Angstrom), charge = 0, multiplicity = 1:

       Center              X                  Y                   Z               Mass
    ------------   -----------------  -----------------  -----------------  -----------------
         O            0.067143620077     2.120462886529    -0.734022112661    15.994914619570
         N           -0.977892379923     0.190069886529    -0.067423112661    14.003074004430
         C           -2.191735979923     0.756937386529    -0.367176112661    12.000000000000
         C           -3.241488379923    -0.309394113471    -0.828913112661    12.000000000000
         C           -3.324353379923    -1.458098113471     0.175611887339    12.000000000000
         C           -1.928238379923    -2.008928113471     0.458634887339    12.000000000000
         C           -1.003319379923    -0.890631113471     0.921290887339    12.000000000000
         C           -2.802996379923     1.659313886529     0.760109887339    12.000000000000
         C            0.138858620077     0.958402886529    -0.309405112661    12.000000000000
         C            1.476713620077     0.312864886529    -0.117052112661    12.000000000000
         C            1.768774620077    -0.949729113471    -0.651159112661    12.000000000000
         C            2.487610620077     1.057047886529     0.502483887339    12.000000000000
         C            3.057863620077    -1.472591113471    -0.539577112661    12.000000000000
         C            3.769875620077     0.523457886529     0.627189887339    12.000000000000
         C            4.057593620077    -0.741612113471     0.107046887339    12.000000000000
         H           -2.088931379923     1.461331886529    -1.236645112661     1.007825032230
         H           -2.890539379923    -0.704172113471    -1.790731112661     1.007825032230
         H           -4.232407379923     0.127662886529    -1.003133112661     1.007825032230
         H           -3.978255379923    -2.248450113471    -0.210619112661     1.007825032230
         H           -3.775071379923    -1.110691113471     1.113915887339     1.007825032230
         H           -1.964002379923    -2.791928113471     1.225883887339     1.007825032230
         H           -1.514443379923    -2.459344113471    -0.452468112661     1.007825032230
         H           -1.356624379923    -0.500640113471     1.888153887339     1.007825032230
         H            0.012867620077    -1.253259113471     1.074272887339     1.007825032230
         H           -3.743153379923     2.139976886529     0.470647887339     1.007825032230
         H           -2.989178379923     1.077308886529     1.666554887339     1.007825032230
         H           -2.072292379923     2.439884886529     0.985222887339     1.007825032230
         H            0.990981620077    -1.506715113471    -1.170069112661     1.007825032230
         H            2.256673620077     2.052949886529     0.872241887339     1.007825032230
         H            3.284863620077    -2.447589113471    -0.964586112661     1.007825032230
         H            4.549955620077     1.098810886529     1.120126887339     1.007825032230
         H            5.060264620077    -1.152606113471     0.197329887339     1.007825032230

  Basis Set: AUG-CC-PVTZ
    Blend: AUG-CC-PVTZ
  Basis Set: (AUG-CC-PVTZ AUX)
    Blend: AUG-CC-PVTZ-JKFIT
	 Reference Energy          =    -631.7190491027323560 [Eh]
	 Singles Energy            =      -0.0000000000000000 [Eh]
	 Same-Spin Energy          =      -0.6893167549580301 [Eh]
	 Opposite-Spin Energy      =      -2.2122918615567282 [Eh]
	 Correlation Energy        =      -2.9016086165147583 [Eh]
	 Total Energy              =    -634.6206577192471059 [Eh]

	 ================> DF-SCS-MP2 Energies <==================
	-----------------------------------------------------------
	 SCS Same-Spin Scale       =       0.3333333333333333 [-]
	 SCS Opposite-Spin Scale   =       1.2000000000000000 [-]
	 SCS Same-Spin Energy      =      -0.2297722516526767 [Eh]
	 SCS Opposite-Spin Energy  =      -2.6547502338680737 [Eh]
	 SCS Correlation Energy    =      -2.8845224855207503 [Eh]
	 SCS Total Energy          =    -634.6035715882530894 [Eh]
	-----------------------------------------------------------

  Dipole Moment: [D]
     X:    -0.5072      Y:    -3.1981      Z:     1.4589     Total:     3.5515

*** Psi4 exiting successfully. Buy a developer a beer!
