                               Psi4 1.3.2 release

  ==> Input File <==

--------------------------------------------------------------------------
#psi4
#
memory 32 gb

molecule  {
0 1
  O        0.1371160     2.1442200    -0.7498900
  N       -0.8176033     0.1063586    -0.0506310
  C       -2.2101840     0.8219870    -0.4048790
  C       -3.1715160    -0.2856370    -0.8447810
  C       -3.2543810    -1.4343410     0.1597440
  C       -1.8582660    -1.9851710     0.4427670
  C       -0.9333470    -0.8668740     0.9054230
  C       -2.7330240     1.6830710     0.7442420
  C        0.2088310     0.9821600    -0.3252730
  C        1.5466860     0.3366220    -0.1329200
  C        1.8387470    -0.9259720    -0.6670270
  C        2.5575830     1.0808050     0.4866160
  C        3.1278360    -1.4488340    -0.5554450
  C        3.8398480     0.5472150     0.6113220
  C        4.1275660    -0.7178550     0.0911790
  H       -2.0189590     1.4850890    -1.2525130
  H       -2.8205670    -0.6804150    -1.8065990
  H       -4.1624350     0.1514200    -1.0190010
  H       -3.9082830    -2.2246930    -0.2264870
  H       -3.7050990    -1.0869340     1.0980480
  H       -1.8940300    -2.7681710     1.2100160
  H       -1.4444710    -2.4355870    -0.4683360
  H       -1.2866520    -0.4768830     1.8722860
  H        0.0828400    -1.2295020     1.0584050
  H       -3.6731810     2.1637340     0.4547800
  H       -2.9192060     1.1010660     1.6506870
  H       -2.0023200     2.4636420     0.9693550
  H        1.0609540    -1.4829580    -1.1859370
  H        2.3266460     2.0767070     0.8563740
  H        3.3548360    -2.4238320    -0.9804540
  H        4.6199280     1.1225680     1.1042590
  H        5.1302370    -1.1288490     0.1814620
units angstrom
no_reorient  #important for SAPT in psi4, default
symmetry c1  #important for SAPT in psi4, default
}

set PROPERTIES_ORIGIN ["COM"]
properties('MP2/aug-cc-pvtz', properties = ['dipole'])
--------------------------------------------------------------------------

    Molecular point group: c1
  Charge       = 0
  Multiplicity = 1
  Basis Set: AUG-CC-PVTZ
    Blend: AUG-CC-PVTZ
  Basis Set: (AUG-CC-PVTZ AUX)
    Blend: AUG-CC-PVTZ-JKFIT

    Orbital Energies [Eh]
    ---------------------

    Doubly Occupied:

       1A    -20.521955     2A    -15.580896     3A    -11.353451
       4A    -11.268201     5A    -11.258020     6A    -11.247076
       7A    -11.245151     8A    -11.244516     9A    -11.242869
      10A    -11.242392    11A    -11.240799    12A    -11.227586
      13A    -11.226322    14A    -11.224892    15A    -11.216639
      16A     -1.370046    17A     -1.255460    18A     -1.157981
      19A     -1.088648    20A     -1.048385    21A     -1.031620
      22A     -1.020664    23A     -0.962664    24A     -0.903348
      25A     -0.856214    26A     -0.837284    27A     -0.833567
      28A     -0.780312    29A     -0.731825    30A     -0.716310
      31A     -0.682384    32A     -0.661738    33A     -0.639692
      34A     -0.628313    35A     -0.626906    36A     -0.604348
      37A     -0.599971    38A     -0.591567    39A     -0.589154
      40A     -0.571997    41A     -0.565578    42A     -0.546597
      43A     -0.524756    44A     -0.518442    45A     -0.507155
      46A     -0.501551    47A     -0.493591    48A     -0.492531
      49A     -0.470763    50A     -0.459376    51A     -0.450822
      52A     -0.413698    53A     -0.374093    54A     -0.342192
      55A     -0.339530

  @DF-RHF Final Energy:  -631.70641239077281

   => Energetics <=

    Nuclear Repulsion Energy =            998.7089762959016070
    One-Electron Energy =               -2840.5671102969895401
    Two-Electron Energy =                1210.1517216103150076
    Total Energy =                       -631.7064123907728117
  Basis Set: (AUG-CC-PVTZ AUX)
    Blend: AUG-CC-PVTZ-RI
    Molecular point group: c1

    Geometry (in Angstrom), charge = 0, multiplicity = 1:

       Center              X                  Y                   Z               Mass
    ------------   -----------------  -----------------  -----------------  -----------------
         O            0.066140983257     2.125431984736    -0.734983661530    15.994914619570
         N           -0.888578316743     0.087570584736    -0.035724661530    14.003074004430
         C           -2.281159016743     0.803198984736    -0.389972661530    12.000000000000
         C           -3.242491016743    -0.304425015264    -0.829874661530    12.000000000000
         C           -3.325356016743    -1.453129015264     0.174650338470    12.000000000000
         C           -1.929241016743    -2.003959015264     0.457673338470    12.000000000000
         C           -1.004322016743    -0.885662015264     0.920329338470    12.000000000000
         C           -2.803999016743     1.664282984736     0.759148338470    12.000000000000
         C            0.137855983257     0.963371984736    -0.310366661530    12.000000000000
         C            1.475710983257     0.317833984736    -0.118013661530    12.000000000000
         C            1.767771983257    -0.944760015264    -0.652120661530    12.000000000000
         C            2.486607983257     1.062016984736     0.501522338470    12.000000000000
         C            3.056860983257    -1.467622015264    -0.540538661530    12.000000000000
         C            3.768872983257     0.528426984736     0.626228338470    12.000000000000
         C            4.056590983257    -0.736643015264     0.106085338470    12.000000000000
         H           -2.089934016743     1.466300984736    -1.237606661530     1.007825032230
         H           -2.891542016743    -0.699203015264    -1.791692661530     1.007825032230
         H           -4.233410016743     0.132631984736    -1.004094661530     1.007825032230
         H           -3.979258016743    -2.243481015264    -0.211580661530     1.007825032230
         H           -3.776074016743    -1.105722015264     1.112954338470     1.007825032230
         H           -1.965005016743    -2.786959015264     1.224922338470     1.007825032230
         H           -1.515446016743    -2.454375015264    -0.453429661530     1.007825032230
         H           -1.357627016743    -0.495671015264     1.887192338470     1.007825032230
         H            0.011864983257    -1.248290015264     1.073311338470     1.007825032230
         H           -3.744156016743     2.144945984736     0.469686338470     1.007825032230
         H           -2.990181016743     1.082277984736     1.665593338470     1.007825032230
         H           -2.073295016743     2.444853984736     0.984261338470     1.007825032230
         H            0.989978983257    -1.501746015264    -1.171030661530     1.007825032230
         H            2.255670983257     2.057918984736     0.871280338470     1.007825032230
         H            3.283860983257    -2.442620015264    -0.965547661530     1.007825032230
         H            4.548952983257     1.103779984736     1.119165338470     1.007825032230
         H            5.059261983257    -1.147637015264     0.196368338470     1.007825032230

  Basis Set: AUG-CC-PVTZ
    Blend: AUG-CC-PVTZ
  Basis Set: (AUG-CC-PVTZ AUX)
    Blend: AUG-CC-PVTZ-JKFIT
	 Reference Energy          =    -631.7064123907728117 [Eh]
	 Singles Energy            =      -0.0000000000000000 [Eh]
	 Same-Spin Energy          =      -0.6900713415822830 [Eh]
	 Opposite-Spin Energy      =      -2.2143685045419188 [Eh]
	 Correlation Energy        =      -2.9044398461242018 [Eh]
	 Total Energy              =    -634.6108522368970171 [Eh]

	 ================> DF-SCS-MP2 Energies <==================
	-----------------------------------------------------------
	 SCS Same-Spin Scale       =       0.3333333333333333 [-]
	 SCS Opposite-Spin Scale   =       1.2000000000000000 [-]
	 SCS Same-Spin Energy      =      -0.2300237805274277 [Eh]
	 SCS Opposite-Spin Energy  =      -2.6572422054503027 [Eh]
	 SCS Correlation Energy    =      -2.8872659859777303 [Eh]
	 SCS Total Energy          =    -634.5936783767505176 [Eh]
	-----------------------------------------------------------

  Dipole Moment: [D]
     X:    -1.0886      Y:    -2.8135      Z:     1.3600     Total:     3.3091

*** Psi4 exiting successfully. Buy a developer a beer!
