                               Psi4 1.4a3.dev225

  ==> Input File <==

--------------------------------------------------------------------------
#psi4
#
memory 32 gb

molecule  {
0 1
  O        0.1371160     2.1442200    -0.7498900
  N       -0.9079200     0.2138270    -0.0832910
  C       -2.2543942     0.8426332    -0.4157965
  C       -3.1715160    -0.2856370    -0.8447810
  C       -3.2543810    -1.4343410     0.1597440
  C       -1.8582660    -1.9851710     0.4427670
  C       -0.9333470    -0.8668740     0.9054230
  C       -2.7330240     1.6830710     0.7442420
  C        0.2088310     0.9821600    -0.3252730
  C        1.5466860     0.3366220    -0.1329200
  C        1.8387470    -0.9259720    -0.6670270
  C        2.5575830     1.0808050     0.4866160
  C        3.1278360    -1.4488340    -0.5554450
  C        3.8398480     0.5472150     0.6113220
  C        4.1275660    -0.7178550     0.0911790
  H       -2.0189590     1.4850890    -1.2525130
  H       -2.8205670    -0.6804150    -1.8065990
  H       -4.1624350     0.1514200    -1.0190010
  H       -3.9082830    -2.2246930    -0.2264870
  H       -3.7050990    -1.0869340     1.0980480
  H       -1.8940300    -2.7681710     1.2100160
  H       -1.4444710    -2.4355870    -0.4683360
  H       -1.2866520    -0.4768830     1.8722860
  H        0.0828400    -1.2295020     1.0584050
  H       -3.6731810     2.1637340     0.4547800
  H       -2.9192060     1.1010660     1.6506870
  H       -2.0023200     2.4636420     0.9693550
  H        1.0609540    -1.4829580    -1.1859370
  H        2.3266460     2.0767070     0.8563740
  H        3.3548360    -2.4238320    -0.9804540
  H        4.6199280     1.1225680     1.1042590
  H        5.1302370    -1.1288490     0.1814620
units angstrom
no_reorient  #important for SAPT in psi4, default
symmetry c1  #important for SAPT in psi4, default
}

set PROPERTIES_ORIGIN ["COM"]
properties('MP2/aug-cc-pvtz', properties = ['dipole'])
--------------------------------------------------------------------------

    Molecular point group: c1
  Charge       = 0
  Multiplicity = 1
  Basis Set: AUG-CC-PVTZ
    Blend: AUG-CC-PVTZ
  Basis Set: (AUG-CC-PVTZ AUX)
    Blend: AUG-CC-PVTZ-JKFIT

    Orbital Energies [Eh]
    ---------------------

    Doubly Occupied:

       1A    -20.512331     2A    -15.576506     3A    -11.347100
       4A    -11.263671     5A    -11.260111     6A    -11.249547
       7A    -11.248353     8A    -11.246645     9A    -11.244468
      10A    -11.244280    11A    -11.242293    12A    -11.229141
      13A    -11.227383    14A    -11.224044    15A    -11.212295
      16A     -1.365646    17A     -1.237870    18A     -1.159759
      19A     -1.086106    20A     -1.053615    21A     -1.030723
      22A     -1.022155    23A     -0.961463    24A     -0.897684
      25A     -0.862031    26A     -0.836453    27A     -0.833394
      28A     -0.783430    29A     -0.729765    30A     -0.715548
      31A     -0.681015    32A     -0.654122    33A     -0.639357
      34A     -0.628706    35A     -0.625141    36A     -0.604154
      37A     -0.599243    38A     -0.592689    39A     -0.584184
      40A     -0.577264    41A     -0.565606    42A     -0.543543
      43A     -0.524304    44A     -0.520620    45A     -0.506072
      46A     -0.502291    47A     -0.495496    48A     -0.491817
      49A     -0.473892    50A     -0.458421    51A     -0.456225
      52A     -0.418036    53A     -0.367889    54A     -0.343645
      55A     -0.340856

  @DF-RHF Final Energy:  -631.72682378174295

   => Energetics <=

    Nuclear Repulsion Energy =            997.8295362098846226
    One-Electron Energy =               -2838.9159157242570473
    Two-Electron Energy =                1209.3595557326293601
    Total Energy =                       -631.7268237817429508
  Basis Set: (AUG-CC-PVTZ AUX)
    Blend: AUG-CC-PVTZ-RI
    Molecular point group: c1

    Geometry (in Angstrom), charge = 0, multiplicity = 1:

       Center              X                  Y                   Z               Mass
    ------------   -----------------  -----------------  -----------------  -----------------
         O            0.074978795845     2.116803847051    -0.732087253025    15.994914619570
         N           -0.970057204155     0.186410847051    -0.065488253025    14.003074004430
         C           -2.316531404155     0.815217047051    -0.397993753025    12.000000000000
         C           -3.233653204155    -0.313053152949    -0.826978253025    12.000000000000
         C           -3.316518204155    -1.461757152949     0.177546746975    12.000000000000
         C           -1.920403204155    -2.012587152949     0.460569746975    12.000000000000
         C           -0.995484204155    -0.894290152949     0.923225746975    12.000000000000
         C           -2.795161204155     1.655654847051     0.762044746975    12.000000000000
         C            0.146693795845     0.954743847051    -0.307470253025    12.000000000000
         C            1.484548795845     0.309205847051    -0.115117253025    12.000000000000
         C            1.776609795845    -0.953388152949    -0.649224253025    12.000000000000
         C            2.495445795845     1.053388847051     0.504418746975    12.000000000000
         C            3.065698795845    -1.476250152949    -0.537642253025    12.000000000000
         C            3.777710795845     0.519798847051     0.629124746975    12.000000000000
         C            4.065428795845    -0.745271152949     0.108981746975    12.000000000000
         H           -2.081096204155     1.457672847051    -1.234710253025     1.007825032230
         H           -2.882704204155    -0.707831152949    -1.788796253025     1.007825032230
         H           -4.224572204155     0.124003847051    -1.001198253025     1.007825032230
         H           -3.970420204155    -2.252109152949    -0.208684253025     1.007825032230
         H           -3.767236204155    -1.114350152949     1.115850746975     1.007825032230
         H           -1.956167204155    -2.795587152949     1.227818746975     1.007825032230
         H           -1.506608204155    -2.463003152949    -0.450533253025     1.007825032230
         H           -1.348789204155    -0.504299152949     1.890088746975     1.007825032230
         H            0.020702795845    -1.256918152949     1.076207746975     1.007825032230
         H           -3.735318204155     2.136317847051     0.472582746975     1.007825032230
         H           -2.981343204155     1.073649847051     1.668489746975     1.007825032230
         H           -2.064457204155     2.436225847051     0.987157746975     1.007825032230
         H            0.998816795845    -1.510374152949    -1.168134253025     1.007825032230
         H            2.264508795845     2.049290847051     0.874176746975     1.007825032230
         H            3.292698795845    -2.451248152949    -0.962651253025     1.007825032230
         H            4.557790795845     1.095151847051     1.122061746975     1.007825032230
         H            5.068099795845    -1.156265152949     0.199264746975     1.007825032230

  Basis Set: AUG-CC-PVTZ
    Blend: AUG-CC-PVTZ
  Basis Set: (AUG-CC-PVTZ AUX)
    Blend: AUG-CC-PVTZ-JKFIT
	 Reference Energy          =    -631.7268237817429508 [Eh]
	 Singles Energy            =      -0.0000000000000000 [Eh]
	 Same-Spin Energy          =      -0.6886686187993418 [Eh]
	 Opposite-Spin Energy      =      -2.2118466131370838 [Eh]
	 Correlation Energy        =      -2.9005152319364256 [Eh]
	 Total Energy              =    -634.6273390136793751 [Eh]

	 ================> DF-SCS-MP2 Energies <==================
	-----------------------------------------------------------
	 SCS Same-Spin Scale       =       0.3333333333333333 [-]
	 SCS Opposite-Spin Scale   =       1.2000000000000000 [-]
	 SCS Same-Spin Energy      =      -0.2295562062664473 [Eh]
	 SCS Opposite-Spin Energy  =      -2.6542159357645003 [Eh]
	 SCS Correlation Energy    =      -2.8837721420309474 [Eh]
	 SCS Total Energy          =    -634.6105959237738716 [Eh]
	-----------------------------------------------------------

  Dipole Moment: [D]
     X:    -0.9972      Y:    -3.0973      Z:     1.4647     Total:     3.5683

*** Psi4 exiting successfully. Buy a developer a beer!
