                               Psi4 1.3.2 release

  ==> Input File <==

--------------------------------------------------------------------------
#psi4
#
memory 32 gb

molecule  {
0 1
  O        0.2235516     2.1470154    -0.7480274
  N       -0.9079200     0.2138270    -0.0832910
  C       -2.2101840     0.8219870    -0.4048790
  C       -3.1715160    -0.2856370    -0.8447810
  C       -3.2543810    -1.4343410     0.1597440
  C       -1.8582660    -1.9851710     0.4427670
  C       -0.9333470    -0.8668740     0.9054230
  C       -2.7330240     1.6830710     0.7442420
  C        0.2088310     0.9821600    -0.3252730
  C        1.5466860     0.3366220    -0.1329200
  C        1.8387470    -0.9259720    -0.6670270
  C        2.5575830     1.0808050     0.4866160
  C        3.1278360    -1.4488340    -0.5554450
  C        3.8398480     0.5472150     0.6113220
  C        4.1275660    -0.7178550     0.0911790
  H       -2.0189590     1.4850890    -1.2525130
  H       -2.8205670    -0.6804150    -1.8065990
  H       -4.1624350     0.1514200    -1.0190010
  H       -3.9082830    -2.2246930    -0.2264870
  H       -3.7050990    -1.0869340     1.0980480
  H       -1.8940300    -2.7681710     1.2100160
  H       -1.4444710    -2.4355870    -0.4683360
  H       -1.2866520    -0.4768830     1.8722860
  H        0.0828400    -1.2295020     1.0584050
  H       -3.6731810     2.1637340     0.4547800
  H       -2.9192060     1.1010660     1.6506870
  H       -2.0023200     2.4636420     0.9693550
  H        1.0609540    -1.4829580    -1.1859370
  H        2.3266460     2.0767070     0.8563740
  H        3.3548360    -2.4238320    -0.9804540
  H        4.6199280     1.1225680     1.1042590
  H        5.1302370    -1.1288490     0.1814620
units angstrom
no_reorient  #important for SAPT in psi4, default
symmetry c1  #important for SAPT in psi4, default
}

set PROPERTIES_ORIGIN ["COM"]
properties('MP2/aug-cc-pvtz', properties = ['dipole'])
--------------------------------------------------------------------------

    Molecular point group: c1
  Charge       = 0
  Multiplicity = 1
  Basis Set: AUG-CC-PVTZ
    Blend: AUG-CC-PVTZ
  Basis Set: (AUG-CC-PVTZ AUX)
    Blend: AUG-CC-PVTZ-JKFIT

    Orbital Energies [Eh]
    ---------------------

    Doubly Occupied:

       1A    -20.515929     2A    -15.583052     3A    -11.349640
       4A    -11.267146     5A    -11.260810     6A    -11.247424
       7A    -11.246274     8A    -11.244889     9A    -11.242905
      10A    -11.242441    11A    -11.240807    12A    -11.231056
      13A    -11.227875    14A    -11.224939    15A    -11.213073
      16A     -1.368338    17A     -1.251150    18A     -1.158044
      19A     -1.086640    20A     -1.054015    21A     -1.028758
      22A     -1.020592    23A     -0.961247    24A     -0.898770
      25A     -0.865445    26A     -0.836500    27A     -0.832820
      28A     -0.787251    29A     -0.729581    30A     -0.718422
      31A     -0.680833    32A     -0.654652    33A     -0.638714
      34A     -0.628584    35A     -0.626079    36A     -0.606247
      37A     -0.598987    38A     -0.591712    39A     -0.587933
      40A     -0.579323    41A     -0.566093    42A     -0.544068
      43A     -0.526319    44A     -0.520617    45A     -0.506415
      46A     -0.501145    47A     -0.495289    48A     -0.492356
      49A     -0.471795    50A     -0.464496    51A     -0.453996
      52A     -0.420420    53A     -0.371335    54A     -0.342322
      55A     -0.338076

  @DF-RHF Final Energy:  -631.72778430607252

   => Energetics <=

    Nuclear Repulsion Energy =            998.3651366959011284
    One-Electron Energy =               -2839.8985597181872436
    Two-Electron Energy =                1209.8056387162134797
    Total Energy =                       -631.7277843060726354
  Basis Set: (AUG-CC-PVTZ AUX)
    Blend: AUG-CC-PVTZ-RI
    Molecular point group: c1

    Geometry (in Angstrom), charge = 0, multiplicity = 1:

       Center              X                  Y                   Z               Mass
    ------------   -----------------  -----------------  -----------------  -----------------
         O            0.151996570360     2.120598809902    -0.731016270832    15.994914619570
         N           -0.979475029640     0.187410409902    -0.066279870832    14.003074004430
         C           -2.281739029640     0.795570409902    -0.387867870832    12.000000000000
         C           -3.243071029640    -0.312053590098    -0.827769870832    12.000000000000
         C           -3.325936029640    -1.460757590098     0.176755129168    12.000000000000
         C           -1.929821029640    -2.011587590098     0.459778129168    12.000000000000
         C           -1.004902029640    -0.893290590098     0.922434129168    12.000000000000
         C           -2.804579029640     1.656654409902     0.761253129168    12.000000000000
         C            0.137275970360     0.955743409902    -0.308261870832    12.000000000000
         C            1.475130970360     0.310205409902    -0.115908870832    12.000000000000
         C            1.767191970360    -0.952388590098    -0.650015870832    12.000000000000
         C            2.486027970360     1.054388409902     0.503627129168    12.000000000000
         C            3.056280970360    -1.475250590098    -0.538433870832    12.000000000000
         C            3.768292970360     0.520798409902     0.628333129168    12.000000000000
         C            4.056010970360    -0.744271590098     0.108190129168    12.000000000000
         H           -2.090514029640     1.458672409902    -1.235501870832     1.007825032230
         H           -2.892122029640    -0.706831590098    -1.789587870832     1.007825032230
         H           -4.233990029640     0.125003409902    -1.001989870832     1.007825032230
         H           -3.979838029640    -2.251109590098    -0.209475870832     1.007825032230
         H           -3.776654029640    -1.113350590098     1.115059129168     1.007825032230
         H           -1.965585029640    -2.794587590098     1.227027129168     1.007825032230
         H           -1.516026029640    -2.462003590098    -0.451324870832     1.007825032230
         H           -1.358207029640    -0.503299590098     1.889297129168     1.007825032230
         H            0.011284970360    -1.255918590098     1.075416129168     1.007825032230
         H           -3.744736029640     2.137317409902     0.471791129168     1.007825032230
         H           -2.990761029640     1.074649409902     1.667698129168     1.007825032230
         H           -2.073875029640     2.437225409902     0.986366129168     1.007825032230
         H            0.989398970360    -1.509374590098    -1.168925870832     1.007825032230
         H            2.255090970360     2.050290409902     0.873385129168     1.007825032230
         H            3.283280970360    -2.450248590098    -0.963442870832     1.007825032230
         H            4.548372970360     1.096151409902     1.121270129168     1.007825032230
         H            5.058681970360    -1.155265590098     0.198473129168     1.007825032230

  Basis Set: AUG-CC-PVTZ
    Blend: AUG-CC-PVTZ
  Basis Set: (AUG-CC-PVTZ AUX)
    Blend: AUG-CC-PVTZ-JKFIT
	 Reference Energy          =    -631.7277843060725218 [Eh]
	 Singles Energy            =      -0.0000000000000000 [Eh]
	 Same-Spin Energy          =      -0.6885854167994842 [Eh]
	 Opposite-Spin Energy      =      -2.2116866536272957 [Eh]
	 Correlation Energy        =      -2.9002720704267797 [Eh]
	 Total Energy              =    -634.6280563764993303 [Eh]

	 ================> DF-SCS-MP2 Energies <==================
	-----------------------------------------------------------
	 SCS Same-Spin Scale       =       0.3333333333333333 [-]
	 SCS Opposite-Spin Scale   =       1.2000000000000000 [-]
	 SCS Same-Spin Energy      =      -0.2295284722664947 [Eh]
	 SCS Opposite-Spin Energy  =      -2.6540239843527549 [Eh]
	 SCS Correlation Energy    =      -2.8835524566192494 [Eh]
	 SCS Total Energy          =    -634.6113367626917352 [Eh]
	-----------------------------------------------------------

  Dipole Moment: [D]
     X:    -1.1887      Y:    -3.1075      Z:     1.4726     Total:     3.6384

*** Psi4 exiting successfully. Buy a developer a beer!
