                               Psi4 1.3.2 release

  ==> Input File <==

--------------------------------------------------------------------------
#psi4
#
memory 32 gb

molecule  {
0 1
  O        0.1371160     2.1442200    -0.7498900
  N       -0.9079200     0.2138270    -0.0832910
  C       -2.2101840     0.8219870    -0.4048790
  C       -3.1715160    -0.2856370    -0.8447810
  C       -3.2543810    -1.4343410     0.1597440
  C       -1.8582660    -1.9851710     0.4427670
  C       -0.9333470    -0.8668740     0.9054230
  C       -2.7330240     1.6830710     0.7442420
  C        0.2088310     0.9821600    -0.3252730
  C        1.5466860     0.3366220    -0.1329200
  C        1.8154241    -0.9281450    -0.6740833
  C        2.5575830     1.0808050     0.4866160
  C        3.1278360    -1.4488340    -0.5554450
  C        3.8398480     0.5472150     0.6113220
  C        4.1275660    -0.7178550     0.0911790
  H       -2.0189590     1.4850890    -1.2525130
  H       -2.8205670    -0.6804150    -1.8065990
  H       -4.1624350     0.1514200    -1.0190010
  H       -3.9082830    -2.2246930    -0.2264870
  H       -3.7050990    -1.0869340     1.0980480
  H       -1.8940300    -2.7681710     1.2100160
  H       -1.4444710    -2.4355870    -0.4683360
  H       -1.2866520    -0.4768830     1.8722860
  H        0.0828400    -1.2295020     1.0584050
  H       -3.6731810     2.1637340     0.4547800
  H       -2.9192060     1.1010660     1.6506870
  H       -2.0023200     2.4636420     0.9693550
  H        1.0609540    -1.4829580    -1.1859370
  H        2.3266460     2.0767070     0.8563740
  H        3.3548360    -2.4238320    -0.9804540
  H        4.6199280     1.1225680     1.1042590
  H        5.1302370    -1.1288490     0.1814620
units angstrom
no_reorient  #important for SAPT in psi4, default
symmetry c1  #important for SAPT in psi4, default
}

set PROPERTIES_ORIGIN ["COM"]
properties('MP2/aug-cc-pvtz', properties = ['dipole'])
--------------------------------------------------------------------------

    Molecular point group: c1
  Charge       = 0
  Multiplicity = 1
  Basis Set: AUG-CC-PVTZ
    Blend: AUG-CC-PVTZ
  Basis Set: (AUG-CC-PVTZ AUX)
    Blend: AUG-CC-PVTZ-JKFIT

    Orbital Energies [Eh]
    ---------------------

    Doubly Occupied:

       1A    -20.514031     2A    -15.578970     3A    -11.348394
       4A    -11.264963     5A    -11.257604     6A    -11.251230
       7A    -11.250067     8A    -11.248144     9A    -11.246902
      10A    -11.245447    11A    -11.243578    12A    -11.229578
      13A    -11.226276    14A    -11.222953    15A    -11.210720
      16A     -1.368287    17A     -1.246319    18A     -1.158979
      19A     -1.084760    20A     -1.052537    21A     -1.031063
      22A     -1.021179    23A     -0.959125    24A     -0.897083
      25A     -0.864998    26A     -0.839266    27A     -0.833173
      28A     -0.786086    29A     -0.728854    30A     -0.718077
      31A     -0.682367    32A     -0.655469    33A     -0.637888
      34A     -0.628870    35A     -0.626324    36A     -0.606323
      37A     -0.598238    38A     -0.594295    39A     -0.586535
      40A     -0.577335    41A     -0.564613    42A     -0.542777
      43A     -0.525634    44A     -0.519387    45A     -0.507203
      46A     -0.503875    47A     -0.494126    48A     -0.492835
      49A     -0.469812    50A     -0.462387    51A     -0.451414
      52A     -0.420152    53A     -0.367922    54A     -0.343421
      55A     -0.341515

  @DF-RHF Final Energy:  -631.72813468295885

   => Energetics <=

    Nuclear Repulsion Energy =            998.5781169957697330
    One-Electron Energy =               -2840.3537751664935058
    Two-Electron Energy =                1210.0475234877649200
    Total Energy =                       -631.7281346829588529
  Basis Set: (AUG-CC-PVTZ AUX)
    Blend: AUG-CC-PVTZ-RI
    Molecular point group: c1

    Geometry (in Angstrom), charge = 0, multiplicity = 1:

       Center              X                  Y                   Z               Mass
    ------------   -----------------  -----------------  -----------------  -----------------
         O            0.073744874964     2.118151895261    -0.732315354087    15.994914619570
         N           -0.971291125036     0.187758895261    -0.065716354087    14.003074004430
         C           -2.273555125036     0.795918895261    -0.387304354087    12.000000000000
         C           -3.234887125036    -0.311705104739    -0.827206354087    12.000000000000
         C           -3.317752125036    -1.460409104739     0.177318645913    12.000000000000
         C           -1.921637125036    -2.011239104739     0.460341645913    12.000000000000
         C           -0.996718125036    -0.892942104739     0.922997645913    12.000000000000
         C           -2.796395125036     1.657002895261     0.761816645913    12.000000000000
         C            0.145459874964     0.956091895261    -0.307698354087    12.000000000000
         C            1.483314874964     0.310553895261    -0.115345354087    12.000000000000
         C            1.752052974964    -0.954213104739    -0.656508654087    12.000000000000
         C            2.494211874964     1.054736895261     0.504190645913    12.000000000000
         C            3.064464874964    -1.474902104739    -0.537870354087    12.000000000000
         C            3.776476874964     0.521146895261     0.628896645913    12.000000000000
         C            4.064194874964    -0.743923104739     0.108753645913    12.000000000000
         H           -2.082330125036     1.459020895261    -1.234938354087     1.007825032230
         H           -2.883938125036    -0.706483104739    -1.789024354087     1.007825032230
         H           -4.225806125036     0.125351895261    -1.001426354087     1.007825032230
         H           -3.971654125036    -2.250761104739    -0.208912354087     1.007825032230
         H           -3.768470125036    -1.113002104739     1.115622645913     1.007825032230
         H           -1.957401125036    -2.794239104739     1.227590645913     1.007825032230
         H           -1.507842125036    -2.461655104739    -0.450761354087     1.007825032230
         H           -1.350023125036    -0.502951104739     1.889860645913     1.007825032230
         H            0.019468874964    -1.255570104739     1.075979645913     1.007825032230
         H           -3.736552125036     2.137665895261     0.472354645913     1.007825032230
         H           -2.982577125036     1.074997895261     1.668261645913     1.007825032230
         H           -2.065691125036     2.437573895261     0.986929645913     1.007825032230
         H            0.997582874964    -1.509026104739    -1.168362354087     1.007825032230
         H            2.263274874964     2.050638895261     0.873948645913     1.007825032230
         H            3.291464874964    -2.449900104739    -0.962879354087     1.007825032230
         H            4.556556874964     1.096499895261     1.121833645913     1.007825032230
         H            5.066865874964    -1.154917104739     0.199036645913     1.007825032230

  Basis Set: AUG-CC-PVTZ
    Blend: AUG-CC-PVTZ
  Basis Set: (AUG-CC-PVTZ AUX)
    Blend: AUG-CC-PVTZ-JKFIT
	 Reference Energy          =    -631.7281346829588529 [Eh]
	 Singles Energy            =      -0.0000000000000000 [Eh]
	 Same-Spin Energy          =      -0.6886408121299143 [Eh]
	 Opposite-Spin Energy      =      -2.2117575628399311 [Eh]
	 Correlation Energy        =      -2.9003983749698454 [Eh]
	 Total Energy              =    -634.6285330579287347 [Eh]

	 ================> DF-SCS-MP2 Energies <==================
	-----------------------------------------------------------
	 SCS Same-Spin Scale       =       0.3333333333333333 [-]
	 SCS Opposite-Spin Scale   =       1.2000000000000000 [-]
	 SCS Same-Spin Energy      =      -0.2295469373766381 [Eh]
	 SCS Opposite-Spin Energy  =      -2.6541090754079173 [Eh]
	 SCS Correlation Energy    =      -2.8836560127845554 [Eh]
	 SCS Total Energy          =    -634.6117906957433661 [Eh]
	-----------------------------------------------------------

  Dipole Moment: [D]
     X:    -0.8241      Y:    -3.1314      Z:     1.4624     Total:     3.5529

*** Psi4 exiting successfully. Buy a developer a beer!
