                               Psi4 1.3.2 release

  ==> Input File <==

--------------------------------------------------------------------------
#psi4
#
memory 32 gb

molecule  {
0 1
  O        0.1371160     2.1442200    -0.7498900
  N       -0.9079200     0.2138270    -0.0832910
  C       -2.2101840     0.8219870    -0.4048790
  C       -3.0990900    -0.3142734    -0.9179700
  C       -3.2543810    -1.4343410     0.1597440
  C       -1.8582660    -1.9851710     0.4427670
  C       -0.9333470    -0.8668740     0.9054230
  C       -2.7330240     1.6830710     0.7442420
  C        0.2088310     0.9821600    -0.3252730
  C        1.5466860     0.3366220    -0.1329200
  C        1.8387470    -0.9259720    -0.6670270
  C        2.5575830     1.0808050     0.4866160
  C        3.1278360    -1.4488340    -0.5554450
  C        3.8398480     0.5472150     0.6113220
  C        4.1275660    -0.7178550     0.0911790
  H       -2.0189590     1.4850890    -1.2525130
  H       -2.8205670    -0.6804150    -1.8065990
  H       -4.1624350     0.1514200    -1.0190010
  H       -3.9082830    -2.2246930    -0.2264870
  H       -3.7050990    -1.0869340     1.0980480
  H       -1.8940300    -2.7681710     1.2100160
  H       -1.4444710    -2.4355870    -0.4683360
  H       -1.2866520    -0.4768830     1.8722860
  H        0.0828400    -1.2295020     1.0584050
  H       -3.6731810     2.1637340     0.4547800
  H       -2.9192060     1.1010660     1.6506870
  H       -2.0023200     2.4636420     0.9693550
  H        1.0609540    -1.4829580    -1.1859370
  H        2.3266460     2.0767070     0.8563740
  H        3.3548360    -2.4238320    -0.9804540
  H        4.6199280     1.1225680     1.1042590
  H        5.1302370    -1.1288490     0.1814620
units angstrom
no_reorient  #important for SAPT in psi4, default
symmetry c1  #important for SAPT in psi4, default
}

set PROPERTIES_ORIGIN ["COM"]
properties('MP2/aug-cc-pvtz', properties = ['dipole'])
--------------------------------------------------------------------------

    Molecular point group: c1
  Charge       = 0
  Multiplicity = 1
  Basis Set: AUG-CC-PVTZ
    Blend: AUG-CC-PVTZ
  Basis Set: (AUG-CC-PVTZ AUX)
    Blend: AUG-CC-PVTZ-JKFIT

    Orbital Energies [Eh]
    ---------------------

    Doubly Occupied:

       1A    -20.513865     2A    -15.577876     3A    -11.348292
       4A    -11.264641     5A    -11.258039     6A    -11.250407
       7A    -11.249211     8A    -11.247344     9A    -11.245224
      10A    -11.245009    11A    -11.242986    12A    -11.228321
      13A    -11.227548    14A    -11.222744    15A    -11.213218
      16A     -1.368096    17A     -1.246391    18A     -1.160651
      19A     -1.081946    20A     -1.052160    21A     -1.030004
      22A     -1.022862    23A     -0.959454    24A     -0.899697
      25A     -0.864766    26A     -0.836794    27A     -0.831896
      28A     -0.788851    29A     -0.732906    30A     -0.717651
      31A     -0.681573    32A     -0.656127    33A     -0.639294
      34A     -0.631465    35A     -0.622971    36A     -0.605721
      37A     -0.601804    38A     -0.593786    39A     -0.584239
      40A     -0.574545    41A     -0.558491    42A     -0.544276
      43A     -0.526437    44A     -0.518196    45A     -0.506468
      46A     -0.503951    47A     -0.501664    48A     -0.493154
      49A     -0.481508    50A     -0.453025    51A     -0.442262
      52A     -0.419519    53A     -0.368003    54A     -0.344389
      55A     -0.341600

  @DF-RHF Final Energy:  -631.71535416277050

   => Energetics <=

    Nuclear Repulsion Energy =            998.8369290458634850
    One-Electron Energy =               -2840.8579384703284632
    Two-Electron Energy =                1210.3056552616944828
    Total Energy =                       -631.7153541627703817
  Basis Set: (AUG-CC-PVTZ AUX)
    Blend: AUG-CC-PVTZ-RI
    Molecular point group: c1

    Geometry (in Angstrom), charge = 0, multiplicity = 1:

       Center              X                  Y                   Z               Mass
    ------------   -----------------  -----------------  -----------------  -----------------
         O            0.068088492039     2.119715225220    -0.728408553330    15.994914619570
         N           -0.976947507961     0.189322225220    -0.061809553330    14.003074004430
         C           -2.279211507961     0.797482225220    -0.383397553330    12.000000000000
         C           -3.168117507961    -0.338778174780    -0.896488553330    12.000000000000
         C           -3.323408507961    -1.458845774780     0.181225446670    12.000000000000
         C           -1.927293507961    -2.009675774780     0.464248446670    12.000000000000
         C           -1.002374507961    -0.891378774780     0.926904446670    12.000000000000
         C           -2.802051507961     1.658566225220     0.765723446670    12.000000000000
         C            0.139803492039     0.957655225220    -0.303791553330    12.000000000000
         C            1.477658492039     0.312117225220    -0.111438553330    12.000000000000
         C            1.769719492039    -0.950476774780    -0.645545553330    12.000000000000
         C            2.488555492039     1.056300225220     0.508097446670    12.000000000000
         C            3.058808492039    -1.473338774780    -0.533963553330    12.000000000000
         C            3.770820492039     0.522710225220     0.632803446670    12.000000000000
         C            4.058538492039    -0.742359774780     0.112660446670    12.000000000000
         H           -2.087986507961     1.460584225220    -1.231031553330     1.007825032230
         H           -2.889594507961    -0.704919774780    -1.785117553330     1.007825032230
         H           -4.231462507961     0.126915225220    -0.997519553330     1.007825032230
         H           -3.977310507961    -2.249197774780    -0.205005553330     1.007825032230
         H           -3.774126507961    -1.111438774780     1.119529446670     1.007825032230
         H           -1.963057507961    -2.792675774780     1.231497446670     1.007825032230
         H           -1.513498507961    -2.460091774780    -0.446854553330     1.007825032230
         H           -1.355679507961    -0.501387774780     1.893767446670     1.007825032230
         H            0.013812492039    -1.254006774780     1.079886446670     1.007825032230
         H           -3.742208507961     2.139229225220     0.476261446670     1.007825032230
         H           -2.988233507961     1.076561225220     1.672168446670     1.007825032230
         H           -2.071347507961     2.439137225220     0.990836446670     1.007825032230
         H            0.991926492039    -1.507462774780    -1.164455553330     1.007825032230
         H            2.257618492039     2.052202225220     0.877855446670     1.007825032230
         H            3.285808492039    -2.448336774780    -0.958972553330     1.007825032230
         H            4.550900492039     1.098063225220     1.125740446670     1.007825032230
         H            5.061209492039    -1.153353774780     0.202943446670     1.007825032230

  Basis Set: AUG-CC-PVTZ
    Blend: AUG-CC-PVTZ
  Basis Set: (AUG-CC-PVTZ AUX)
    Blend: AUG-CC-PVTZ-JKFIT
	 Reference Energy          =    -631.7153541627704953 [Eh]
	 Singles Energy            =      -0.0000000000000000 [Eh]
	 Same-Spin Energy          =      -0.6887796743178926 [Eh]
	 Opposite-Spin Energy      =      -2.2122678680966370 [Eh]
	 Correlation Energy        =      -2.9010475424145294 [Eh]
	 Total Energy              =    -634.6164017051850124 [Eh]

	 ================> DF-SCS-MP2 Energies <==================
	-----------------------------------------------------------
	 SCS Same-Spin Scale       =       0.3333333333333333 [-]
	 SCS Opposite-Spin Scale   =       1.2000000000000000 [-]
	 SCS Same-Spin Energy      =      -0.2295932247726308 [Eh]
	 SCS Opposite-Spin Energy  =      -2.6547214417159641 [Eh]
	 SCS Correlation Energy    =      -2.8843146664885948 [Eh]
	 SCS Total Energy          =    -634.5996688292591443 [Eh]
	-----------------------------------------------------------

  Dipole Moment: [D]
     X:    -0.8210      Y:    -3.1190      Z:     1.4565     Total:     3.5389

*** Psi4 exiting successfully. Buy a developer a beer!
