                               Psi4 1.3.2 release

  ==> Input File <==

--------------------------------------------------------------------------
#psi4
#
memory 32 gb

molecule  {
0 1
  O        0.1371160     2.1442200    -0.7498900
  N       -0.9079200     0.2138270    -0.0832910
  C       -2.2101840     0.8219870    -0.4048790
  C       -3.1715160    -0.2856370    -0.8447810
  C       -3.2543810    -1.4343410     0.1597440
  C       -1.8582660    -1.9851710     0.4427670
  C       -0.9333470    -0.8668740     0.9054230
  C       -2.7330240     1.6830710     0.7442420
  C        0.2899335     1.0379592    -0.3428466
  C        1.5466860     0.3366220    -0.1329200
  C        1.8387470    -0.9259720    -0.6670270
  C        2.5575830     1.0808050     0.4866160
  C        3.1278360    -1.4488340    -0.5554450
  C        3.8398480     0.5472150     0.6113220
  C        4.1275660    -0.7178550     0.0911790
  H       -2.0189590     1.4850890    -1.2525130
  H       -2.8205670    -0.6804150    -1.8065990
  H       -4.1624350     0.1514200    -1.0190010
  H       -3.9082830    -2.2246930    -0.2264870
  H       -3.7050990    -1.0869340     1.0980480
  H       -1.8940300    -2.7681710     1.2100160
  H       -1.4444710    -2.4355870    -0.4683360
  H       -1.2866520    -0.4768830     1.8722860
  H        0.0828400    -1.2295020     1.0584050
  H       -3.6731810     2.1637340     0.4547800
  H       -2.9192060     1.1010660     1.6506870
  H       -2.0023200     2.4636420     0.9693550
  H        1.0609540    -1.4829580    -1.1859370
  H        2.3266460     2.0767070     0.8563740
  H        3.3548360    -2.4238320    -0.9804540
  H        4.6199280     1.1225680     1.1042590
  H        5.1302370    -1.1288490     0.1814620
units angstrom
no_reorient  #important for SAPT in psi4, default
symmetry c1  #important for SAPT in psi4, default
}

set PROPERTIES_ORIGIN ["COM"]
properties('MP2/aug-cc-pvtz', properties = ['dipole'])
--------------------------------------------------------------------------

    Molecular point group: c1
  Charge       = 0
  Multiplicity = 1
  Basis Set: AUG-CC-PVTZ
    Blend: AUG-CC-PVTZ
  Basis Set: (AUG-CC-PVTZ AUX)
    Blend: AUG-CC-PVTZ-JKFIT

    Orbital Energies [Eh]
    ---------------------

    Doubly Occupied:

       1A    -20.531379     2A    -15.561209     3A    -11.352171
       4A    -11.255784     5A    -11.254571     6A    -11.252648
       7A    -11.251516     8A    -11.250304     9A    -11.249584
      10A    -11.249070    11A    -11.246888    12A    -11.222391
      13A    -11.220362    14A    -11.216736    15A    -11.205144
      16A     -1.404643    17A     -1.224402    18A     -1.166818
      19A     -1.073181    20A     -1.048347    21A     -1.034088
      22A     -1.027066    23A     -0.947647    24A     -0.891782
      25A     -0.862059    26A     -0.841858    27A     -0.828421
      28A     -0.778972    29A     -0.729152    30A     -0.710828
      31A     -0.687844    32A     -0.658233    33A     -0.640779
      34A     -0.629294    35A     -0.623455    36A     -0.606125
      37A     -0.599373    38A     -0.595869    39A     -0.584295
      40A     -0.572039    41A     -0.559069    42A     -0.546623
      43A     -0.528186    44A     -0.515767    45A     -0.511527
      46A     -0.505458    47A     -0.500539    48A     -0.487049
      49A     -0.466013    50A     -0.458708    51A     -0.444503
      52A     -0.423113    53A     -0.356679    54A     -0.348476
      55A     -0.346240

  @DF-RHF Final Energy:  -631.71962849354986

   => Energetics <=

    Nuclear Repulsion Energy =            998.0836075711603144
    One-Electron Energy =               -2839.4379176249703960
    Two-Electron Energy =                1209.6346815602601055
    Total Energy =                       -631.7196284935498625
  Basis Set: (AUG-CC-PVTZ AUX)
    Blend: AUG-CC-PVTZ-RI
    Molecular point group: c1

    Geometry (in Angstrom), charge = 0, multiplicity = 1:

       Center              X                  Y                   Z               Mass
    ------------   -----------------  -----------------  -----------------  -----------------
         O            0.067575926292     2.114727177461    -0.731694042760    15.994914619570
         N           -0.977460073708     0.184334177461    -0.065095042760    14.003074004430
         C           -2.279724073708     0.792494177461    -0.386683042760    12.000000000000
         C           -3.241056073708    -0.315129822539    -0.826585042760    12.000000000000
         C           -3.323921073708    -1.463833822539     0.177939957240    12.000000000000
         C           -1.927806073708    -2.014663822539     0.460962957240    12.000000000000
         C           -1.002887073708    -0.896366822539     0.923618957240    12.000000000000
         C           -2.802564073708     1.653578177461     0.762437957240    12.000000000000
         C            0.220393426292     1.008466377461    -0.324650642760    12.000000000000
         C            1.477145926292     0.307129177461    -0.114724042760    12.000000000000
         C            1.769206926292    -0.955464822539    -0.648831042760    12.000000000000
         C            2.488042926292     1.051312177461     0.504811957240    12.000000000000
         C            3.058295926292    -1.478326822539    -0.537249042760    12.000000000000
         C            3.770307926292     0.517722177461     0.629517957240    12.000000000000
         C            4.058025926292    -0.747347822539     0.109374957240    12.000000000000
         H           -2.088499073708     1.455596177461    -1.234317042760     1.007825032230
         H           -2.890107073708    -0.709907822539    -1.788403042760     1.007825032230
         H           -4.231975073708     0.121927177461    -1.000805042760     1.007825032230
         H           -3.977823073708    -2.254185822539    -0.208291042760     1.007825032230
         H           -3.774639073708    -1.116426822539     1.116243957240     1.007825032230
         H           -1.963570073708    -2.797663822539     1.228211957240     1.007825032230
         H           -1.514011073708    -2.465079822539    -0.450140042760     1.007825032230
         H           -1.356192073708    -0.506375822539     1.890481957240     1.007825032230
         H            0.013299926292    -1.258994822539     1.076600957240     1.007825032230
         H           -3.742721073708     2.134241177461     0.472975957240     1.007825032230
         H           -2.988746073708     1.071573177461     1.668882957240     1.007825032230
         H           -2.071860073708     2.434149177461     0.987550957240     1.007825032230
         H            0.991413926292    -1.512450822539    -1.167741042760     1.007825032230
         H            2.257105926292     2.047214177461     0.874569957240     1.007825032230
         H            3.285295926292    -2.453324822539    -0.962258042760     1.007825032230
         H            4.550387926292     1.093075177461     1.122454957240     1.007825032230
         H            5.060696926292    -1.158341822539     0.199657957240     1.007825032230

  Basis Set: AUG-CC-PVTZ
    Blend: AUG-CC-PVTZ
  Basis Set: (AUG-CC-PVTZ AUX)
    Blend: AUG-CC-PVTZ-JKFIT
	 Reference Energy          =    -631.7196284935498625 [Eh]
	 Singles Energy            =      -0.0000000000000000 [Eh]
	 Same-Spin Energy          =      -0.6883758256635255 [Eh]
	 Opposite-Spin Energy      =      -2.2111274466675903 [Eh]
	 Correlation Energy        =      -2.8995032723311160 [Eh]
	 Total Energy              =    -634.6191317658809794 [Eh]

	 ================> DF-SCS-MP2 Energies <==================
	-----------------------------------------------------------
	 SCS Same-Spin Scale       =       0.3333333333333333 [-]
	 SCS Opposite-Spin Scale   =       1.2000000000000000 [-]
	 SCS Same-Spin Energy      =      -0.2294586085545085 [Eh]
	 SCS Opposite-Spin Energy  =      -2.6533529360011081 [Eh]
	 SCS Correlation Energy    =      -2.8828115445556168 [Eh]
	 SCS Total Energy          =    -634.6024400381054420 [Eh]
	-----------------------------------------------------------

  Dipole Moment: [D]
     X:     0.1305      Y:    -2.6753      Z:     1.2216     Total:     2.9439

*** Psi4 exiting successfully. Buy a developer a beer!
