                               Psi4 1.3.2 release

  ==> Input File <==

--------------------------------------------------------------------------
#psi4
#
memory 32 gb

molecule  {
0 1
  O        0.1371160     2.1442200    -0.7498900
  N       -0.8936918     0.1952980    -0.0776535
  C       -2.2101840     0.8219870    -0.4048790
  C       -3.1715160    -0.2856370    -0.8447810
  C       -3.2543810    -1.4343410     0.1597440
  C       -1.8582660    -1.9851710     0.4427670
  C       -0.9333470    -0.8668740     0.9054230
  C       -2.7330240     1.6830710     0.7442420
  C        0.2088310     0.9821600    -0.3252730
  C        1.5466860     0.3366220    -0.1329200
  C        1.8387470    -0.9259720    -0.6670270
  C        2.5575830     1.0808050     0.4866160
  C        3.1278360    -1.4488340    -0.5554450
  C        3.8398480     0.5472150     0.6113220
  C        4.1275660    -0.7178550     0.0911790
  H       -2.0189590     1.4850890    -1.2525130
  H       -2.8205670    -0.6804150    -1.8065990
  H       -4.1624350     0.1514200    -1.0190010
  H       -3.9082830    -2.2246930    -0.2264870
  H       -3.7050990    -1.0869340     1.0980480
  H       -1.8940300    -2.7681710     1.2100160
  H       -1.4444710    -2.4355870    -0.4683360
  H       -1.2866520    -0.4768830     1.8722860
  H        0.0828400    -1.2295020     1.0584050
  H       -3.6731810     2.1637340     0.4547800
  H       -2.9192060     1.1010660     1.6506870
  H       -2.0023200     2.4636420     0.9693550
  H        1.0609540    -1.4829580    -1.1859370
  H        2.3266460     2.0767070     0.8563740
  H        3.3548360    -2.4238320    -0.9804540
  H        4.6199280     1.1225680     1.1042590
  H        5.1302370    -1.1288490     0.1814620
units angstrom
no_reorient  #important for SAPT in psi4, default
symmetry c1  #important for SAPT in psi4, default
}

set PROPERTIES_ORIGIN ["COM"]
properties('MP2/aug-cc-pvtz', properties = ['dipole'])
--------------------------------------------------------------------------

    Molecular point group: c1
  Charge       = 0
  Multiplicity = 1
  Basis Set: AUG-CC-PVTZ
    Blend: AUG-CC-PVTZ
  Basis Set: (AUG-CC-PVTZ AUX)
    Blend: AUG-CC-PVTZ-JKFIT

    Orbital Energies [Eh]
    ---------------------

    Doubly Occupied:

       1A    -20.515599     2A    -15.579529     3A    -11.349572
       4A    -11.263855     5A    -11.259535     6A    -11.249859
       7A    -11.248703     8A    -11.247098     9A    -11.244906
      10A    -11.244727    11A    -11.242720    12A    -11.229190
      13A    -11.226279    14A    -11.223264    15A    -11.211785
      16A     -1.368631    17A     -1.247199    18A     -1.160310
      19A     -1.085369    20A     -1.051668    21A     -1.031032
      22A     -1.022622    23A     -0.959725    24A     -0.898067
      25A     -0.863948    26A     -0.836983    27A     -0.833597
      28A     -0.785707    29A     -0.729182    30A     -0.717869
      31A     -0.681786    32A     -0.655954    33A     -0.638632
      34A     -0.627684    35A     -0.626326    36A     -0.605660
      37A     -0.598713    38A     -0.593110    39A     -0.586312
      40A     -0.577836    41A     -0.564689    42A     -0.543471
      43A     -0.526001    44A     -0.519560    45A     -0.507485
      46A     -0.502560    47A     -0.493799    48A     -0.492643
      49A     -0.469926    50A     -0.460949    51A     -0.452772
      52A     -0.420498    53A     -0.369363    54A     -0.344112
      55A     -0.341421

  @DF-RHF Final Energy:  -631.72831383576749

   => Energetics <=

    Nuclear Repulsion Energy =            998.6619189116945563
    One-Electron Energy =               -2840.5208822365698325
    Two-Electron Energy =                1210.1306494891077818
    Total Energy =                       -631.7283138357674943
  Basis Set: (AUG-CC-PVTZ AUX)
    Blend: AUG-CC-PVTZ-RI
    Molecular point group: c1

    Geometry (in Angstrom), charge = 0, multiplicity = 1:

       Center              X                  Y                   Z               Mass
    ------------   -----------------  -----------------  -----------------  -----------------
         O            0.071386232983     2.119300843191    -0.733120833892    15.994914619570
         N           -0.959421567017     0.170378843191    -0.060884333892    14.003074004430
         C           -2.275913767017     0.797067843191    -0.388109833892    12.000000000000
         C           -3.237245767017    -0.310556156809    -0.828011833892    12.000000000000
         C           -3.320110767017    -1.459260156809     0.176513166108    12.000000000000
         C           -1.923995767017    -2.010090156809     0.459536166108    12.000000000000
         C           -0.999076767017    -0.891793156809     0.922192166108    12.000000000000
         C           -2.798753767017     1.658151843191     0.761011166108    12.000000000000
         C            0.143101232983     0.957240843191    -0.308503833892    12.000000000000
         C            1.480956232983     0.311702843191    -0.116150833892    12.000000000000
         C            1.773017232983    -0.950891156809    -0.650257833892    12.000000000000
         C            2.491853232983     1.055885843191     0.503385166108    12.000000000000
         C            3.062106232983    -1.473753156809    -0.538675833892    12.000000000000
         C            3.774118232983     0.522295843191     0.628091166108    12.000000000000
         C            4.061836232983    -0.742774156809     0.107948166108    12.000000000000
         H           -2.084688767017     1.460169843191    -1.235743833892     1.007825032230
         H           -2.886296767017    -0.705334156809    -1.789829833892     1.007825032230
         H           -4.228164767017     0.126500843191    -1.002231833892     1.007825032230
         H           -3.974012767017    -2.249612156809    -0.209717833892     1.007825032230
         H           -3.770828767017    -1.111853156809     1.114817166108     1.007825032230
         H           -1.959759767017    -2.793090156809     1.226785166108     1.007825032230
         H           -1.510200767017    -2.460506156809    -0.451566833892     1.007825032230
         H           -1.352381767017    -0.501802156809     1.889055166108     1.007825032230
         H            0.017110232983    -1.254421156809     1.075174166108     1.007825032230
         H           -3.738910767017     2.138814843191     0.471549166108     1.007825032230
         H           -2.984935767017     1.076146843191     1.667456166108     1.007825032230
         H           -2.068049767017     2.438722843191     0.986124166108     1.007825032230
         H            0.995224232983    -1.507877156809    -1.169167833892     1.007825032230
         H            2.260916232983     2.051787843191     0.873143166108     1.007825032230
         H            3.289106232983    -2.448751156809    -0.963684833892     1.007825032230
         H            4.554198232983     1.097648843191     1.121028166108     1.007825032230
         H            5.064507232983    -1.153768156809     0.198231166108     1.007825032230

  Basis Set: AUG-CC-PVTZ
    Blend: AUG-CC-PVTZ
  Basis Set: (AUG-CC-PVTZ AUX)
    Blend: AUG-CC-PVTZ-JKFIT
	 Reference Energy          =    -631.7283138357674943 [Eh]
	 Singles Energy            =      -0.0000000000000000 [Eh]
	 Same-Spin Energy          =      -0.6887166942939579 [Eh]
	 Opposite-Spin Energy      =      -2.2117794256204979 [Eh]
	 Correlation Energy        =      -2.9004961199144557 [Eh]
	 Total Energy              =    -634.6288099556819589 [Eh]

	 ================> DF-SCS-MP2 Energies <==================
	-----------------------------------------------------------
	 SCS Same-Spin Scale       =       0.3333333333333333 [-]
	 SCS Opposite-Spin Scale   =       1.2000000000000000 [-]
	 SCS Same-Spin Energy      =      -0.2295722314313193 [Eh]
	 SCS Opposite-Spin Energy  =      -2.6541353107445973 [Eh]
	 SCS Correlation Energy    =      -2.8837075421759164 [Eh]
	 SCS Total Energy          =    -634.6120213779433925 [Eh]
	-----------------------------------------------------------

  Dipole Moment: [D]
     X:    -0.8784      Y:    -3.0751      Z:     1.4473     Total:     3.5103

*** Psi4 exiting successfully. Buy a developer a beer!
