                               Psi4 1.3.2 release

  ==> Input File <==

--------------------------------------------------------------------------
#psi4
#
memory 32 gb

molecule  {
0 1
  O        0.1371160     2.1442200    -0.7498900
  N       -0.9274593     0.1678155    -0.0952892
  C       -2.2101840     0.8219870    -0.4048790
  C       -3.1715160    -0.2856370    -0.8447810
  C       -3.2543810    -1.4343410     0.1597440
  C       -1.8582660    -1.9851710     0.4427670
  C       -0.9333470    -0.8668740     0.9054230
  C       -2.7330240     1.6830710     0.7442420
  C        0.2088310     0.9821600    -0.3252730
  C        1.5466860     0.3366220    -0.1329200
  C        1.8387470    -0.9259720    -0.6670270
  C        2.5575830     1.0808050     0.4866160
  C        3.1278360    -1.4488340    -0.5554450
  C        3.8398480     0.5472150     0.6113220
  C        4.1275660    -0.7178550     0.0911790
  H       -2.0189590     1.4850890    -1.2525130
  H       -2.8205670    -0.6804150    -1.8065990
  H       -4.1624350     0.1514200    -1.0190010
  H       -3.9082830    -2.2246930    -0.2264870
  H       -3.7050990    -1.0869340     1.0980480
  H       -1.8940300    -2.7681710     1.2100160
  H       -1.4444710    -2.4355870    -0.4683360
  H       -1.2866520    -0.4768830     1.8722860
  H        0.0828400    -1.2295020     1.0584050
  H       -3.6731810     2.1637340     0.4547800
  H       -2.9192060     1.1010660     1.6506870
  H       -2.0023200     2.4636420     0.9693550
  H        1.0609540    -1.4829580    -1.1859370
  H        2.3266460     2.0767070     0.8563740
  H        3.3548360    -2.4238320    -0.9804540
  H        4.6199280     1.1225680     1.1042590
  H        5.1302370    -1.1288490     0.1814620
units angstrom
no_reorient  #important for SAPT in psi4, default
symmetry c1  #important for SAPT in psi4, default
}

set PROPERTIES_ORIGIN ["COM"]
properties('MP2/aug-cc-pvtz', properties = ['dipole'])
--------------------------------------------------------------------------

    Molecular point group: c1
  Charge       = 0
  Multiplicity = 1
  Basis Set: AUG-CC-PVTZ
    Blend: AUG-CC-PVTZ
  Basis Set: (AUG-CC-PVTZ AUX)
    Blend: AUG-CC-PVTZ-JKFIT

    Orbital Energies [Eh]
    ---------------------

    Doubly Occupied:

       1A    -20.523208     2A    -15.577692     3A    -11.355165
       4A    -11.261014     5A    -11.256314     6A    -11.251734
       7A    -11.250308     8A    -11.248430     9A    -11.246632
      10A    -11.245799    11A    -11.243965    12A    -11.226437
      13A    -11.224408    14A    -11.220394    15A    -11.210643
      16A     -1.370578    17A     -1.247384    18A     -1.161780
      19A     -1.080251    20A     -1.051726    21A     -1.032199
      22A     -1.023879    23A     -0.955959    24A     -0.894484
      25A     -0.864094    26A     -0.838035    27A     -0.833301
      28A     -0.783434    29A     -0.729865    30A     -0.718262
      31A     -0.683585    32A     -0.654995    33A     -0.637871
      34A     -0.628472    35A     -0.625589    36A     -0.604900
      37A     -0.598756    38A     -0.594320    39A     -0.583452
      40A     -0.580412    41A     -0.562943    42A     -0.542596
      43A     -0.526677    44A     -0.520328    45A     -0.508483
      46A     -0.503307    47A     -0.493671    48A     -0.492202
      49A     -0.468781    50A     -0.460920    51A     -0.450051
      52A     -0.423182    53A     -0.367425    54A     -0.345240
      55A     -0.342896

  @DF-RHF Final Energy:  -631.72530664300950

   => Energetics <=

    Nuclear Repulsion Energy =            998.4767943617533774
    One-Electron Energy =               -2840.1473423952847952
    Two-Electron Energy =                1209.9452413905219146
    Total Energy =                       -631.7253066430093895
  Basis Set: (AUG-CC-PVTZ AUX)
    Blend: AUG-CC-PVTZ-RI
    Molecular point group: c1

    Geometry (in Angstrom), charge = 0, multiplicity = 1:

       Center              X                  Y                   Z               Mass
    ------------   -----------------  -----------------  -----------------  -----------------
         O            0.073714035084     2.121195381467    -0.731905096289    15.994914619570
         N           -0.990861264916     0.144790881467    -0.077304296289    14.003074004430
         C           -2.273585964916     0.798962381467    -0.386894096289    12.000000000000
         C           -3.234917964916    -0.308661618533    -0.826796096289    12.000000000000
         C           -3.317782964916    -1.457365618533     0.177728903711    12.000000000000
         C           -1.921667964916    -2.008195618533     0.460751903711    12.000000000000
         C           -0.996748964916    -0.889898618533     0.923407903711    12.000000000000
         C           -2.796425964916     1.660046381467     0.762226903711    12.000000000000
         C            0.145429035084     0.959135381467    -0.307288096289    12.000000000000
         C            1.483284035084     0.313597381467    -0.114935096289    12.000000000000
         C            1.775345035084    -0.948996618533    -0.649042096289    12.000000000000
         C            2.494181035084     1.057780381467     0.504600903711    12.000000000000
         C            3.064434035084    -1.471858618533    -0.537460096289    12.000000000000
         C            3.776446035084     0.524190381467     0.629306903711    12.000000000000
         C            4.064164035084    -0.740879618533     0.109163903711    12.000000000000
         H           -2.082360964916     1.462064381467    -1.234528096289     1.007825032230
         H           -2.883968964916    -0.703439618533    -1.788614096289     1.007825032230
         H           -4.225836964916     0.128395381467    -1.001016096289     1.007825032230
         H           -3.971684964916    -2.247717618533    -0.208502096289     1.007825032230
         H           -3.768500964916    -1.109958618533     1.116032903711     1.007825032230
         H           -1.957431964916    -2.791195618533     1.228000903711     1.007825032230
         H           -1.507872964916    -2.458611618533    -0.450351096289     1.007825032230
         H           -1.350053964916    -0.499907618533     1.890270903711     1.007825032230
         H            0.019438035084    -1.252526618533     1.076389903711     1.007825032230
         H           -3.736582964916     2.140709381467     0.472764903711     1.007825032230
         H           -2.982607964916     1.078041381467     1.668671903711     1.007825032230
         H           -2.065721964916     2.440617381467     0.987339903711     1.007825032230
         H            0.997552035084    -1.505982618533    -1.167952096289     1.007825032230
         H            2.263244035084     2.053682381467     0.874358903711     1.007825032230
         H            3.291434035084    -2.446856618533    -0.962469096289     1.007825032230
         H            4.556526035084     1.099543381467     1.122243903711     1.007825032230
         H            5.066835035084    -1.151873618533     0.199446903711     1.007825032230

  Basis Set: AUG-CC-PVTZ
    Blend: AUG-CC-PVTZ
  Basis Set: (AUG-CC-PVTZ AUX)
    Blend: AUG-CC-PVTZ-JKFIT
	 Reference Energy          =    -631.7253066430095032 [Eh]
	 Singles Energy            =      -0.0000000000000000 [Eh]
	 Same-Spin Energy          =      -0.6890709409200249 [Eh]
	 Opposite-Spin Energy      =      -2.2125722911896686 [Eh]
	 Correlation Energy        =      -2.9016432321096932 [Eh]
	 Total Energy              =    -634.6269498751191804 [Eh]

	 ================> DF-SCS-MP2 Energies <==================
	-----------------------------------------------------------
	 SCS Same-Spin Scale       =       0.3333333333333333 [-]
	 SCS Opposite-Spin Scale   =       1.2000000000000000 [-]
	 SCS Same-Spin Energy      =      -0.2296903136400083 [Eh]
	 SCS Opposite-Spin Energy  =      -2.6550867494276020 [Eh]
	 SCS Correlation Energy    =      -2.8847770630676104 [Eh]
	 SCS Total Energy          =    -634.6100837060771482 [Eh]
	-----------------------------------------------------------

  Dipole Moment: [D]
     X:    -0.6021      Y:    -2.9004      Z:     1.4105     Total:     3.2809

*** Psi4 exiting successfully. Buy a developer a beer!
