                               Psi4 1.3.2 release

  ==> Input File <==

--------------------------------------------------------------------------
#psi4
#
memory 32 gb

molecule  {
0 1
  O        0.1371160     2.1442200    -0.7498900
  N       -0.9079200     0.2138270    -0.0832910
  C       -2.2101840     0.8219870    -0.4048790
  C       -3.1715160    -0.2856370    -0.8447810
  C       -3.2543810    -1.4343410     0.1597440
  C       -1.8582660    -1.9851710     0.4427670
  C       -0.9333470    -0.8668740     0.9054230
  C       -2.7330240     1.6830710     0.7442420
  C        0.1972574     1.1696972    -0.3937992
  C        1.5466860     0.3366220    -0.1329200
  C        1.8387470    -0.9259720    -0.6670270
  C        2.5575830     1.0808050     0.4866160
  C        3.1278360    -1.4488340    -0.5554450
  C        3.8398480     0.5472150     0.6113220
  C        4.1275660    -0.7178550     0.0911790
  H       -2.0189590     1.4850890    -1.2525130
  H       -2.8205670    -0.6804150    -1.8065990
  H       -4.1624350     0.1514200    -1.0190010
  H       -3.9082830    -2.2246930    -0.2264870
  H       -3.7050990    -1.0869340     1.0980480
  H       -1.8940300    -2.7681710     1.2100160
  H       -1.4444710    -2.4355870    -0.4683360
  H       -1.2866520    -0.4768830     1.8722860
  H        0.0828400    -1.2295020     1.0584050
  H       -3.6731810     2.1637340     0.4547800
  H       -2.9192060     1.1010660     1.6506870
  H       -2.0023200     2.4636420     0.9693550
  H        1.0609540    -1.4829580    -1.1859370
  H        2.3266460     2.0767070     0.8563740
  H        3.3548360    -2.4238320    -0.9804540
  H        4.6199280     1.1225680     1.1042590
  H        5.1302370    -1.1288490     0.1814620
units angstrom
no_reorient  #important for SAPT in psi4, default
symmetry c1  #important for SAPT in psi4, default
}

set PROPERTIES_ORIGIN ["COM"]
properties('MP2/aug-cc-pvtz', properties = ['dipole'])
--------------------------------------------------------------------------

    Molecular point group: c1
  Charge       = 0
  Multiplicity = 1
  Basis Set: AUG-CC-PVTZ
    Blend: AUG-CC-PVTZ
  Basis Set: (AUG-CC-PVTZ AUX)
    Blend: AUG-CC-PVTZ-JKFIT

    Orbital Energies [Eh]
    ---------------------

    Doubly Occupied:

       1A    -20.557954     2A    -15.551174     3A    -11.346581
       4A    -11.254304     5A    -11.248287     6A    -11.244104
       7A    -11.242978     8A    -11.241929     9A    -11.240810
      10A    -11.239670    11A    -11.238373    12A    -11.221620
      13A    -11.219847    14A    -11.215966    15A    -11.207887
      16A     -1.532956    17A     -1.223790    18A     -1.153437
      19A     -1.067998    20A     -1.042194    21A     -1.020474
      22A     -1.016815    23A     -0.947529    24A     -0.879649
      25A     -0.850958    26A     -0.831351    27A     -0.823663
      28A     -0.772658    29A     -0.728361    30A     -0.722631
      31A     -0.708086    32A     -0.670606    33A     -0.655958
      34A     -0.636892    35A     -0.622021    36A     -0.617431
      37A     -0.606914    38A     -0.595666    39A     -0.589458
      40A     -0.575893    41A     -0.563471    42A     -0.559197
      43A     -0.528366    44A     -0.524511    45A     -0.514025
      46A     -0.500356    47A     -0.496166    48A     -0.487241
      49A     -0.467528    50A     -0.459352    51A     -0.446986
      52A     -0.396989    53A     -0.356612    54A     -0.340468
      55A     -0.336633

  @DF-RHF Final Energy:  -631.65864827214943

   => Energetics <=

    Nuclear Repulsion Energy =            998.5353071573451871
    One-Electron Energy =               -2840.1023663956543714
    Two-Electron Energy =                1209.9084109661598632
    Total Energy =                       -631.6586482721493212
  Basis Set: (AUG-CC-PVTZ AUX)
    Blend: AUG-CC-PVTZ-RI
    Molecular point group: c1

    Geometry (in Angstrom), charge = 0, multiplicity = 1:

       Center              X                  Y                   Z               Mass
    ------------   -----------------  -----------------  -----------------  -----------------
         O            0.073050783022     2.106944732193    -0.728684009051    15.994914619570
         N           -0.971985216978     0.176551732193    -0.062085009051    14.003074004430
         C           -2.274249216978     0.784711732193    -0.383673009051    12.000000000000
         C           -3.235581216978    -0.322912267807    -0.823575009051    12.000000000000
         C           -3.318446216978    -1.471616267807     0.180949990949    12.000000000000
         C           -1.922331216978    -2.022446267807     0.463972990949    12.000000000000
         C           -0.997412216978    -0.904149267807     0.926628990949    12.000000000000
         C           -2.797089216978     1.645795732193     0.765447990949    12.000000000000
         C            0.133192183022     1.132421932193    -0.372593209051    12.000000000000
         C            1.482620783022     0.299346732193    -0.111714009051    12.000000000000
         C            1.774681783022    -0.963247267807    -0.645821009051    12.000000000000
         C            2.493517783022     1.043529732193     0.507821990949    12.000000000000
         C            3.063770783022    -1.486109267807    -0.534239009051    12.000000000000
         C            3.775782783022     0.509939732193     0.632527990949    12.000000000000
         C            4.063500783022    -0.755130267807     0.112384990949    12.000000000000
         H           -2.083024216978     1.447813732193    -1.231307009051     1.007825032230
         H           -2.884632216978    -0.717690267807    -1.785393009051     1.007825032230
         H           -4.226500216978     0.114144732193    -0.997795009051     1.007825032230
         H           -3.972348216978    -2.261968267807    -0.205281009051     1.007825032230
         H           -3.769164216978    -1.124209267807     1.119253990949     1.007825032230
         H           -1.958095216978    -2.805446267807     1.231221990949     1.007825032230
         H           -1.508536216978    -2.472862267807    -0.447130009051     1.007825032230
         H           -1.350717216978    -0.514158267807     1.893491990949     1.007825032230
         H            0.018774783022    -1.266777267807     1.079610990949     1.007825032230
         H           -3.737246216978     2.126458732193     0.475985990949     1.007825032230
         H           -2.983271216978     1.063790732193     1.671892990949     1.007825032230
         H           -2.066385216978     2.426366732193     0.990560990949     1.007825032230
         H            0.996888783022    -1.520233267807    -1.164731009051     1.007825032230
         H            2.262580783022     2.039431732193     0.877579990949     1.007825032230
         H            3.290770783022    -2.461107267807    -0.959248009051     1.007825032230
         H            4.555862783022     1.085292732193     1.125464990949     1.007825032230
         H            5.066171783022    -1.166124267807     0.202667990949     1.007825032230

  Basis Set: AUG-CC-PVTZ
    Blend: AUG-CC-PVTZ
  Basis Set: (AUG-CC-PVTZ AUX)
    Blend: AUG-CC-PVTZ-JKFIT
	 Reference Energy          =    -631.6586482721494349 [Eh]
	 Singles Energy            =      -0.0000000000000000 [Eh]
	 Same-Spin Energy          =      -0.6848774649389329 [Eh]
	 Opposite-Spin Energy      =      -2.2042752864987754 [Eh]
	 Correlation Energy        =      -2.8891527514377082 [Eh]
	 Total Energy              =    -634.5478010235871125 [Eh]

	 ================> DF-SCS-MP2 Energies <==================
	-----------------------------------------------------------
	 SCS Same-Spin Scale       =       0.3333333333333333 [-]
	 SCS Opposite-Spin Scale   =       1.2000000000000000 [-]
	 SCS Same-Spin Energy      =      -0.2282924883129776 [Eh]
	 SCS Opposite-Spin Energy  =      -2.6451303437985305 [Eh]
	 SCS Correlation Energy    =      -2.8734228321115083 [Eh]
	 SCS Total Energy          =    -634.5320711042609219 [Eh]
	-----------------------------------------------------------

  Dipole Moment: [D]
     X:    -0.4124      Y:    -1.6853      Z:     0.8813     Total:     1.9461

*** Psi4 exiting successfully. Buy a developer a beer!
