                               Psi4 1.3.2 release

  ==> Input File <==

--------------------------------------------------------------------------
#psi4
#
memory 32 gb

molecule  {
0 1
  O        0.0940032     2.1416302    -0.7474926
  N       -0.9079200     0.2138270    -0.0832910
  C       -2.2101840     0.8219870    -0.4048790
  C       -3.1715160    -0.2856370    -0.8447810
  C       -3.2543810    -1.4343410     0.1597440
  C       -1.8582660    -1.9851710     0.4427670
  C       -0.9333470    -0.8668740     0.9054230
  C       -2.7330240     1.6830710     0.7442420
  C        0.2088310     0.9821600    -0.3252730
  C        1.5466860     0.3366220    -0.1329200
  C        1.8387470    -0.9259720    -0.6670270
  C        2.5575830     1.0808050     0.4866160
  C        3.1278360    -1.4488340    -0.5554450
  C        3.8398480     0.5472150     0.6113220
  C        4.1275660    -0.7178550     0.0911790
  H       -2.0189590     1.4850890    -1.2525130
  H       -2.8205670    -0.6804150    -1.8065990
  H       -4.1624350     0.1514200    -1.0190010
  H       -3.9082830    -2.2246930    -0.2264870
  H       -3.7050990    -1.0869340     1.0980480
  H       -1.8940300    -2.7681710     1.2100160
  H       -1.4444710    -2.4355870    -0.4683360
  H       -1.2866520    -0.4768830     1.8722860
  H        0.0828400    -1.2295020     1.0584050
  H       -3.6731810     2.1637340     0.4547800
  H       -2.9192060     1.1010660     1.6506870
  H       -2.0023200     2.4636420     0.9693550
  H        1.0609540    -1.4829580    -1.1859370
  H        2.3266460     2.0767070     0.8563740
  H        3.3548360    -2.4238320    -0.9804540
  H        4.6199280     1.1225680     1.1042590
  H        5.1302370    -1.1288490     0.1814620
units angstrom
no_reorient  #important for SAPT in psi4, default
symmetry c1  #important for SAPT in psi4, default
}

set PROPERTIES_ORIGIN ["COM"]
properties('MP2/aug-cc-pvtz', properties = ['dipole'])
--------------------------------------------------------------------------

    Molecular point group: c1
  Charge       = 0
  Multiplicity = 1
  Basis Set: AUG-CC-PVTZ
    Blend: AUG-CC-PVTZ
  Basis Set: (AUG-CC-PVTZ AUX)
    Blend: AUG-CC-PVTZ-JKFIT

    Orbital Energies [Eh]
    ---------------------

    Doubly Occupied:

       1A    -20.513521     2A    -15.577132     3A    -11.348796
       4A    -11.263994     5A    -11.256038     6A    -11.252241
       7A    -11.250892     8A    -11.248770     9A    -11.246858
      10A    -11.246190    11A    -11.244206    12A    -11.228740
      13A    -11.225434    14A    -11.221939    15A    -11.209588
      16A     -1.368926    17A     -1.243950    18A     -1.162150
      19A     -1.083823    20A     -1.051731    21A     -1.031655
      22A     -1.024183    23A     -0.958141    24A     -0.896577
      25A     -0.865587    26A     -0.838196    27A     -0.833091
      28A     -0.786559    29A     -0.728864    30A     -0.717411
      31A     -0.682464    32A     -0.654981    33A     -0.638677
      34A     -0.628076    35A     -0.625360    36A     -0.606095
      37A     -0.598875    38A     -0.594350    39A     -0.585846
      40A     -0.576547    41A     -0.563833    42A     -0.542474
      43A     -0.526228    44A     -0.518745    45A     -0.508161
      46A     -0.503772    47A     -0.492955    48A     -0.492613
      49A     -0.468884    50A     -0.461260    51A     -0.450152
      52A     -0.420968    53A     -0.366347    54A     -0.345569
      55A     -0.343535

  @DF-RHF Final Energy:  -631.72870927945598

   => Energetics <=

    Nuclear Repulsion Energy =            998.8790564766420630
    One-Electron Energy =               -2840.9716296028950637
    Two-Electron Energy =                1210.3638638467969031
    Total Energy =                       -631.7287092794560976
  Basis Set: (AUG-CC-PVTZ AUX)
    Blend: AUG-CC-PVTZ-RI
    Molecular point group: c1

    Geometry (in Angstrom), charge = 0, multiplicity = 1:

       Center              X                  Y                   Z               Mass
    ------------   -----------------  -----------------  -----------------  -----------------
         O            0.032649052808     2.115637650586    -0.730523581981    15.994914619570
         N           -0.969274147192     0.187834450586    -0.066321981981    14.003074004430
         C           -2.271538147192     0.795994450586    -0.387909981981    12.000000000000
         C           -3.232870147192    -0.311629549414    -0.827811981981    12.000000000000
         C           -3.315735147192    -1.460333549414     0.176713018019    12.000000000000
         C           -1.919620147192    -2.011163549414     0.459736018019    12.000000000000
         C           -0.994701147192    -0.892866549414     0.922392018019    12.000000000000
         C           -2.794378147192     1.657078450586     0.761211018019    12.000000000000
         C            0.147476852808     0.956167450586    -0.308303981981    12.000000000000
         C            1.485331852808     0.310629450586    -0.115950981981    12.000000000000
         C            1.777392852808    -0.951964549414    -0.650057981981    12.000000000000
         C            2.496228852808     1.054812450586     0.503585018019    12.000000000000
         C            3.066481852808    -1.474826549414    -0.538475981981    12.000000000000
         C            3.778493852808     0.521222450586     0.628291018019    12.000000000000
         C            4.066211852808    -0.743847549414     0.108148018019    12.000000000000
         H           -2.080313147192     1.459096450586    -1.235543981981     1.007825032230
         H           -2.881921147192    -0.706407549414    -1.789629981981     1.007825032230
         H           -4.223789147192     0.125427450586    -1.002031981981     1.007825032230
         H           -3.969637147192    -2.250685549414    -0.209517981981     1.007825032230
         H           -3.766453147192    -1.112926549414     1.115017018019     1.007825032230
         H           -1.955384147192    -2.794163549414     1.226985018019     1.007825032230
         H           -1.505825147192    -2.461579549414    -0.451366981981     1.007825032230
         H           -1.348006147192    -0.502875549414     1.889255018019     1.007825032230
         H            0.021485852808    -1.255494549414     1.075374018019     1.007825032230
         H           -3.734535147192     2.137741450586     0.471749018019     1.007825032230
         H           -2.980560147192     1.075073450586     1.667656018019     1.007825032230
         H           -2.063674147192     2.437649450586     0.986324018019     1.007825032230
         H            0.999599852808    -1.508950549414    -1.168967981981     1.007825032230
         H            2.265291852808     2.050714450586     0.873343018019     1.007825032230
         H            3.293481852808    -2.449824549414    -0.963484981981     1.007825032230
         H            4.558573852808     1.096575450586     1.121228018019     1.007825032230
         H            5.068882852808    -1.154841549414     0.198431018019     1.007825032230

  Basis Set: AUG-CC-PVTZ
    Blend: AUG-CC-PVTZ
  Basis Set: (AUG-CC-PVTZ AUX)
    Blend: AUG-CC-PVTZ-JKFIT
	 Reference Energy          =    -631.7287092794559840 [Eh]
	 Singles Energy            =      -0.0000000000000000 [Eh]
	 Same-Spin Energy          =      -0.6887129924086552 [Eh]
	 Opposite-Spin Energy      =      -2.2116560294434464 [Eh]
	 Correlation Energy        =      -2.9003690218521019 [Eh]
	 Total Energy              =    -634.6290783013081409 [Eh]

	 ================> DF-SCS-MP2 Energies <==================
	-----------------------------------------------------------
	 SCS Same-Spin Scale       =       0.3333333333333333 [-]
	 SCS Opposite-Spin Scale   =       1.2000000000000000 [-]
	 SCS Same-Spin Energy      =      -0.2295709974695517 [Eh]
	 SCS Opposite-Spin Energy  =      -2.6539872353321354 [Eh]
	 SCS Correlation Energy    =      -2.8835582328016871 [Eh]
	 SCS Total Energy          =    -634.6122675122576311 [Eh]
	-----------------------------------------------------------

  Dipole Moment: [D]
     X:    -0.6560      Y:    -3.1331      Z:     1.4526     Total:     3.5152

*** Psi4 exiting successfully. Buy a developer a beer!
