                               Psi4 1.3.2 release

  ==> Input File <==

--------------------------------------------------------------------------
#psi4
#
memory 32 gb

molecule  {
0 1
  O        0.1371160     2.1442200    -0.7498900
  N       -0.9079200     0.2138270    -0.0832910
  C       -2.2101840     0.8219870    -0.4048790
  C       -3.1715160    -0.2856370    -0.8447810
  C       -3.2543810    -1.4343410     0.1597440
  C       -1.8582660    -1.9851710     0.4427670
  C       -0.9333470    -0.8668740     0.9054230
  C       -2.7330240     1.6830710     0.7442420
  C        0.1800523     0.8977790    -0.3798816
  C        1.5466860     0.3366220    -0.1329200
  C        1.8387470    -0.9259720    -0.6670270
  C        2.5575830     1.0808050     0.4866160
  C        3.1278360    -1.4488340    -0.5554450
  C        3.8398480     0.5472150     0.6113220
  C        4.1275660    -0.7178550     0.0911790
  H       -2.0189590     1.4850890    -1.2525130
  H       -2.8205670    -0.6804150    -1.8065990
  H       -4.1624350     0.1514200    -1.0190010
  H       -3.9082830    -2.2246930    -0.2264870
  H       -3.7050990    -1.0869340     1.0980480
  H       -1.8940300    -2.7681710     1.2100160
  H       -1.4444710    -2.4355870    -0.4683360
  H       -1.2866520    -0.4768830     1.8722860
  H        0.0828400    -1.2295020     1.0584050
  H       -3.6731810     2.1637340     0.4547800
  H       -2.9192060     1.1010660     1.6506870
  H       -2.0023200     2.4636420     0.9693550
  H        1.0609540    -1.4829580    -1.1859370
  H        2.3266460     2.0767070     0.8563740
  H        3.3548360    -2.4238320    -0.9804540
  H        4.6199280     1.1225680     1.1042590
  H        5.1302370    -1.1288490     0.1814620
units angstrom
no_reorient  #important for SAPT in psi4, default
symmetry c1  #important for SAPT in psi4, default
}

set PROPERTIES_ORIGIN ["COM"]
properties('MP2/aug-cc-pvtz', properties = ['dipole'])
--------------------------------------------------------------------------

    Molecular point group: c1
  Charge       = 0
  Multiplicity = 1
  Basis Set: AUG-CC-PVTZ
    Blend: AUG-CC-PVTZ
  Basis Set: (AUG-CC-PVTZ AUX)
    Blend: AUG-CC-PVTZ-JKFIT

    Orbital Energies [Eh]
    ---------------------

    Doubly Occupied:

       1A    -20.498042     2A    -15.590271     3A    -11.347156
       4A    -11.271589     5A    -11.262532     6A    -11.250979
       7A    -11.247989     8A    -11.246835     9A    -11.245489
      10A    -11.244064    11A    -11.242817    12A    -11.233674
      13A    -11.229704    14A    -11.226478    15A    -11.213219
      16A     -1.342037    17A     -1.247141    18A     -1.159871
      19A     -1.092830    20A     -1.057063    21A     -1.030719
      22A     -1.022135    23A     -0.966965    24A     -0.903984
      25A     -0.869555    26A     -0.837682    27A     -0.834926
      28A     -0.793939    29A     -0.730605    30A     -0.721631
      31A     -0.679565    32A     -0.657225    33A     -0.640716
      34A     -0.630496    35A     -0.622647    36A     -0.610688
      37A     -0.597361    38A     -0.592551    39A     -0.588087
      40A     -0.573955    41A     -0.564543    42A     -0.540123
      43A     -0.526605    44A     -0.519429    45A     -0.505360
      46A     -0.500533    47A     -0.497737    48A     -0.487688
      49A     -0.467863    50A     -0.465009    51A     -0.456091
      52A     -0.410831    53A     -0.368493    54A     -0.343997
      55A     -0.339741

  @DF-RHF Final Energy:  -631.71642300987628

   => Energetics <=

    Nuclear Repulsion Energy =            998.9979255350075391
    One-Electron Energy =               -2841.1301902649070144
    Two-Electron Energy =                1210.4158417200230815
    Total Energy =                       -631.7164230098762800
  Basis Set: (AUG-CC-PVTZ AUX)
    Blend: AUG-CC-PVTZ-RI
    Molecular point group: c1

    Geometry (in Angstrom), charge = 0, multiplicity = 1:

       Center              X                  Y                   Z               Mass
    ------------   -----------------  -----------------  -----------------  -----------------
         O            0.074067177298     2.123008347162    -0.729506193692    15.994914619570
         N           -0.970968822702     0.192615347162    -0.062907193692    14.003074004430
         C           -2.273232822702     0.800775347162    -0.384495193692    12.000000000000
         C           -3.234564822702    -0.306848652838    -0.824397193692    12.000000000000
         C           -3.317429822702    -1.455552652838     0.180127806308    12.000000000000
         C           -1.921314822702    -2.006382652838     0.463150806308    12.000000000000
         C           -0.996395822702    -0.888085652838     0.925806806308    12.000000000000
         C           -2.796072822702     1.661859347162     0.764625806308    12.000000000000
         C            0.117003477298     0.876567347162    -0.359497793692    12.000000000000
         C            1.483637177298     0.315410347162    -0.112536193692    12.000000000000
         C            1.775698177298    -0.947183652838    -0.646643193692    12.000000000000
         C            2.494534177298     1.059593347162     0.506999806308    12.000000000000
         C            3.064787177298    -1.470045652838    -0.535061193692    12.000000000000
         C            3.776799177298     0.526003347162     0.631705806308    12.000000000000
         C            4.064517177298    -0.739066652838     0.111562806308    12.000000000000
         H           -2.082007822702     1.463877347162    -1.232129193692     1.007825032230
         H           -2.883615822702    -0.701626652838    -1.786215193692     1.007825032230
         H           -4.225483822702     0.130208347162    -0.998617193692     1.007825032230
         H           -3.971331822702    -2.245904652838    -0.206103193692     1.007825032230
         H           -3.768147822702    -1.108145652838     1.118431806308     1.007825032230
         H           -1.957078822702    -2.789382652838     1.230399806308     1.007825032230
         H           -1.507519822702    -2.456798652838    -0.447952193692     1.007825032230
         H           -1.349700822702    -0.498094652838     1.892669806308     1.007825032230
         H            0.019791177298    -1.250713652838     1.078788806308     1.007825032230
         H           -3.736229822702     2.142522347162     0.475163806308     1.007825032230
         H           -2.982254822702     1.079854347162     1.671070806308     1.007825032230
         H           -2.065368822702     2.442430347162     0.989738806308     1.007825032230
         H            0.997905177298    -1.504169652838    -1.165553193692     1.007825032230
         H            2.263597177298     2.055495347162     0.876757806308     1.007825032230
         H            3.291787177298    -2.445043652838    -0.960070193692     1.007825032230
         H            4.556879177298     1.101356347162     1.124642806308     1.007825032230
         H            5.067188177298    -1.150060652838     0.201845806308     1.007825032230

  Basis Set: AUG-CC-PVTZ
    Blend: AUG-CC-PVTZ
  Basis Set: (AUG-CC-PVTZ AUX)
    Blend: AUG-CC-PVTZ-JKFIT
	 Reference Energy          =    -631.7164230098762800 [Eh]
	 Singles Energy            =      -0.0000000000000000 [Eh]
	 Same-Spin Energy          =      -0.6898281683349254 [Eh]
	 Opposite-Spin Energy      =      -2.2139757361681376 [Eh]
	 Correlation Energy        =      -2.9038039045030630 [Eh]
	 Total Energy              =    -634.6202269143793728 [Eh]

	 ================> DF-SCS-MP2 Energies <==================
	-----------------------------------------------------------
	 SCS Same-Spin Scale       =       0.3333333333333333 [-]
	 SCS Opposite-Spin Scale   =       1.2000000000000000 [-]
	 SCS Same-Spin Energy      =      -0.2299427227783085 [Eh]
	 SCS Opposite-Spin Energy  =      -2.6567708834017649 [Eh]
	 SCS Correlation Energy    =      -2.8867136061800736 [Eh]
	 SCS Total Energy          =    -634.6031366160563039 [Eh]
	-----------------------------------------------------------

  Dipole Moment: [D]
     X:    -1.2281      Y:    -3.5606      Z:     1.6329     Total:     4.1052

*** Psi4 exiting successfully. Buy a developer a beer!
