                               Psi4 1.3.2 release

  ==> Input File <==

--------------------------------------------------------------------------
#psi4
#
memory 32 gb

molecule  {
0 1
  O        0.1371160     2.1442200    -0.7498900
  N       -0.9079200     0.2138270    -0.0832910
  C       -2.2101840     0.8219870    -0.4048790
  C       -3.2712693    -0.2326153    -0.7310934
  C       -3.2543810    -1.4343410     0.1597440
  C       -1.8582660    -1.9851710     0.4427670
  C       -0.9333470    -0.8668740     0.9054230
  C       -2.7330240     1.6830710     0.7442420
  C        0.2088310     0.9821600    -0.3252730
  C        1.5466860     0.3366220    -0.1329200
  C        1.8387470    -0.9259720    -0.6670270
  C        2.5575830     1.0808050     0.4866160
  C        3.1278360    -1.4488340    -0.5554450
  C        3.8398480     0.5472150     0.6113220
  C        4.1275660    -0.7178550     0.0911790
  H       -2.0189590     1.4850890    -1.2525130
  H       -2.8205670    -0.6804150    -1.8065990
  H       -4.1624350     0.1514200    -1.0190010
  H       -3.9082830    -2.2246930    -0.2264870
  H       -3.7050990    -1.0869340     1.0980480
  H       -1.8940300    -2.7681710     1.2100160
  H       -1.4444710    -2.4355870    -0.4683360
  H       -1.2866520    -0.4768830     1.8722860
  H        0.0828400    -1.2295020     1.0584050
  H       -3.6731810     2.1637340     0.4547800
  H       -2.9192060     1.1010660     1.6506870
  H       -2.0023200     2.4636420     0.9693550
  H        1.0609540    -1.4829580    -1.1859370
  H        2.3266460     2.0767070     0.8563740
  H        3.3548360    -2.4238320    -0.9804540
  H        4.6199280     1.1225680     1.1042590
  H        5.1302370    -1.1288490     0.1814620
units angstrom
no_reorient  #important for SAPT in psi4, default
symmetry c1  #important for SAPT in psi4, default
}

set PROPERTIES_ORIGIN ["COM"]
properties('MP2/aug-cc-pvtz', properties = ['dipole'])
--------------------------------------------------------------------------

    Molecular point group: c1
  Charge       = 0
  Multiplicity = 1
  Basis Set: AUG-CC-PVTZ
    Blend: AUG-CC-PVTZ
  Basis Set: (AUG-CC-PVTZ AUX)
    Blend: AUG-CC-PVTZ-JKFIT

    Orbital Energies [Eh]
    ---------------------

    Doubly Occupied:

       1A    -20.515593     2A    -15.581789     3A    -11.350665
       4A    -11.266411     5A    -11.260169     6A    -11.251254
       7A    -11.249920     8A    -11.247972     9A    -11.245975
      10A    -11.245498    11A    -11.243535    12A    -11.232345
      13A    -11.229486    14A    -11.227565    15A    -11.208598
      16A     -1.369739    17A     -1.247478    18A     -1.161331
      19A     -1.089784    20A     -1.054378    21A     -1.032587
      22A     -1.023499    23A     -0.960857    24A     -0.895607
      25A     -0.869596    26A     -0.838818    27A     -0.834894
      28A     -0.789238    29A     -0.728461    30A     -0.718093
      31A     -0.683220    32A     -0.656900    33A     -0.639496
      34A     -0.631371    35A     -0.623927    36A     -0.608780
      37A     -0.598441    38A     -0.594933    39A     -0.591591
      40A     -0.581395    41A     -0.570069    42A     -0.540107
      43A     -0.526416    44A     -0.523578    45A     -0.509602
      46A     -0.503720    47A     -0.493968    48A     -0.491490
      49A     -0.476706    50A     -0.460713    51A     -0.427554
      52A     -0.420954    53A     -0.367674    54A     -0.344924
      55A     -0.342396

  @DF-RHF Final Energy:  -631.70350904281077

   => Energetics <=

    Nuclear Repulsion Energy =            998.4126648399975466
    One-Electron Energy =               -2839.8702251043191609
    Two-Electron Energy =                1209.7540512215109629
    Total Energy =                       -631.7035090428107651
  Basis Set: (AUG-CC-PVTZ AUX)
    Blend: AUG-CC-PVTZ-RI
    Molecular point group: c1

    Geometry (in Angstrom), charge = 0, multiplicity = 1:

       Center              X                  Y                   Z               Mass
    ------------   -----------------  -----------------  -----------------  -----------------
         O            0.078260014140     2.114891258756    -0.739448320985    15.994914619570
         N           -0.966775985860     0.184498258756    -0.072849320985    14.003074004430
         C           -2.269039985860     0.792658258756    -0.394437320985    12.000000000000
         C           -3.330125285860    -0.261944041244    -0.720651720985    12.000000000000
         C           -3.313236985860    -1.463669741244     0.170185679015    12.000000000000
         C           -1.917121985860    -2.014499741244     0.453208679015    12.000000000000
         C           -0.992202985860    -0.896202741244     0.915864679015    12.000000000000
         C           -2.791879985860     1.653742258756     0.754683679015    12.000000000000
         C            0.149975014140     0.952831258756    -0.314831320985    12.000000000000
         C            1.487830014140     0.307293258756    -0.122478320985    12.000000000000
         C            1.779891014140    -0.955300741244    -0.656585320985    12.000000000000
         C            2.498727014140     1.051476258756     0.497057679015    12.000000000000
         C            3.068980014140    -1.478162741244    -0.545003320985    12.000000000000
         C            3.780992014140     0.517886258756     0.621763679015    12.000000000000
         C            4.068710014140    -0.747183741244     0.101620679015    12.000000000000
         H           -2.077814985860     1.455760258756    -1.242071320985     1.007825032230
         H           -2.879422985860    -0.709743741244    -1.796157320985     1.007825032230
         H           -4.221290985860     0.122091258756    -1.008559320985     1.007825032230
         H           -3.967138985860    -2.254021741244    -0.216045320985     1.007825032230
         H           -3.763954985860    -1.116262741244     1.108489679015     1.007825032230
         H           -1.952885985860    -2.797499741244     1.220457679015     1.007825032230
         H           -1.503326985860    -2.464915741244    -0.457894320985     1.007825032230
         H           -1.345507985860    -0.506211741244     1.882727679015     1.007825032230
         H            0.023984014140    -1.258830741244     1.068846679015     1.007825032230
         H           -3.732036985860     2.134405258756     0.465221679015     1.007825032230
         H           -2.978061985860     1.071737258756     1.661128679015     1.007825032230
         H           -2.061175985860     2.434313258756     0.979796679015     1.007825032230
         H            1.002098014140    -1.512286741244    -1.175495320985     1.007825032230
         H            2.267790014140     2.047378258756     0.866815679015     1.007825032230
         H            3.295980014140    -2.453160741244    -0.970012320985     1.007825032230
         H            4.561072014140     1.093239258756     1.114700679015     1.007825032230
         H            5.071381014140    -1.158177741244     0.191903679015     1.007825032230

  Basis Set: AUG-CC-PVTZ
    Blend: AUG-CC-PVTZ
  Basis Set: (AUG-CC-PVTZ AUX)
    Blend: AUG-CC-PVTZ-JKFIT
	 Reference Energy          =    -631.7035090428107651 [Eh]
	 Singles Energy            =      -0.0000000000000000 [Eh]
	 Same-Spin Energy          =      -0.6892423981588004 [Eh]
	 Opposite-Spin Energy      =      -2.2131347664974408 [Eh]
	 Correlation Energy        =      -2.9023771646562411 [Eh]
	 Total Energy              =    -634.6058862074670515 [Eh]

	 ================> DF-SCS-MP2 Energies <==================
	-----------------------------------------------------------
	 SCS Same-Spin Scale       =       0.3333333333333333 [-]
	 SCS Opposite-Spin Scale   =       1.2000000000000000 [-]
	 SCS Same-Spin Energy      =      -0.2297474660529334 [Eh]
	 SCS Opposite-Spin Energy  =      -2.6557617197969288 [Eh]
	 SCS Correlation Energy    =      -2.8855091858498620 [Eh]
	 SCS Total Energy          =    -634.5890182286606205 [Eh]
	-----------------------------------------------------------

  Dipole Moment: [D]
     X:    -0.8029      Y:    -3.1217      Z:     1.5663     Total:     3.5837

*** Psi4 exiting successfully. Buy a developer a beer!
