                               Psi4 1.3.2 release

  ==> Input File <==

--------------------------------------------------------------------------
#psi4
#
memory 32 gb

molecule  {
0 1
  O        0.2235511     2.1451507    -0.7531305
  N       -0.9079200     0.2138270    -0.0832910
  C       -2.2101840     0.8219870    -0.4048790
  C       -3.1715160    -0.2856370    -0.8447810
  C       -3.2543810    -1.4343410     0.1597440
  C       -1.8582660    -1.9851710     0.4427670
  C       -0.9333470    -0.8668740     0.9054230
  C       -2.7330240     1.6830710     0.7442420
  C        0.2088310     0.9821600    -0.3252730
  C        1.5466860     0.3366220    -0.1329200
  C        1.8387470    -0.9259720    -0.6670270
  C        2.5575830     1.0808050     0.4866160
  C        3.1278360    -1.4488340    -0.5554450
  C        3.8398480     0.5472150     0.6113220
  C        4.1275660    -0.7178550     0.0911790
  H       -2.0189590     1.4850890    -1.2525130
  H       -2.8205670    -0.6804150    -1.8065990
  H       -4.1624350     0.1514200    -1.0190010
  H       -3.9082830    -2.2246930    -0.2264870
  H       -3.7050990    -1.0869340     1.0980480
  H       -1.8940300    -2.7681710     1.2100160
  H       -1.4444710    -2.4355870    -0.4683360
  H       -1.2866520    -0.4768830     1.8722860
  H        0.0828400    -1.2295020     1.0584050
  H       -3.6731810     2.1637340     0.4547800
  H       -2.9192060     1.1010660     1.6506870
  H       -2.0023200     2.4636420     0.9693550
  H        1.0609540    -1.4829580    -1.1859370
  H        2.3266460     2.0767070     0.8563740
  H        3.3548360    -2.4238320    -0.9804540
  H        4.6199280     1.1225680     1.1042590
  H        5.1302370    -1.1288490     0.1814620
units angstrom
no_reorient  #important for SAPT in psi4, default
symmetry c1  #important for SAPT in psi4, default
}

set PROPERTIES_ORIGIN ["COM"]
properties('MP2/aug-cc-pvtz', properties = ['dipole'])
--------------------------------------------------------------------------

    Molecular point group: c1
  Charge       = 0
  Multiplicity = 1
  Basis Set: AUG-CC-PVTZ
    Blend: AUG-CC-PVTZ
  Basis Set: (AUG-CC-PVTZ AUX)
    Blend: AUG-CC-PVTZ-JKFIT

    Orbital Energies [Eh]
    ---------------------

    Doubly Occupied:

       1A    -20.515914     2A    -15.583112     3A    -11.349635
       4A    -11.267146     5A    -11.260808     6A    -11.247432
       7A    -11.246279     8A    -11.244861     9A    -11.242903
      10A    -11.242438    11A    -11.240808    12A    -11.231071
      13A    -11.227883    14A    -11.224948    15A    -11.213134
      16A     -1.368335    17A     -1.251170    18A     -1.158038
      19A     -1.086650    20A     -1.054032    21A     -1.028757
      22A     -1.020588    23A     -0.961271    24A     -0.898789
      25A     -0.865457    26A     -0.836502    27A     -0.832819
      28A     -0.787263    29A     -0.729584    30A     -0.718424
      31A     -0.680826    32A     -0.654664    33A     -0.638726
      34A     -0.628600    35A     -0.626087    36A     -0.606261
      37A     -0.598969    38A     -0.591713    39A     -0.587947
      40A     -0.579322    41A     -0.566120    42A     -0.544037
      43A     -0.526343    44A     -0.520647    45A     -0.506442
      46A     -0.501161    47A     -0.495305    48A     -0.492369
      49A     -0.471793    50A     -0.464511    51A     -0.453999
      52A     -0.420413    53A     -0.371362    54A     -0.342318
      55A     -0.338038

  @DF-RHF Final Energy:  -631.72777840412880

   => Energetics <=

    Nuclear Repulsion Energy =            998.3595764435611954
    One-Electron Energy =               -2839.8866550236989497
    Two-Electron Energy =                1209.7993001760089555
    Total Energy =                       -631.7277784041286850
  Basis Set: (AUG-CC-PVTZ AUX)
    Blend: AUG-CC-PVTZ-RI
    Molecular point group: c1

    Geometry (in Angstrom), charge = 0, multiplicity = 1:

       Center              X                  Y                   Z               Mass
    ------------   -----------------  -----------------  -----------------  -----------------
         O            0.151996109731     2.118880939855    -0.735717543228    15.994914619570
         N           -0.979474990269     0.187557239855    -0.065878043228    14.003074004430
         C           -2.281738990269     0.795717239855    -0.387466043228    12.000000000000
         C           -3.243070990269    -0.311906760145    -0.827368043228    12.000000000000
         C           -3.325935990269    -1.460610760145     0.177156956772    12.000000000000
         C           -1.929820990269    -2.011440760145     0.460179956772    12.000000000000
         C           -1.004901990269    -0.893143760145     0.922835956772    12.000000000000
         C           -2.804578990269     1.656801239855     0.761654956772    12.000000000000
         C            0.137276009731     0.955890239855    -0.307860043228    12.000000000000
         C            1.475131009731     0.310352239855    -0.115507043228    12.000000000000
         C            1.767192009731    -0.952241760145    -0.649614043228    12.000000000000
         C            2.486028009731     1.054535239855     0.504028956772    12.000000000000
         C            3.056281009731    -1.475103760145    -0.538032043228    12.000000000000
         C            3.768293009731     0.520945239855     0.628734956772    12.000000000000
         C            4.056011009731    -0.744124760145     0.108591956772    12.000000000000
         H           -2.090513990269     1.458819239855    -1.235100043228     1.007825032230
         H           -2.892121990269    -0.706684760145    -1.789186043228     1.007825032230
         H           -4.233989990269     0.125150239855    -1.001588043228     1.007825032230
         H           -3.979837990269    -2.250962760145    -0.209074043228     1.007825032230
         H           -3.776653990269    -1.113203760145     1.115460956772     1.007825032230
         H           -1.965584990269    -2.794440760145     1.227428956772     1.007825032230
         H           -1.516025990269    -2.461856760145    -0.450923043228     1.007825032230
         H           -1.358206990269    -0.503152760145     1.889698956772     1.007825032230
         H            0.011285009731    -1.255771760145     1.075817956772     1.007825032230
         H           -3.744735990269     2.137464239855     0.472192956772     1.007825032230
         H           -2.990760990269     1.074796239855     1.668099956772     1.007825032230
         H           -2.073874990269     2.437372239855     0.986767956772     1.007825032230
         H            0.989399009731    -1.509227760145    -1.168524043228     1.007825032230
         H            2.255091009731     2.050437239855     0.873786956772     1.007825032230
         H            3.283281009731    -2.450101760145    -0.963041043228     1.007825032230
         H            4.548373009731     1.096298239855     1.121671956772     1.007825032230
         H            5.058682009731    -1.155118760145     0.198874956772     1.007825032230

  Basis Set: AUG-CC-PVTZ
    Blend: AUG-CC-PVTZ
  Basis Set: (AUG-CC-PVTZ AUX)
    Blend: AUG-CC-PVTZ-JKFIT
	 Reference Energy          =    -631.7277784041287987 [Eh]
	 Singles Energy            =      -0.0000000000000000 [Eh]
	 Same-Spin Energy          =      -0.6885887387031906 [Eh]
	 Opposite-Spin Energy      =      -2.2116962471294666 [Eh]
	 Correlation Energy        =      -2.9002849858326574 [Eh]
	 Total Energy              =    -634.6280633899614259 [Eh]

	 ================> DF-SCS-MP2 Energies <==================
	-----------------------------------------------------------
	 SCS Same-Spin Scale       =       0.3333333333333333 [-]
	 SCS Opposite-Spin Scale   =       1.2000000000000000 [-]
	 SCS Same-Spin Energy      =      -0.2295295795677302 [Eh]
	 SCS Opposite-Spin Energy  =      -2.6540354965553599 [Eh]
	 SCS Correlation Energy    =      -2.8835650761230900 [Eh]
	 SCS Total Energy          =    -634.6113434802518896 [Eh]
	-----------------------------------------------------------

  Dipole Moment: [D]
     X:    -1.1920      Y:    -3.1051      Z:     1.4803     Total:     3.6406

*** Psi4 exiting successfully. Buy a developer a beer!
