                               Psi4 1.3.2 release

  ==> Input File <==

--------------------------------------------------------------------------
#psi4
#
memory 32 gb

molecule  {
0 1
  O        0.1371160     2.1442200    -0.7498900
  N       -0.9079200     0.2138270    -0.0832910
  C       -2.2101840     0.8219870    -0.4048790
  C       -3.1715160    -0.2856370    -0.8447810
  C       -3.2543810    -1.4343410     0.1597440
  C       -1.8582660    -1.9851710     0.4427670
  C       -0.9333470    -0.8668740     0.9054230
  C       -2.7330240     1.6830710     0.7442420
  C        0.1277285     0.9263608    -0.3076994
  C        1.5466860     0.3366220    -0.1329200
  C        1.8387470    -0.9259720    -0.6670270
  C        2.5575830     1.0808050     0.4866160
  C        3.1278360    -1.4488340    -0.5554450
  C        3.8398480     0.5472150     0.6113220
  C        4.1275660    -0.7178550     0.0911790
  H       -2.0189590     1.4850890    -1.2525130
  H       -2.8205670    -0.6804150    -1.8065990
  H       -4.1624350     0.1514200    -1.0190010
  H       -3.9082830    -2.2246930    -0.2264870
  H       -3.7050990    -1.0869340     1.0980480
  H       -1.8940300    -2.7681710     1.2100160
  H       -1.4444710    -2.4355870    -0.4683360
  H       -1.2866520    -0.4768830     1.8722860
  H        0.0828400    -1.2295020     1.0584050
  H       -3.6731810     2.1637340     0.4547800
  H       -2.9192060     1.1010660     1.6506870
  H       -2.0023200     2.4636420     0.9693550
  H        1.0609540    -1.4829580    -1.1859370
  H        2.3266460     2.0767070     0.8563740
  H        3.3548360    -2.4238320    -0.9804540
  H        4.6199280     1.1225680     1.1042590
  H        5.1302370    -1.1288490     0.1814620
units angstrom
no_reorient  #important for SAPT in psi4, default
symmetry c1  #important for SAPT in psi4, default
}

set PROPERTIES_ORIGIN ["COM"]
properties('MP2/aug-cc-pvtz', properties = ['dipole'])
--------------------------------------------------------------------------

    Molecular point group: c1
  Charge       = 0
  Multiplicity = 1
  Basis Set: AUG-CC-PVTZ
    Blend: AUG-CC-PVTZ
  Basis Set: (AUG-CC-PVTZ AUX)
    Blend: AUG-CC-PVTZ-JKFIT

    Orbital Energies [Eh]
    ---------------------

    Doubly Occupied:

       1A    -20.495842     2A    -15.595166     3A    -11.344060
       4A    -11.275722     5A    -11.265998     6A    -11.250464
       7A    -11.244210     8A    -11.242631     9A    -11.241296
      10A    -11.240557    11A    -11.239311    12A    -11.236827
      13A    -11.232322    14A    -11.229426    15A    -11.216585
      16A     -1.351430    17A     -1.256493    18A     -1.155164
      19A     -1.099206    20A     -1.060242    21A     -1.024201
      22A     -1.018527    23A     -0.972668    24A     -0.908886
      25A     -0.869242    26A     -0.836165    27A     -0.831067
      28A     -0.797005    29A     -0.731984    30A     -0.720218
      31A     -0.676005    32A     -0.661121    33A     -0.641415
      34A     -0.632169    35A     -0.622675    36A     -0.610854
      37A     -0.599614    38A     -0.593588    39A     -0.589384
      40A     -0.576906    41A     -0.564135    42A     -0.542831
      43A     -0.528538    44A     -0.519300    45A     -0.503711
      46A     -0.499601    47A     -0.497652    48A     -0.489061
      49A     -0.469895    50A     -0.467107    51A     -0.459514
      52A     -0.406968    53A     -0.376035    54A     -0.340878
      55A     -0.334528

  @DF-RHF Final Energy:  -631.71410261545668

   => Energetics <=

    Nuclear Repulsion Energy =            999.4235313230976772
    One-Electron Energy =               -2841.9024631220609081
    Two-Electron Energy =                1210.7648291835066630
    Total Energy =                       -631.7141026154565679
  Basis Set: (AUG-CC-PVTZ AUX)
    Blend: AUG-CC-PVTZ-RI
    Molecular point group: c1

    Geometry (in Angstrom), charge = 0, multiplicity = 1:

       Center              X                  Y                   Z               Mass
    ------------   -----------------  -----------------  -----------------  -----------------
         O            0.077158214885     2.121319872355    -0.733770369714    15.994914619570
         N           -0.967877785115     0.190926872355    -0.067171369714    14.003074004430
         C           -2.270141785115     0.799086872355    -0.388759369714    12.000000000000
         C           -3.231473785115    -0.308537127645    -0.828661369714    12.000000000000
         C           -3.314338785115    -1.457241127645     0.175863630286    12.000000000000
         C           -1.918223785115    -2.008071127645     0.458886630286    12.000000000000
         C           -0.993304785115    -0.889774127645     0.921542630286    12.000000000000
         C           -2.792981785115     1.660170872355     0.760361630286    12.000000000000
         C            0.067770714885     0.903460672355    -0.291579769714    12.000000000000
         C            1.486728214885     0.313721872355    -0.116800369714    12.000000000000
         C            1.778789214885    -0.948872127645    -0.650907369714    12.000000000000
         C            2.497625214885     1.057904872355     0.502735630286    12.000000000000
         C            3.067878214885    -1.471734127645    -0.539325369714    12.000000000000
         C            3.779890214885     0.524314872355     0.627441630286    12.000000000000
         C            4.067608214885    -0.740755127645     0.107298630286    12.000000000000
         H           -2.078916785115     1.462188872355    -1.236393369714     1.007825032230
         H           -2.880524785115    -0.703315127645    -1.790479369714     1.007825032230
         H           -4.222392785115     0.128519872355    -1.002881369714     1.007825032230
         H           -3.968240785115    -2.247593127645    -0.210367369714     1.007825032230
         H           -3.765056785115    -1.109834127645     1.114167630286     1.007825032230
         H           -1.953987785115    -2.791071127645     1.226135630286     1.007825032230
         H           -1.504428785115    -2.458487127645    -0.452216369714     1.007825032230
         H           -1.346609785115    -0.499783127645     1.888405630286     1.007825032230
         H            0.022882214885    -1.252402127645     1.074524630286     1.007825032230
         H           -3.733138785115     2.140833872355     0.470899630286     1.007825032230
         H           -2.979163785115     1.078165872355     1.666806630286     1.007825032230
         H           -2.062277785115     2.440741872355     0.985474630286     1.007825032230
         H            1.000996214885    -1.505858127645    -1.169817369714     1.007825032230
         H            2.266688214885     2.053806872355     0.872493630286     1.007825032230
         H            3.294878214885    -2.446732127645    -0.964334369714     1.007825032230
         H            4.559970214885     1.099667872355     1.120378630286     1.007825032230
         H            5.070279214885    -1.151749127645     0.197581630286     1.007825032230

  Basis Set: AUG-CC-PVTZ
    Blend: AUG-CC-PVTZ
  Basis Set: (AUG-CC-PVTZ AUX)
    Blend: AUG-CC-PVTZ-JKFIT
	 Reference Energy          =    -631.7141026154566816 [Eh]
	 Singles Energy            =      -0.0000000000000000 [Eh]
	 Same-Spin Energy          =      -0.6893225222823867 [Eh]
	 Opposite-Spin Energy      =      -2.2129015266332712 [Eh]
	 Correlation Energy        =      -2.9022240489156577 [Eh]
	 Total Energy              =    -634.6163266643723091 [Eh]

	 ================> DF-SCS-MP2 Energies <==================
	-----------------------------------------------------------
	 SCS Same-Spin Scale       =       0.3333333333333333 [-]
	 SCS Opposite-Spin Scale   =       1.2000000000000000 [-]
	 SCS Same-Spin Energy      =      -0.2297741740941289 [Eh]
	 SCS Opposite-Spin Energy  =      -2.6554818319599254 [Eh]
	 SCS Correlation Energy    =      -2.8852560060540542 [Eh]
	 SCS Total Energy          =    -634.5993586215107598 [Eh]
	-----------------------------------------------------------

  Dipole Moment: [D]
     X:    -1.7280      Y:    -3.5862      Z:     1.7054     Total:     4.3307

*** Psi4 exiting successfully. Buy a developer a beer!
