                               Psi4 1.3.2 release

  ==> Input File <==

--------------------------------------------------------------------------
#psi4
#
memory 32 gb

molecule  {
0 1
  O        0.1371160     2.1442200    -0.7498900
  N       -0.8899674     0.2605795    -0.0716846
  C       -2.2101840     0.8219870    -0.4048790
  C       -3.1715160    -0.2856370    -0.8447810
  C       -3.2543810    -1.4343410     0.1597440
  C       -1.8582660    -1.9851710     0.4427670
  C       -0.9333470    -0.8668740     0.9054230
  C       -2.7330240     1.6830710     0.7442420
  C        0.2088310     0.9821600    -0.3252730
  C        1.5466860     0.3366220    -0.1329200
  C        1.8387470    -0.9259720    -0.6670270
  C        2.5575830     1.0808050     0.4866160
  C        3.1278360    -1.4488340    -0.5554450
  C        3.8398480     0.5472150     0.6113220
  C        4.1275660    -0.7178550     0.0911790
  H       -2.0189590     1.4850890    -1.2525130
  H       -2.8205670    -0.6804150    -1.8065990
  H       -4.1624350     0.1514200    -1.0190010
  H       -3.9082830    -2.2246930    -0.2264870
  H       -3.7050990    -1.0869340     1.0980480
  H       -1.8940300    -2.7681710     1.2100160
  H       -1.4444710    -2.4355870    -0.4683360
  H       -1.2866520    -0.4768830     1.8722860
  H        0.0828400    -1.2295020     1.0584050
  H       -3.6731810     2.1637340     0.4547800
  H       -2.9192060     1.1010660     1.6506870
  H       -2.0023200     2.4636420     0.9693550
  H        1.0609540    -1.4829580    -1.1859370
  H        2.3266460     2.0767070     0.8563740
  H        3.3548360    -2.4238320    -0.9804540
  H        4.6199280     1.1225680     1.1042590
  H        5.1302370    -1.1288490     0.1814620
units angstrom
no_reorient  #important for SAPT in psi4, default
symmetry c1  #important for SAPT in psi4, default
}

set PROPERTIES_ORIGIN ["COM"]
properties('MP2/aug-cc-pvtz', properties = ['dipole'])
--------------------------------------------------------------------------

    Molecular point group: c1
  Charge       = 0
  Multiplicity = 1
  Basis Set: AUG-CC-PVTZ
    Blend: AUG-CC-PVTZ
  Basis Set: (AUG-CC-PVTZ AUX)
    Blend: AUG-CC-PVTZ-JKFIT

    Orbital Energies [Eh]
    ---------------------

    Doubly Occupied:

       1A    -20.505220     2A    -15.580512     3A    -11.342297
       4A    -11.269120     5A    -11.259205     6A    -11.249614
       7A    -11.248456     8A    -11.246596     9A    -11.244469
      10A    -11.244202    11A    -11.242259    12A    -11.232688
      13A    -11.228164    14A    -11.225630    15A    -11.210994
      16A     -1.367358    17A     -1.245381    18A     -1.159868
      19A     -1.089414    20A     -1.053210    21A     -1.029474
      22A     -1.022173    23A     -0.962718    24A     -0.899874
      25A     -0.866778    26A     -0.836761    27A     -0.833135
      28A     -0.790426    29A     -0.728546    30A     -0.716949
      31A     -0.680296    32A     -0.654683    33A     -0.639825
      34A     -0.628270    35A     -0.625404    36A     -0.607592
      37A     -0.599305    38A     -0.593231    39A     -0.589418
      40A     -0.573909    41A     -0.566186    42A     -0.543297
      43A     -0.525539    44A     -0.519197    45A     -0.506435
      46A     -0.502349    47A     -0.495071    48A     -0.492183
      49A     -0.470927    50A     -0.464091    51A     -0.452249
      52A     -0.417728    53A     -0.368277    54A     -0.343791
      55A     -0.340694

  @DF-RHF Final Energy:  -631.72872606534702

   => Energetics <=

    Nuclear Repulsion Energy =            998.8486017805628308
    One-Electron Energy =               -2840.8917842754945013
    Two-Electron Energy =                1210.3144564295846521
    Total Energy =                       -631.7287260653470184
  Basis Set: (AUG-CC-PVTZ AUX)
    Blend: AUG-CC-PVTZ-RI
    Molecular point group: c1

    Geometry (in Angstrom), charge = 0, multiplicity = 1:

       Center              X                  Y                   Z               Mass
    ------------   -----------------  -----------------  -----------------  -----------------
         O            0.071129487114     2.114800586648    -0.733532306994    15.994914619570
         N           -0.955953912886     0.231160086648    -0.055326906994    14.003074004430
         C           -2.276170512886     0.792567586648    -0.388521306994    12.000000000000
         C           -3.237502512886    -0.315056413352    -0.828423306994    12.000000000000
         C           -3.320367512886    -1.463760413352     0.176101693006    12.000000000000
         C           -1.924252512886    -2.014590413352     0.459124693006    12.000000000000
         C           -0.999333512886    -0.896293413352     0.921780693006    12.000000000000
         C           -2.799010512886     1.653651586648     0.760599693006    12.000000000000
         C            0.142844487114     0.952740586648    -0.308915306994    12.000000000000
         C            1.480699487114     0.307202586648    -0.116562306994    12.000000000000
         C            1.772760487114    -0.955391413352    -0.650669306994    12.000000000000
         C            2.491596487114     1.051385586648     0.502973693006    12.000000000000
         C            3.061849487114    -1.478253413352    -0.539087306994    12.000000000000
         C            3.773861487114     0.517795586648     0.627679693006    12.000000000000
         C            4.061579487114    -0.747274413352     0.107536693006    12.000000000000
         H           -2.084945512886     1.455669586648    -1.236155306994     1.007825032230
         H           -2.886553512886    -0.709834413352    -1.790241306994     1.007825032230
         H           -4.228421512886     0.122000586648    -1.002643306994     1.007825032230
         H           -3.974269512886    -2.254112413352    -0.210129306994     1.007825032230
         H           -3.771085512886    -1.116353413352     1.114405693006     1.007825032230
         H           -1.960016512886    -2.797590413352     1.226373693006     1.007825032230
         H           -1.510457512886    -2.465006413352    -0.451978306994     1.007825032230
         H           -1.352638512886    -0.506302413352     1.888643693006     1.007825032230
         H            0.016853487114    -1.258921413352     1.074762693006     1.007825032230
         H           -3.739167512886     2.134314586648     0.471137693006     1.007825032230
         H           -2.985192512886     1.071646586648     1.667044693006     1.007825032230
         H           -2.068306512886     2.434222586648     0.985712693006     1.007825032230
         H            0.994967487114    -1.512377413352    -1.169579306994     1.007825032230
         H            2.260659487114     2.047287586648     0.872731693006     1.007825032230
         H            3.288849487114    -2.453251413352    -0.964096306994     1.007825032230
         H            4.553941487114     1.093148586648     1.120616693006     1.007825032230
         H            5.064250487114    -1.158268413352     0.197819693006     1.007825032230

  Basis Set: AUG-CC-PVTZ
    Blend: AUG-CC-PVTZ
  Basis Set: (AUG-CC-PVTZ AUX)
    Blend: AUG-CC-PVTZ-JKFIT
	 Reference Energy          =    -631.7287260653470184 [Eh]
	 Singles Energy            =      -0.0000000000000000 [Eh]
	 Same-Spin Energy          =      -0.6882859691925514 [Eh]
	 Opposite-Spin Energy      =      -2.2108784466973788 [Eh]
	 Correlation Energy        =      -2.8991644158899303 [Eh]
	 Total Energy              =    -634.6278904812369319 [Eh]

	 ================> DF-SCS-MP2 Energies <==================
	-----------------------------------------------------------
	 SCS Same-Spin Scale       =       0.3333333333333333 [-]
	 SCS Opposite-Spin Scale   =       1.2000000000000000 [-]
	 SCS Same-Spin Energy      =      -0.2294286563975171 [Eh]
	 SCS Opposite-Spin Energy  =      -2.6530541360368542 [Eh]
	 SCS Correlation Energy    =      -2.8824827924343714 [Eh]
	 SCS Total Energy          =    -634.6112088577814347 [Eh]
	-----------------------------------------------------------

  Dipole Moment: [D]
     X:    -1.0525      Y:    -3.3543      Z:     1.5157     Total:     3.8284

*** Psi4 exiting successfully. Buy a developer a beer!
