                               Psi4 1.3.2 release

  ==> Input File <==

--------------------------------------------------------------------------
#psi4
#
memory 32 gb

molecule  {
0 1
  O        0.1371160     2.1442200    -0.7498900
  N       -0.9079200     0.2138270    -0.0832910
  C       -2.3391229     0.8685449    -0.4873000
  C       -3.1715160    -0.2856370    -0.8447810
  C       -3.2543810    -1.4343410     0.1597440
  C       -1.8582660    -1.9851710     0.4427670
  C       -0.9333470    -0.8668740     0.9054230
  C       -2.7330240     1.6830710     0.7442420
  C        0.2088310     0.9821600    -0.3252730
  C        1.5466860     0.3366220    -0.1329200
  C        1.8387470    -0.9259720    -0.6670270
  C        2.5575830     1.0808050     0.4866160
  C        3.1278360    -1.4488340    -0.5554450
  C        3.8398480     0.5472150     0.6113220
  C        4.1275660    -0.7178550     0.0911790
  H       -2.0189590     1.4850890    -1.2525130
  H       -2.8205670    -0.6804150    -1.8065990
  H       -4.1624350     0.1514200    -1.0190010
  H       -3.9082830    -2.2246930    -0.2264870
  H       -3.7050990    -1.0869340     1.0980480
  H       -1.8940300    -2.7681710     1.2100160
  H       -1.4444710    -2.4355870    -0.4683360
  H       -1.2866520    -0.4768830     1.8722860
  H        0.0828400    -1.2295020     1.0584050
  H       -3.6731810     2.1637340     0.4547800
  H       -2.9192060     1.1010660     1.6506870
  H       -2.0023200     2.4636420     0.9693550
  H        1.0609540    -1.4829580    -1.1859370
  H        2.3266460     2.0767070     0.8563740
  H        3.3548360    -2.4238320    -0.9804540
  H        4.6199280     1.1225680     1.1042590
  H        5.1302370    -1.1288490     0.1814620
units angstrom
no_reorient  #important for SAPT in psi4, default
symmetry c1  #important for SAPT in psi4, default
}

set PROPERTIES_ORIGIN ["COM"]
properties('MP2/aug-cc-pvtz', properties = ['dipole'])
--------------------------------------------------------------------------

    Molecular point group: c1
  Charge       = 0
  Multiplicity = 1
  Basis Set: AUG-CC-PVTZ
    Blend: AUG-CC-PVTZ
  Basis Set: (AUG-CC-PVTZ AUX)
    Blend: AUG-CC-PVTZ-JKFIT

    Orbital Energies [Eh]
    ---------------------

    Doubly Occupied:

       1A    -20.507987     2A    -15.568832     3A    -11.342533
       4A    -11.267618     5A    -11.260979     6A    -11.247027
       7A    -11.245872     8A    -11.244664     9A    -11.242389
      10A    -11.242165    11A    -11.240347    12A    -11.231301
      13A    -11.228731    14A    -11.226722    15A    -11.217114
      16A     -1.360074    17A     -1.222789    18A     -1.157368
      19A     -1.091304    20A     -1.054420    21A     -1.029333
      22A     -1.020105    23A     -0.961510    24A     -0.900696
      25A     -0.856660    26A     -0.838229    27A     -0.832616
      28A     -0.777726    29A     -0.733115    30A     -0.711354
      31A     -0.680030    32A     -0.654333    33A     -0.642308
      34A     -0.629927    35A     -0.622717    36A     -0.600215
      37A     -0.597554    38A     -0.590628    39A     -0.581774
      40A     -0.576203    41A     -0.565709    42A     -0.545430
      43A     -0.527704    44A     -0.520861    45A     -0.505686
      46A     -0.500232    47A     -0.493247    48A     -0.488214
      49A     -0.483122    50A     -0.466351    51A     -0.447572
      52A     -0.410657    53A     -0.362759    54A     -0.341643
      55A     -0.338537

  @DF-RHF Final Energy:  -631.70797718051369

   => Energetics <=

    Nuclear Repulsion Energy =            995.9757078065583755
    One-Electron Energy =               -2835.2973840283802929
    Two-Electron Energy =                1207.6136990413081094
    Total Energy =                       -631.7079771805138080
  Basis Set: (AUG-CC-PVTZ AUX)
    Blend: AUG-CC-PVTZ-RI
    Molecular point group: c1

    Geometry (in Angstrom), charge = 0, multiplicity = 1:

       Center              X                  Y                   Z               Mass
    ------------   -----------------  -----------------  -----------------  -----------------
         O            0.079984158537     2.115273108866    -0.727863171324    15.994914619570
         N           -0.965051841463     0.184880108866    -0.061264171324    14.003074004430
         C           -2.396254741463     0.839598008866    -0.465273171324    12.000000000000
         C           -3.228647841463    -0.314583891134    -0.822754171324    12.000000000000
         C           -3.311512841463    -1.463287891134     0.181770828676    12.000000000000
         C           -1.915397841463    -2.014117891134     0.464793828676    12.000000000000
         C           -0.990478841463    -0.895820891134     0.927449828676    12.000000000000
         C           -2.790155841463     1.654124108866     0.766268828676    12.000000000000
         C            0.151699158537     0.953213108866    -0.303246171324    12.000000000000
         C            1.489554158537     0.307675108866    -0.110893171324    12.000000000000
         C            1.781615158537    -0.954918891134    -0.645000171324    12.000000000000
         C            2.500451158537     1.051858108866     0.508642828676    12.000000000000
         C            3.070704158537    -1.477780891134    -0.533418171324    12.000000000000
         C            3.782716158537     0.518268108866     0.633348828676    12.000000000000
         C            4.070434158537    -0.746801891134     0.113205828676    12.000000000000
         H           -2.076090841463     1.456142108866    -1.230486171324     1.007825032230
         H           -2.877698841463    -0.709361891134    -1.784572171324     1.007825032230
         H           -4.219566841463     0.122473108866    -0.996974171324     1.007825032230
         H           -3.965414841463    -2.253639891134    -0.204460171324     1.007825032230
         H           -3.762230841463    -1.115880891134     1.120074828676     1.007825032230
         H           -1.951161841463    -2.797117891134     1.232042828676     1.007825032230
         H           -1.501602841463    -2.464533891134    -0.446309171324     1.007825032230
         H           -1.343783841463    -0.505829891134     1.894312828676     1.007825032230
         H            0.025708158537    -1.258448891134     1.080431828676     1.007825032230
         H           -3.730312841463     2.134787108866     0.476806828676     1.007825032230
         H           -2.976337841463     1.072119108866     1.672713828676     1.007825032230
         H           -2.059451841463     2.434695108866     0.991381828676     1.007825032230
         H            1.003822158537    -1.511904891134    -1.163910171324     1.007825032230
         H            2.269514158537     2.047760108866     0.878400828676     1.007825032230
         H            3.297704158537    -2.452778891134    -0.958427171324     1.007825032230
         H            4.562796158537     1.093621108866     1.126285828676     1.007825032230
         H            5.073105158537    -1.157795891134     0.203488828676     1.007825032230

  Basis Set: AUG-CC-PVTZ
    Blend: AUG-CC-PVTZ
  Basis Set: (AUG-CC-PVTZ AUX)
    Blend: AUG-CC-PVTZ-JKFIT
	 Reference Energy          =    -631.7079771805136943 [Eh]
	 Singles Energy            =      -0.0000000000000000 [Eh]
	 Same-Spin Energy          =      -0.6891728582242749 [Eh]
	 Opposite-Spin Energy      =      -2.2131634380241314 [Eh]
	 Correlation Energy        =      -2.9023362962484063 [Eh]
	 Total Energy              =    -634.6103134767621441 [Eh]

	 ================> DF-SCS-MP2 Energies <==================
	-----------------------------------------------------------
	 SCS Same-Spin Scale       =       0.3333333333333333 [-]
	 SCS Opposite-Spin Scale   =       1.2000000000000000 [-]
	 SCS Same-Spin Energy      =      -0.2297242860747583 [Eh]
	 SCS Opposite-Spin Energy  =      -2.6557961256289575 [Eh]
	 SCS Correlation Energy    =      -2.8855204117037156 [Eh]
	 SCS Total Energy          =    -634.5934975922174317 [Eh]
	-----------------------------------------------------------

  Dipole Moment: [D]
     X:    -1.3499      Y:    -3.1026      Z:     1.4158     Total:     3.6678

*** Psi4 exiting successfully. Buy a developer a beer!
