                               Psi4 1.3.2 release

  ==> Input File <==

--------------------------------------------------------------------------
#psi4
#
memory 32 gb

molecule  {
0 1
  O        0.1371160     2.1442200    -0.7498900
  N       -0.9079200     0.2138270    -0.0832910
  C       -2.2101840     0.8219870    -0.4048790
  C       -3.1715160    -0.2856370    -0.8447810
  C       -3.2543810    -1.4343410     0.1597440
  C       -1.8582660    -1.9851710     0.4427670
  C       -0.9333470    -0.8668740     0.9054230
  C       -2.7330240     1.6830710     0.7442420
  C        0.2170503     1.0027796    -0.3114639
  C        1.5466860     0.3366220    -0.1329200
  C        1.8387470    -0.9259720    -0.6670270
  C        2.5575830     1.0808050     0.4866160
  C        3.1278360    -1.4488340    -0.5554450
  C        3.8398480     0.5472150     0.6113220
  C        4.1275660    -0.7178550     0.0911790
  H       -2.0189590     1.4850890    -1.2525130
  H       -2.8205670    -0.6804150    -1.8065990
  H       -4.1624350     0.1514200    -1.0190010
  H       -3.9082830    -2.2246930    -0.2264870
  H       -3.7050990    -1.0869340     1.0980480
  H       -1.8940300    -2.7681710     1.2100160
  H       -1.4444710    -2.4355870    -0.4683360
  H       -1.2866520    -0.4768830     1.8722860
  H        0.0828400    -1.2295020     1.0584050
  H       -3.6731810     2.1637340     0.4547800
  H       -2.9192060     1.1010660     1.6506870
  H       -2.0023200     2.4636420     0.9693550
  H        1.0609540    -1.4829580    -1.1859370
  H        2.3266460     2.0767070     0.8563740
  H        3.3548360    -2.4238320    -0.9804540
  H        4.6199280     1.1225680     1.1042590
  H        5.1302370    -1.1288490     0.1814620
units angstrom
no_reorient  #important for SAPT in psi4, default
symmetry c1  #important for SAPT in psi4, default
}

set PROPERTIES_ORIGIN ["COM"]
properties('MP2/aug-cc-pvtz', properties = ['dipole'])
--------------------------------------------------------------------------

    Molecular point group: c1
  Charge       = 0
  Multiplicity = 1
  Basis Set: AUG-CC-PVTZ
    Blend: AUG-CC-PVTZ
  Basis Set: (AUG-CC-PVTZ AUX)
    Blend: AUG-CC-PVTZ-JKFIT

    Orbital Energies [Eh]
    ---------------------

    Doubly Occupied:

       1A    -20.518410     2A    -15.576384     3A    -11.349490
       4A    -11.263345     5A    -11.256435     6A    -11.250840
       7A    -11.249683     8A    -11.247695     9A    -11.245472
      10A    -11.245379    11A    -11.243218    12A    -11.228496
      13A    -11.225407    14A    -11.222102    15A    -11.210168
      16A     -1.377400    17A     -1.243932    18A     -1.161077
      19A     -1.082691    20A     -1.051339    21A     -1.030920
      22A     -1.023199    23A     -0.957278    24A     -0.895581
      25A     -0.864615    26A     -0.837707    27A     -0.832470
      28A     -0.785102    29A     -0.728657    30A     -0.716887
      31A     -0.682627    32A     -0.654757    33A     -0.638273
      34A     -0.627853    35A     -0.626872    36A     -0.605054
      37A     -0.599802    38A     -0.593850    39A     -0.586477
      40A     -0.577442    41A     -0.563941    42A     -0.543922
      43A     -0.526314    44A     -0.519232    45A     -0.508469
      46A     -0.502954    47A     -0.494438    48A     -0.492793
      49A     -0.469675    50A     -0.461880    51A     -0.450333
      52A     -0.422292    53A     -0.367163    54A     -0.344673
      55A     -0.342274

  @DF-RHF Final Energy:  -631.72932983535668

   => Energetics <=

    Nuclear Repulsion Energy =            998.5604431889951229
    One-Electron Energy =               -2840.3300660540198805
    Two-Electron Energy =                1210.0402930296679642
    Total Energy =                       -631.7293298353567934
  Basis Set: (AUG-CC-PVTZ AUX)
    Blend: AUG-CC-PVTZ-RI
    Molecular point group: c1

    Geometry (in Angstrom), charge = 0, multiplicity = 1:

       Center              X                  Y                   Z               Mass
    ------------   -----------------  -----------------  -----------------  -----------------
         O            0.071881514011     2.116805418451    -0.733547981222    15.994914619570
         N           -0.973154485989     0.186412418451    -0.066948981222    14.003074004430
         C           -2.275418485989     0.794572418451    -0.388536981222    12.000000000000
         C           -3.236750485989    -0.313051581549    -0.828438981222    12.000000000000
         C           -3.319615485989    -1.461755581549     0.176086018778    12.000000000000
         C           -1.923500485989    -2.012585581549     0.459109018778    12.000000000000
         C           -0.998581485989    -0.894288581549     0.921765018778    12.000000000000
         C           -2.798258485989     1.655656418451     0.760584018778    12.000000000000
         C            0.151815814011     0.975365018451    -0.295121881222    12.000000000000
         C            1.481451514011     0.309207418451    -0.116577981222    12.000000000000
         C            1.773512514011    -0.953386581549    -0.650684981222    12.000000000000
         C            2.492348514011     1.053390418451     0.502958018778    12.000000000000
         C            3.062601514011    -1.476248581549    -0.539102981222    12.000000000000
         C            3.774613514011     0.519800418451     0.627664018778    12.000000000000
         C            4.062331514011    -0.745269581549     0.107521018778    12.000000000000
         H           -2.084193485989     1.457674418451    -1.236170981222     1.007825032230
         H           -2.885801485989    -0.707829581549    -1.790256981222     1.007825032230
         H           -4.227669485989     0.124005418451    -1.002658981222     1.007825032230
         H           -3.973517485989    -2.252107581549    -0.210144981222     1.007825032230
         H           -3.770333485989    -1.114348581549     1.114390018778     1.007825032230
         H           -1.959264485989    -2.795585581549     1.226358018778     1.007825032230
         H           -1.509705485989    -2.463001581549    -0.451993981222     1.007825032230
         H           -1.351886485989    -0.504297581549     1.888628018778     1.007825032230
         H            0.017605514011    -1.256916581549     1.074747018778     1.007825032230
         H           -3.738415485989     2.136319418451     0.471122018778     1.007825032230
         H           -2.984440485989     1.073651418451     1.667029018778     1.007825032230
         H           -2.067554485989     2.436227418451     0.985697018778     1.007825032230
         H            0.995719514011    -1.510372581549    -1.169594981222     1.007825032230
         H            2.261411514011     2.049292418451     0.872716018778     1.007825032230
         H            3.289601514011    -2.451246581549    -0.964111981222     1.007825032230
         H            4.554693514011     1.095153418451     1.120601018778     1.007825032230
         H            5.065002514011    -1.156263581549     0.197804018778     1.007825032230

  Basis Set: AUG-CC-PVTZ
    Blend: AUG-CC-PVTZ
  Basis Set: (AUG-CC-PVTZ AUX)
    Blend: AUG-CC-PVTZ-JKFIT
	 Reference Energy          =    -631.7293298353566797 [Eh]
	 Singles Energy            =      -0.0000000000000000 [Eh]
	 Same-Spin Energy          =      -0.6884101216518859 [Eh]
	 Opposite-Spin Energy      =      -2.2112124429527573 [Eh]
	 Correlation Energy        =      -2.8996225646046430 [Eh]
	 Total Energy              =    -634.6289523999613493 [Eh]

	 ================> DF-SCS-MP2 Energies <==================
	-----------------------------------------------------------
	 SCS Same-Spin Scale       =       0.3333333333333333 [-]
	 SCS Opposite-Spin Scale   =       1.2000000000000000 [-]
	 SCS Same-Spin Energy      =      -0.2294700405506286 [Eh]
	 SCS Opposite-Spin Energy  =      -2.6534549315433087 [Eh]
	 SCS Correlation Energy    =      -2.8829249720939374 [Eh]
	 SCS Total Energy          =    -634.6122548074506540 [Eh]
	-----------------------------------------------------------

  Dipole Moment: [D]
     X:    -0.7272      Y:    -3.0190      Z:     1.4244     Total:     3.4164

*** Psi4 exiting successfully. Buy a developer a beer!
