                               Psi4 1.3.2 release

  ==> Input File <==

--------------------------------------------------------------------------
#psi4
#
memory 32 gb

molecule  {
0 1
  O        0.1371160     2.1442200    -0.7498900
  N       -0.9079200     0.2138270    -0.0832910
  C       -2.2101840     0.8219870    -0.4048790
  C       -3.1715160    -0.2856370    -0.8447810
  C       -3.2543810    -1.4343410     0.1597440
  C       -1.8582660    -1.9851710     0.4427670
  C       -0.9333470    -0.8668740     0.9054230
  C       -2.7330240     1.6830710     0.7442420
  C        0.2088310     0.9821600    -0.3252730
  C        1.5466860     0.3366220    -0.1329200
  C        1.7449928    -0.9323506    -0.6942547
  C        2.5575830     1.0808050     0.4866160
  C        3.1278360    -1.4488340    -0.5554450
  C        3.8398480     0.5472150     0.6113220
  C        4.1275660    -0.7178550     0.0911790
  H       -2.0189590     1.4850890    -1.2525130
  H       -2.8205670    -0.6804150    -1.8065990
  H       -4.1624350     0.1514200    -1.0190010
  H       -3.9082830    -2.2246930    -0.2264870
  H       -3.7050990    -1.0869340     1.0980480
  H       -1.8940300    -2.7681710     1.2100160
  H       -1.4444710    -2.4355870    -0.4683360
  H       -1.2866520    -0.4768830     1.8722860
  H        0.0828400    -1.2295020     1.0584050
  H       -3.6731810     2.1637340     0.4547800
  H       -2.9192060     1.1010660     1.6506870
  H       -2.0023200     2.4636420     0.9693550
  H        1.0609540    -1.4829580    -1.1859370
  H        2.3266460     2.0767070     0.8563740
  H        3.3548360    -2.4238320    -0.9804540
  H        4.6199280     1.1225680     1.1042590
  H        5.1302370    -1.1288490     0.1814620
units angstrom
no_reorient  #important for SAPT in psi4, default
symmetry c1  #important for SAPT in psi4, default
}

set PROPERTIES_ORIGIN ["COM"]
properties('MP2/aug-cc-pvtz', properties = ['dipole'])
--------------------------------------------------------------------------

    Molecular point group: c1
  Charge       = 0
  Multiplicity = 1
  Basis Set: AUG-CC-PVTZ
    Blend: AUG-CC-PVTZ
  Basis Set: (AUG-CC-PVTZ AUX)
    Blend: AUG-CC-PVTZ-JKFIT

    Orbital Energies [Eh]
    ---------------------

    Doubly Occupied:

       1A    -20.513011     2A    -15.578458     3A    -11.346546
       4A    -11.264567     5A    -11.257401     6A    -11.255101
       7A    -11.253351     8A    -11.252169     9A    -11.247318
      10A    -11.245968    11A    -11.244818    12A    -11.229630
      13A    -11.226247    14A    -11.222873    15A    -11.210536
      16A     -1.367546    17A     -1.246003    18A     -1.154414
      19A     -1.084740    20A     -1.052943    21A     -1.032584
      22A     -1.015812    23A     -0.958907    24A     -0.896524
      25A     -0.863771    26A     -0.845769    27A     -0.832180
      28A     -0.784277    29A     -0.728857    30A     -0.719000
      31A     -0.685388    32A     -0.657984    33A     -0.636895
      34A     -0.634140    35A     -0.625360    36A     -0.606734
      37A     -0.598740    38A     -0.591479    39A     -0.586211
      40A     -0.576793    41A     -0.564562    42A     -0.542341
      43A     -0.525498    44A     -0.519721    45A     -0.507902
      46A     -0.502251    47A     -0.494515    48A     -0.491560
      49A     -0.469573    50A     -0.462317    51A     -0.451291
      52A     -0.417311    53A     -0.367527    54A     -0.345711
      55A     -0.335789

  @DF-RHF Final Energy:  -631.71542360515593

   => Energetics <=

    Nuclear Repulsion Energy =            998.3993097836315656
    One-Electron Energy =               -2839.9716395374157401
    Two-Electron Energy =                1209.8569061486284681
    Total Energy =                       -631.7154236051558200
  Basis Set: (AUG-CC-PVTZ AUX)
    Blend: AUG-CC-PVTZ-RI
    Molecular point group: c1

    Geometry (in Angstrom), charge = 0, multiplicity = 1:

       Center              X                  Y                   Z               Mass
    ------------   -----------------  -----------------  -----------------  -----------------
         O            0.077905616264     2.118400341813    -0.731123725123    15.994914619570
         N           -0.967130383736     0.188007341813    -0.064524725123    14.003074004430
         C           -2.269394383736     0.796167341813    -0.386112725123    12.000000000000
         C           -3.230726383736    -0.311456658187    -0.826014725123    12.000000000000
         C           -3.313591383736    -1.460160658187     0.178510274877    12.000000000000
         C           -1.917476383736    -2.010990658187     0.461533274877    12.000000000000
         C           -0.992557383736    -0.892693658187     0.924189274877    12.000000000000
         C           -2.792234383736     1.657251341813     0.763008274877    12.000000000000
         C            0.149620616264     0.956340341813    -0.306506725123    12.000000000000
         C            1.487475616264     0.310802341813    -0.114153725123    12.000000000000
         C            1.685782416264    -0.958170258187    -0.675488425123    12.000000000000
         C            2.498372616264     1.054985341813     0.505382274877    12.000000000000
         C            3.068625616264    -1.474653658187    -0.536678725123    12.000000000000
         C            3.780637616264     0.521395341813     0.630088274877    12.000000000000
         C            4.068355616264    -0.743674658187     0.109945274877    12.000000000000
         H           -2.078169383736     1.459269341813    -1.233746725123     1.007825032230
         H           -2.879777383736    -0.706234658187    -1.787832725123     1.007825032230
         H           -4.221645383736     0.125600341813    -1.000234725123     1.007825032230
         H           -3.967493383736    -2.250512658187    -0.207720725123     1.007825032230
         H           -3.764309383736    -1.112753658187     1.116814274877     1.007825032230
         H           -1.953240383736    -2.793990658187     1.228782274877     1.007825032230
         H           -1.503681383736    -2.461406658187    -0.449569725123     1.007825032230
         H           -1.345862383736    -0.502702658187     1.891052274877     1.007825032230
         H            0.023629616264    -1.255321658187     1.077171274877     1.007825032230
         H           -3.732391383736     2.137914341813     0.473546274877     1.007825032230
         H           -2.978416383736     1.075246341813     1.669453274877     1.007825032230
         H           -2.061530383736     2.437822341813     0.988121274877     1.007825032230
         H            1.001743616264    -1.508777658187    -1.167170725123     1.007825032230
         H            2.267435616264     2.050887341813     0.875140274877     1.007825032230
         H            3.295625616264    -2.449651658187    -0.961687725123     1.007825032230
         H            4.560717616264     1.096748341813     1.123025274877     1.007825032230
         H            5.071026616264    -1.154668658187     0.200228274877     1.007825032230

  Basis Set: AUG-CC-PVTZ
    Blend: AUG-CC-PVTZ
  Basis Set: (AUG-CC-PVTZ AUX)
    Blend: AUG-CC-PVTZ-JKFIT
	 Reference Energy          =    -631.7154236051559337 [Eh]
	 Singles Energy            =      -0.0000000000000000 [Eh]
	 Same-Spin Energy          =      -0.6887984571296010 [Eh]
	 Opposite-Spin Energy      =      -2.2127923620829097 [Eh]
	 Correlation Energy        =      -2.9015908192125108 [Eh]
	 Total Energy              =    -634.6170144243684490 [Eh]

	 ================> DF-SCS-MP2 Energies <==================
	-----------------------------------------------------------
	 SCS Same-Spin Scale       =       0.3333333333333333 [-]
	 SCS Opposite-Spin Scale   =       1.2000000000000000 [-]
	 SCS Same-Spin Energy      =      -0.2295994857098670 [Eh]
	 SCS Opposite-Spin Energy  =      -2.6553508344994916 [Eh]
	 SCS Correlation Energy    =      -2.8849503202093585 [Eh]
	 SCS Total Energy          =    -634.6003739253652611 [Eh]
	-----------------------------------------------------------

  Dipole Moment: [D]
     X:    -0.7888      Y:    -3.1306      Z:     1.4654     Total:     3.5454

*** Psi4 exiting successfully. Buy a developer a beer!
