                               Psi4 1.3.2 release

  ==> Input File <==

--------------------------------------------------------------------------
#psi4
#
memory 32 gb

molecule  {
0 1
  O        0.1155453     2.1426354    -0.7500326
  N       -0.9079200     0.2138270    -0.0832910
  C       -2.2101840     0.8219870    -0.4048790
  C       -3.1715160    -0.2856370    -0.8447810
  C       -3.2543810    -1.4343410     0.1597440
  C       -1.8582660    -1.9851710     0.4427670
  C       -0.9333470    -0.8668740     0.9054230
  C       -2.7330240     1.6830710     0.7442420
  C        0.2088310     0.9821600    -0.3252730
  C        1.5466860     0.3366220    -0.1329200
  C        1.8387470    -0.9259720    -0.6670270
  C        2.5575830     1.0808050     0.4866160
  C        3.1278360    -1.4488340    -0.5554450
  C        3.8398480     0.5472150     0.6113220
  C        4.1275660    -0.7178550     0.0911790
  H       -2.0189590     1.4850890    -1.2525130
  H       -2.8205670    -0.6804150    -1.8065990
  H       -4.1624350     0.1514200    -1.0190010
  H       -3.9082830    -2.2246930    -0.2264870
  H       -3.7050990    -1.0869340     1.0980480
  H       -1.8940300    -2.7681710     1.2100160
  H       -1.4444710    -2.4355870    -0.4683360
  H       -1.2866520    -0.4768830     1.8722860
  H        0.0828400    -1.2295020     1.0584050
  H       -3.6731810     2.1637340     0.4547800
  H       -2.9192060     1.1010660     1.6506870
  H       -2.0023200     2.4636420     0.9693550
  H        1.0609540    -1.4829580    -1.1859370
  H        2.3266460     2.0767070     0.8563740
  H        3.3548360    -2.4238320    -0.9804540
  H        4.6199280     1.1225680     1.1042590
  H        5.1302370    -1.1288490     0.1814620
units angstrom
no_reorient  #important for SAPT in psi4, default
symmetry c1  #important for SAPT in psi4, default
}

set PROPERTIES_ORIGIN ["COM"]
properties('MP2/aug-cc-pvtz', properties = ['dipole'])
--------------------------------------------------------------------------

    Molecular point group: c1
  Charge       = 0
  Multiplicity = 1
  Basis Set: AUG-CC-PVTZ
    Blend: AUG-CC-PVTZ
  Basis Set: (AUG-CC-PVTZ AUX)
    Blend: AUG-CC-PVTZ-JKFIT

    Orbital Energies [Eh]
    ---------------------

    Doubly Occupied:

       1A    -20.513946     2A    -15.578149     3A    -11.348906
       4A    -11.264541     5A    -11.256854     6A    -11.251433
       7A    -11.250147     8A    -11.248134     9A    -11.246137
      10A    -11.245658    11A    -11.243663    12A    -11.229146
      13A    -11.225857    14A    -11.222457    15A    -11.210198
      16A     -1.368708    17A     -1.245200    18A     -1.161483
      19A     -1.084303    20A     -1.052085    21A     -1.031243
      22A     -1.023603    23A     -0.958672    24A     -0.896936
      25A     -0.865570    26A     -0.837770    27A     -0.833234
      28A     -0.786682    29A     -0.728922    30A     -0.717672
      31A     -0.682163    32A     -0.654894    33A     -0.638612
      34A     -0.627939    35A     -0.625808    36A     -0.606123
      37A     -0.598879    38A     -0.593918    39A     -0.586229
      40A     -0.577028    41A     -0.564224    42A     -0.542704
      43A     -0.526159    44A     -0.519147    45A     -0.507902
      46A     -0.503308    47A     -0.493369    48A     -0.492673
      49A     -0.469384    50A     -0.461837    51A     -0.450798
      52A     -0.421016    53A     -0.367201    54A     -0.345040
      55A     -0.342680

  @DF-RHF Final Energy:  -631.72904251257933

   => Energetics <=

    Nuclear Repulsion Energy =            998.7646198010644412
    One-Electron Energy =               -2840.7346330021246104
    Two-Electron Energy =                1210.2409706884809566
    Total Energy =                       -631.7290425125793263
  Basis Set: (AUG-CC-PVTZ AUX)
    Blend: AUG-CC-PVTZ-RI
    Molecular point group: c1

    Geometry (in Angstrom), charge = 0, multiplicity = 1:

       Center              X                  Y                   Z               Mass
    ------------   -----------------  -----------------  -----------------  -----------------
         O            0.052494887707     2.116563699265    -0.732863577647    15.994914619570
         N           -0.970970412293     0.187755299265    -0.066121977647    14.003074004430
         C           -2.273234412293     0.795915299265    -0.387709977647    12.000000000000
         C           -3.234566412293    -0.311708700735    -0.827611977647    12.000000000000
         C           -3.317431412293    -1.460412700735     0.176913022353    12.000000000000
         C           -1.921316412293    -2.011242700735     0.459936022353    12.000000000000
         C           -0.996397412293    -0.892945700735     0.922592022353    12.000000000000
         C           -2.796074412293     1.656999299265     0.761411022353    12.000000000000
         C            0.145780587707     0.956088299265    -0.308103977647    12.000000000000
         C            1.483635587707     0.310550299265    -0.115750977647    12.000000000000
         C            1.775696587707    -0.952043700735    -0.649857977647    12.000000000000
         C            2.494532587707     1.054733299265     0.503785022353    12.000000000000
         C            3.064785587707    -1.474905700735    -0.538275977647    12.000000000000
         C            3.776797587707     0.521143299265     0.628491022353    12.000000000000
         C            4.064515587707    -0.743926700735     0.108348022353    12.000000000000
         H           -2.082009412293     1.459017299265    -1.235343977647     1.007825032230
         H           -2.883617412293    -0.706486700735    -1.789429977647     1.007825032230
         H           -4.225485412293     0.125348299265    -1.001831977647     1.007825032230
         H           -3.971333412293    -2.250764700735    -0.209317977647     1.007825032230
         H           -3.768149412293    -1.113005700735     1.115217022353     1.007825032230
         H           -1.957080412293    -2.794242700735     1.227185022353     1.007825032230
         H           -1.507521412293    -2.461658700735    -0.451166977647     1.007825032230
         H           -1.349702412293    -0.502954700735     1.889455022353     1.007825032230
         H            0.019789587707    -1.255573700735     1.075574022353     1.007825032230
         H           -3.736231412293     2.137662299265     0.471949022353     1.007825032230
         H           -2.982256412293     1.074994299265     1.667856022353     1.007825032230
         H           -2.065370412293     2.437570299265     0.986524022353     1.007825032230
         H            0.997903587707    -1.509029700735    -1.168767977647     1.007825032230
         H            2.263595587707     2.050635299265     0.873543022353     1.007825032230
         H            3.291785587707    -2.449903700735    -0.963284977647     1.007825032230
         H            4.556877587707     1.096496299265     1.121428022353     1.007825032230
         H            5.067186587707    -1.154920700735     0.198631022353     1.007825032230

  Basis Set: AUG-CC-PVTZ
    Blend: AUG-CC-PVTZ
  Basis Set: (AUG-CC-PVTZ AUX)
    Blend: AUG-CC-PVTZ-JKFIT
	 Reference Energy          =    -631.7290425125793263 [Eh]
	 Singles Energy            =      -0.0000000000000000 [Eh]
	 Same-Spin Energy          =      -0.6886664454731908 [Eh]
	 Opposite-Spin Energy      =      -2.2116193857318645 [Eh]
	 Correlation Energy        =      -2.9002858312050552 [Eh]
	 Total Energy              =    -634.6293283437844366 [Eh]

	 ================> DF-SCS-MP2 Energies <==================
	-----------------------------------------------------------
	 SCS Same-Spin Scale       =       0.3333333333333333 [-]
	 SCS Opposite-Spin Scale   =       1.2000000000000000 [-]
	 SCS Same-Spin Energy      =      -0.2295554818243969 [Eh]
	 SCS Opposite-Spin Energy  =      -2.6539432628782373 [Eh]
	 SCS Correlation Energy    =      -2.8834987447026341 [Eh]
	 SCS Total Energy          =    -634.6125412572819187 [Eh]
	-----------------------------------------------------------

  Dipole Moment: [D]
     X:    -0.7452      Y:    -3.1310      Z:     1.4603     Total:     3.5343

*** Psi4 exiting successfully. Buy a developer a beer!
