                               Psi4 1.3.2 release

  ==> Input File <==

--------------------------------------------------------------------------
#psi4
#
memory 32 gb

molecule  {
0 1
  O        0.1371160     2.1442200    -0.7498900
  N       -0.9079200     0.2138270    -0.0832910
  C       -2.3870247     0.9045720    -0.4485490
  C       -3.1715160    -0.2856370    -0.8447810
  C       -3.2543810    -1.4343410     0.1597440
  C       -1.8582660    -1.9851710     0.4427670
  C       -0.9333470    -0.8668740     0.9054230
  C       -2.7330240     1.6830710     0.7442420
  C        0.2088310     0.9821600    -0.3252730
  C        1.5466860     0.3366220    -0.1329200
  C        1.8387470    -0.9259720    -0.6670270
  C        2.5575830     1.0808050     0.4866160
  C        3.1278360    -1.4488340    -0.5554450
  C        3.8398480     0.5472150     0.6113220
  C        4.1275660    -0.7178550     0.0911790
  H       -2.0189590     1.4850890    -1.2525130
  H       -2.8205670    -0.6804150    -1.8065990
  H       -4.1624350     0.1514200    -1.0190010
  H       -3.9082830    -2.2246930    -0.2264870
  H       -3.7050990    -1.0869340     1.0980480
  H       -1.8940300    -2.7681710     1.2100160
  H       -1.4444710    -2.4355870    -0.4683360
  H       -1.2866520    -0.4768830     1.8722860
  H        0.0828400    -1.2295020     1.0584050
  H       -3.6731810     2.1637340     0.4547800
  H       -2.9192060     1.1010660     1.6506870
  H       -2.0023200     2.4636420     0.9693550
  H        1.0609540    -1.4829580    -1.1859370
  H        2.3266460     2.0767070     0.8563740
  H        3.3548360    -2.4238320    -0.9804540
  H        4.6199280     1.1225680     1.1042590
  H        5.1302370    -1.1288490     0.1814620
units angstrom
no_reorient  #important for SAPT in psi4, default
symmetry c1  #important for SAPT in psi4, default
}

set PROPERTIES_ORIGIN ["COM"]
properties('MP2/aug-cc-pvtz', properties = ['dipole'])
--------------------------------------------------------------------------

    Molecular point group: c1
  Charge       = 0
  Multiplicity = 1
  Basis Set: AUG-CC-PVTZ
    Blend: AUG-CC-PVTZ
  Basis Set: (AUG-CC-PVTZ AUX)
    Blend: AUG-CC-PVTZ-JKFIT

    Orbital Energies [Eh]
    ---------------------

    Doubly Occupied:

       1A    -20.505872     2A    -15.564216     3A    -11.340273
       4A    -11.272400     5A    -11.258915     6A    -11.245791
       7A    -11.244625     8A    -11.243629     9A    -11.241396
      10A    -11.241086    11A    -11.239393    12A    -11.231308
      13A    -11.229214    14A    -11.227772    15A    -11.218333
      16A     -1.357563    17A     -1.216964    18A     -1.156215
      19A     -1.092966    20A     -1.058178    21A     -1.028143
      22A     -1.019062    23A     -0.968693    24A     -0.900065
      25A     -0.853682    26A     -0.834917    27A     -0.831459
      28A     -0.775103    29A     -0.732098    30A     -0.707799
      31A     -0.678951    32A     -0.653811    33A     -0.644712
      34A     -0.630328    35A     -0.621584    36A     -0.600380
      37A     -0.598487    38A     -0.589884    39A     -0.581708
      40A     -0.577721    41A     -0.567253    42A     -0.545604
      43A     -0.526249    44A     -0.519730    45A     -0.507071
      46A     -0.499794    47A     -0.495515    48A     -0.488897
      49A     -0.482349    50A     -0.466405    51A     -0.440509
      52A     -0.405503    53A     -0.361677    54A     -0.340630
      55A     -0.337386

  @DF-RHF Final Energy:  -631.69901640429953

   => Energetics <=

    Nuclear Repulsion Energy =            995.3908440135385263
    One-Electron Energy =               -2834.1811879347837930
    Two-Electron Energy =                1207.0913275169457393
    Total Energy =                       -631.6990164042995275
  Basis Set: (AUG-CC-PVTZ AUX)
    Blend: AUG-CC-PVTZ-RI
    Molecular point group: c1

    Geometry (in Angstrom), charge = 0, multiplicity = 1:

       Center              X                  Y                   Z               Mass
    ------------   -----------------  -----------------  -----------------  -----------------
         O            0.082813965705     2.113144801666    -0.730152393390    15.994914619570
         N           -0.962222034295     0.182751801666    -0.063553393390    14.003074004430
         C           -2.441326734295     0.873496801666    -0.428811393390    12.000000000000
         C           -3.225818034295    -0.316712198334    -0.825043393390    12.000000000000
         C           -3.308683034295    -1.465416198334     0.179481606610    12.000000000000
         C           -1.912568034295    -2.016246198334     0.462504606610    12.000000000000
         C           -0.987649034295    -0.897949198334     0.925160606610    12.000000000000
         C           -2.787326034295     1.651995801666     0.763979606610    12.000000000000
         C            0.154528965705     0.951084801666    -0.305535393390    12.000000000000
         C            1.492383965705     0.305546801666    -0.113182393390    12.000000000000
         C            1.784444965705    -0.957047198334    -0.647289393390    12.000000000000
         C            2.503280965705     1.049729801666     0.506353606610    12.000000000000
         C            3.073533965705    -1.479909198334    -0.535707393390    12.000000000000
         C            3.785545965705     0.516139801666     0.631059606610    12.000000000000
         C            4.073263965705    -0.748930198334     0.110916606610    12.000000000000
         H           -2.073261034295     1.454013801666    -1.232775393390     1.007825032230
         H           -2.874869034295    -0.711490198334    -1.786861393390     1.007825032230
         H           -4.216737034295     0.120344801666    -0.999263393390     1.007825032230
         H           -3.962585034295    -2.255768198334    -0.206749393390     1.007825032230
         H           -3.759401034295    -1.118009198334     1.117785606610     1.007825032230
         H           -1.948332034295    -2.799246198334     1.229753606610     1.007825032230
         H           -1.498773034295    -2.466662198334    -0.448598393390     1.007825032230
         H           -1.340954034295    -0.507958198334     1.892023606610     1.007825032230
         H            0.028537965705    -1.260577198334     1.078142606610     1.007825032230
         H           -3.727483034295     2.132658801666     0.474517606610     1.007825032230
         H           -2.973508034295     1.069990801666     1.670424606610     1.007825032230
         H           -2.056622034295     2.432566801666     0.989092606610     1.007825032230
         H            1.006651965705    -1.514033198334    -1.166199393390     1.007825032230
         H            2.272343965705     2.045631801666     0.876111606610     1.007825032230
         H            3.300533965705    -2.454907198334    -0.960716393390     1.007825032230
         H            4.565625965705     1.091492801666     1.123996606610     1.007825032230
         H            5.075934965705    -1.159924198334     0.201199606610     1.007825032230

  Basis Set: AUG-CC-PVTZ
    Blend: AUG-CC-PVTZ
  Basis Set: (AUG-CC-PVTZ AUX)
    Blend: AUG-CC-PVTZ-JKFIT
	 Reference Energy          =    -631.6990164042995275 [Eh]
	 Singles Energy            =      -0.0000000000000000 [Eh]
	 Same-Spin Energy          =      -0.6899712256223202 [Eh]
	 Opposite-Spin Energy      =      -2.2143106934213703 [Eh]
	 Correlation Energy        =      -2.9042819190436906 [Eh]
	 Total Energy              =    -634.6032983233432105 [Eh]

	 ================> DF-SCS-MP2 Energies <==================
	-----------------------------------------------------------
	 SCS Same-Spin Scale       =       0.3333333333333333 [-]
	 SCS Opposite-Spin Scale   =       1.2000000000000000 [-]
	 SCS Same-Spin Energy      =      -0.2299904085407734 [Eh]
	 SCS Opposite-Spin Energy  =      -2.6571728321056445 [Eh]
	 SCS Correlation Energy    =      -2.8871632406464180 [Eh]
	 SCS Total Energy          =    -634.5861796449459007 [Eh]
	-----------------------------------------------------------

  Dipole Moment: [D]
     X:    -1.5172      Y:    -3.0031      Z:     1.4622     Total:     3.6686

*** Psi4 exiting successfully. Buy a developer a beer!
