                               Psi4 1.3.2 release

  ==> Input File <==

--------------------------------------------------------------------------
#psi4
#
memory 32 gb

molecule  {
0 1
  O        0.1371160     2.1442200    -0.7498900
  N       -0.9095328     0.1699178    -0.1762284
  C       -2.2101840     0.8219870    -0.4048790
  C       -3.1715160    -0.2856370    -0.8447810
  C       -3.2543810    -1.4343410     0.1597440
  C       -1.8582660    -1.9851710     0.4427670
  C       -0.9333470    -0.8668740     0.9054230
  C       -2.7330240     1.6830710     0.7442420
  C        0.2088310     0.9821600    -0.3252730
  C        1.5466860     0.3366220    -0.1329200
  C        1.8387470    -0.9259720    -0.6670270
  C        2.5575830     1.0808050     0.4866160
  C        3.1278360    -1.4488340    -0.5554450
  C        3.8398480     0.5472150     0.6113220
  C        4.1275660    -0.7178550     0.0911790
  H       -2.0189590     1.4850890    -1.2525130
  H       -2.8205670    -0.6804150    -1.8065990
  H       -4.1624350     0.1514200    -1.0190010
  H       -3.9082830    -2.2246930    -0.2264870
  H       -3.7050990    -1.0869340     1.0980480
  H       -1.8940300    -2.7681710     1.2100160
  H       -1.4444710    -2.4355870    -0.4683360
  H       -1.2866520    -0.4768830     1.8722860
  H        0.0828400    -1.2295020     1.0584050
  H       -3.6731810     2.1637340     0.4547800
  H       -2.9192060     1.1010660     1.6506870
  H       -2.0023200     2.4636420     0.9693550
  H        1.0609540    -1.4829580    -1.1859370
  H        2.3266460     2.0767070     0.8563740
  H        3.3548360    -2.4238320    -0.9804540
  H        4.6199280     1.1225680     1.1042590
  H        5.1302370    -1.1288490     0.1814620
units angstrom
no_reorient  #important for SAPT in psi4, default
symmetry c1  #important for SAPT in psi4, default
}

set PROPERTIES_ORIGIN ["COM"]
properties('MP2/aug-cc-pvtz', properties = ['dipole'])
--------------------------------------------------------------------------

    Molecular point group: c1
  Charge       = 0
  Multiplicity = 1
  Basis Set: AUG-CC-PVTZ
    Blend: AUG-CC-PVTZ
  Basis Set: (AUG-CC-PVTZ AUX)
    Blend: AUG-CC-PVTZ-JKFIT

    Orbital Energies [Eh]
    ---------------------

    Doubly Occupied:

       1A    -20.519796     2A    -15.580250     3A    -11.350589
       4A    -11.266212     5A    -11.255773     6A    -11.250948
       7A    -11.249541     8A    -11.247884     9A    -11.245921
      10A    -11.245229    11A    -11.243383    12A    -11.227900
      13A    -11.224852    14A    -11.220289    15A    -11.212612
      16A     -1.370252    17A     -1.241174    18A     -1.161104
      19A     -1.082360    20A     -1.050979    21A     -1.029993
      22A     -1.023142    23A     -0.958862    24A     -0.895534
      25A     -0.864085    26A     -0.837471    27A     -0.829962
      28A     -0.782700    29A     -0.729957    30A     -0.717391
      31A     -0.682273    32A     -0.652884    33A     -0.638147
      34A     -0.627602    35A     -0.625055    36A     -0.603596
      37A     -0.599325    38A     -0.593377    39A     -0.586116
      40A     -0.573377    41A     -0.562561    42A     -0.544066
      43A     -0.526622    44A     -0.518721    45A     -0.507608
      46A     -0.502307    47A     -0.494718    48A     -0.492459
      49A     -0.467774    50A     -0.460350    51A     -0.447534
      52A     -0.423894    53A     -0.375023    54A     -0.344662
      55A     -0.342244

  @DF-RHF Final Energy:  -631.72458422998466

   => Energetics <=

    Nuclear Repulsion Energy =            998.1360250511721688
    One-Electron Energy =               -2839.5043371882716201
    Two-Electron Energy =                1209.6437279071149078
    Total Energy =                       -631.7245842299846572
  Basis Set: (AUG-CC-PVTZ AUX)
    Blend: AUG-CC-PVTZ-RI
    Molecular point group: c1

    Geometry (in Angstrom), charge = 0, multiplicity = 1:

       Center              X                  Y                   Z               Mass
    ------------   -----------------  -----------------  -----------------  -----------------
         O            0.072478250843     2.121050456958    -0.726325457887    15.994914619570
         N           -0.974170549157     0.146748256958    -0.152663857887    14.003074004430
         C           -2.274821749157     0.798817456958    -0.381314457887    12.000000000000
         C           -3.236153749157    -0.308806543042    -0.821216457887    12.000000000000
         C           -3.319018749157    -1.457510543042     0.183308542113    12.000000000000
         C           -1.922903749157    -2.008340543042     0.466331542113    12.000000000000
         C           -0.997984749157    -0.890043543042     0.928987542113    12.000000000000
         C           -2.797661749157     1.659901456958     0.767806542113    12.000000000000
         C            0.144193250843     0.958990456958    -0.301708457887    12.000000000000
         C            1.482048250843     0.313452456958    -0.109355457887    12.000000000000
         C            1.774109250843    -0.949141543042    -0.643462457887    12.000000000000
         C            2.492945250843     1.057635456958     0.510180542113    12.000000000000
         C            3.063198250843    -1.472003543042    -0.531880457887    12.000000000000
         C            3.775210250843     0.524045456958     0.634886542113    12.000000000000
         C            4.062928250843    -0.741024543042     0.114743542113    12.000000000000
         H           -2.083596749157     1.461919456958    -1.228948457887     1.007825032230
         H           -2.885204749157    -0.703584543042    -1.783034457887     1.007825032230
         H           -4.227072749157     0.128250456958    -0.995436457887     1.007825032230
         H           -3.972920749157    -2.247862543042    -0.202922457887     1.007825032230
         H           -3.769736749157    -1.110103543042     1.121612542113     1.007825032230
         H           -1.958667749157    -2.791340543042     1.233580542113     1.007825032230
         H           -1.509108749157    -2.458756543042    -0.444771457887     1.007825032230
         H           -1.351289749157    -0.500052543042     1.895850542113     1.007825032230
         H            0.018202250843    -1.252671543042     1.081969542113     1.007825032230
         H           -3.737818749157     2.140564456958     0.478344542113     1.007825032230
         H           -2.983843749157     1.077896456958     1.674251542113     1.007825032230
         H           -2.066957749157     2.440472456958     0.992919542113     1.007825032230
         H            0.996316250843    -1.506127543042    -1.162372457887     1.007825032230
         H            2.262008250843     2.053537456958     0.879938542113     1.007825032230
         H            3.290198250843    -2.447001543042    -0.956889457887     1.007825032230
         H            4.555290250843     1.099398456958     1.127823542113     1.007825032230
         H            5.065599250843    -1.152018543042     0.205026542113     1.007825032230

  Basis Set: AUG-CC-PVTZ
    Blend: AUG-CC-PVTZ
  Basis Set: (AUG-CC-PVTZ AUX)
    Blend: AUG-CC-PVTZ-JKFIT
	 Reference Energy          =    -631.7245842299846572 [Eh]
	 Singles Energy            =      -0.0000000000000000 [Eh]
	 Same-Spin Energy          =      -0.6887240562422289 [Eh]
	 Opposite-Spin Energy      =      -2.2124743740727846 [Eh]
	 Correlation Energy        =      -2.9011984303150133 [Eh]
	 Total Energy              =    -634.6257826602997056 [Eh]

	 ================> DF-SCS-MP2 Energies <==================
	-----------------------------------------------------------
	 SCS Same-Spin Scale       =       0.3333333333333333 [-]
	 SCS Opposite-Spin Scale   =       1.2000000000000000 [-]
	 SCS Same-Spin Energy      =      -0.2295746854140763 [Eh]
	 SCS Opposite-Spin Energy  =      -2.6549692488873413 [Eh]
	 SCS Correlation Energy    =      -2.8845439343014174 [Eh]
	 SCS Total Energy          =    -634.6091281642860622 [Eh]
	-----------------------------------------------------------

  Dipole Moment: [D]
     X:    -0.6876      Y:    -2.9353      Z:     1.5522     Total:     3.3909

*** Psi4 exiting successfully. Buy a developer a beer!
