                               Psi4 1.4a3.dev225

  ==> Input File <==

--------------------------------------------------------------------------
#psi4
#
memory 32 gb

molecule  {
0 1
  O        0.1371160     2.1442200    -0.7498900
  N       -0.9079200     0.2138270    -0.0832910
  C       -2.2101840     0.8219870    -0.4048790
  C       -3.1715160    -0.2856370    -0.8447810
  C       -3.2543810    -1.4343410     0.1597440
  C       -1.8582660    -1.9851710     0.4427670
  C       -0.9333470    -0.8668740     0.9054230
  C       -2.7330240     1.6830710     0.7442420
  C        0.1682797     0.9542604    -0.3164862
  C        1.5466860     0.3366220    -0.1329200
  C        1.8387470    -0.9259720    -0.6670270
  C        2.5575830     1.0808050     0.4866160
  C        3.1278360    -1.4488340    -0.5554450
  C        3.8398480     0.5472150     0.6113220
  C        4.1275660    -0.7178550     0.0911790
  H       -2.0189590     1.4850890    -1.2525130
  H       -2.8205670    -0.6804150    -1.8065990
  H       -4.1624350     0.1514200    -1.0190010
  H       -3.9082830    -2.2246930    -0.2264870
  H       -3.7050990    -1.0869340     1.0980480
  H       -1.8940300    -2.7681710     1.2100160
  H       -1.4444710    -2.4355870    -0.4683360
  H       -1.2866520    -0.4768830     1.8722860
  H        0.0828400    -1.2295020     1.0584050
  H       -3.6731810     2.1637340     0.4547800
  H       -2.9192060     1.1010660     1.6506870
  H       -2.0023200     2.4636420     0.9693550
  H        1.0609540    -1.4829580    -1.1859370
  H        2.3266460     2.0767070     0.8563740
  H        3.3548360    -2.4238320    -0.9804540
  H        4.6199280     1.1225680     1.1042590
  H        5.1302370    -1.1288490     0.1814620
units angstrom
no_reorient  #important for SAPT in psi4, default
symmetry c1  #important for SAPT in psi4, default
}

set PROPERTIES_ORIGIN ["COM"]
properties('MP2/aug-cc-pvtz', properties = ['dipole'])
--------------------------------------------------------------------------

    Molecular point group: c1
  Charge       = 0
  Multiplicity = 1
  Basis Set: AUG-CC-PVTZ
    Blend: AUG-CC-PVTZ
  Basis Set: (AUG-CC-PVTZ AUX)
    Blend: AUG-CC-PVTZ-JKFIT

    Orbital Energies [Eh]
    ---------------------

    Doubly Occupied:

       1A    -20.505299     2A    -15.587399     3A    -11.346924
       4A    -11.270381     5A    -11.261793     6A    -11.250306
       7A    -11.246879     8A    -11.245026     9A    -11.243225
      10A    -11.242918    11A    -11.241246    12A    -11.233161
      13A    -11.229275    14A    -11.226163    15A    -11.213657
      16A     -1.355679    17A     -1.254712    18A     -1.157947
      19A     -1.091771    20A     -1.056093    21A     -1.027608
      22A     -1.020820    23A     -0.965702    24A     -0.902726
      25A     -0.866915    26A     -0.836245    27A     -0.833264
      28A     -0.791819    29A     -0.729345    30A     -0.720367
      31A     -0.678835    32A     -0.657304    33A     -0.639356
      34A     -0.629601    35A     -0.624227    36A     -0.609052
      37A     -0.598089    38A     -0.591863    39A     -0.589172
      40A     -0.577040    41A     -0.565923    42A     -0.542846
      43A     -0.526495    44A     -0.520030    45A     -0.504932
      46A     -0.501133    47A     -0.496923    48A     -0.490005
      49A     -0.470448    50A     -0.464891    51A     -0.455499
      52A     -0.414903    53A     -0.372935    54A     -0.342681
      55A     -0.338306

  @DF-RHF Final Energy:  -631.72517941336980

   => Energetics <=

    Nuclear Repulsion Energy =            999.0161084581989144
    One-Electron Energy =               -2841.1682692902049894
    Two-Electron Energy =                1210.4269814186361600
    Total Energy =                       -631.7251794133699150
  Basis Set: (AUG-CC-PVTZ AUX)
    Blend: AUG-CC-PVTZ-RI
    Molecular point group: c1

    Geometry (in Angstrom), charge = 0, multiplicity = 1:

       Center              X                  Y                   Z               Mass
    ------------   -----------------  -----------------  -----------------  -----------------
         O            0.074762645691     2.119671698632    -0.733251287976    15.994914619570
         N           -0.970273354309     0.189278698632    -0.066652287976    14.003074004430
         C           -2.272537354309     0.797438698632    -0.388240287976    12.000000000000
         C           -3.233869354309    -0.310185301368    -0.828142287976    12.000000000000
         C           -3.316734354309    -1.458889301368     0.176382712024    12.000000000000
         C           -1.920619354309    -2.009719301368     0.459405712024    12.000000000000
         C           -0.995700354309    -0.891422301368     0.922061712024    12.000000000000
         C           -2.795377354309     1.658522698632     0.760880712024    12.000000000000
         C            0.105926345691     0.929712098632    -0.299847487976    12.000000000000
         C            1.484332645691     0.312073698632    -0.116281287976    12.000000000000
         C            1.776393645691    -0.950520301368    -0.650388287976    12.000000000000
         C            2.495229645691     1.056256698632     0.503254712024    12.000000000000
         C            3.065482645691    -1.473382301368    -0.538806287976    12.000000000000
         C            3.777494645691     0.522666698632     0.627960712024    12.000000000000
         C            4.065212645691    -0.742403301368     0.107817712024    12.000000000000
         H           -2.081312354309     1.460540698632    -1.235874287976     1.007825032230
         H           -2.882920354309    -0.704963301368    -1.789960287976     1.007825032230
         H           -4.224788354309     0.126871698632    -1.002362287976     1.007825032230
         H           -3.970636354309    -2.249241301368    -0.209848287976     1.007825032230
         H           -3.767452354309    -1.111482301368     1.114686712024     1.007825032230
         H           -1.956383354309    -2.792719301368     1.226654712024     1.007825032230
         H           -1.506824354309    -2.460135301368    -0.451697287976     1.007825032230
         H           -1.349005354309    -0.501431301368     1.888924712024     1.007825032230
         H            0.020486645691    -1.254050301368     1.075043712024     1.007825032230
         H           -3.735534354309     2.139185698632     0.471418712024     1.007825032230
         H           -2.981559354309     1.076517698632     1.667325712024     1.007825032230
         H           -2.064673354309     2.439093698632     0.985993712024     1.007825032230
         H            0.998600645691    -1.507506301368    -1.169298287976     1.007825032230
         H            2.264292645691     2.052158698632     0.873012712024     1.007825032230
         H            3.292482645691    -2.448380301368    -0.963815287976     1.007825032230
         H            4.557574645691     1.098019698632     1.120897712024     1.007825032230
         H            5.067883645691    -1.153397301368     0.198100712024     1.007825032230

  Basis Set: AUG-CC-PVTZ
    Blend: AUG-CC-PVTZ
  Basis Set: (AUG-CC-PVTZ AUX)
    Blend: AUG-CC-PVTZ-JKFIT
	 Reference Energy          =    -631.7251794133698013 [Eh]
	 Singles Energy            =      -0.0000000000000000 [Eh]
	 Same-Spin Energy          =      -0.6889470546501997 [Eh]
	 Opposite-Spin Energy      =      -2.2121894992240101 [Eh]
	 Correlation Energy        =      -2.9011365538742098 [Eh]
	 Total Energy              =    -634.6263159672439542 [Eh]

	 ================> DF-SCS-MP2 Energies <==================
	-----------------------------------------------------------
	 SCS Same-Spin Scale       =       0.3333333333333333 [-]
	 SCS Opposite-Spin Scale   =       1.2000000000000000 [-]
	 SCS Same-Spin Energy      =      -0.2296490182167332 [Eh]
	 SCS Opposite-Spin Energy  =      -2.6546273990688118 [Eh]
	 SCS Correlation Energy    =      -2.8842764172855451 [Eh]
	 SCS Total Energy          =    -634.6094558306552926 [Eh]
	-----------------------------------------------------------

  Dipole Moment: [D]
     X:    -1.2896      Y:    -3.3555      Z:     1.5840     Total:     3.9283

*** Psi4 exiting successfully. Buy a developer a beer!
