                               Psi4 1.3.2 release

  ==> Input File <==

--------------------------------------------------------------------------
#psi4
#
memory 32 gb

molecule  {
0 1
  O        0.1371160     2.1442200    -0.7498900
  N       -0.9079200     0.2138270    -0.0832910
  C       -2.2101840     0.8219870    -0.4048790
  C       -3.1715160    -0.2856370    -0.8447810
  C       -3.2543810    -1.4343410     0.1597440
  C       -1.8582660    -1.9851710     0.4427670
  C       -0.9333470    -0.8668740     0.9054230
  C       -2.7330240     1.6830710     0.7442420
  C        0.2641677     1.1027103    -0.2416874
  C        1.5466860     0.3366220    -0.1329200
  C        1.8387470    -0.9259720    -0.6670270
  C        2.5575830     1.0808050     0.4866160
  C        3.1278360    -1.4488340    -0.5554450
  C        3.8398480     0.5472150     0.6113220
  C        4.1275660    -0.7178550     0.0911790
  H       -2.0189590     1.4850890    -1.2525130
  H       -2.8205670    -0.6804150    -1.8065990
  H       -4.1624350     0.1514200    -1.0190010
  H       -3.9082830    -2.2246930    -0.2264870
  H       -3.7050990    -1.0869340     1.0980480
  H       -1.8940300    -2.7681710     1.2100160
  H       -1.4444710    -2.4355870    -0.4683360
  H       -1.2866520    -0.4768830     1.8722860
  H        0.0828400    -1.2295020     1.0584050
  H       -3.6731810     2.1637340     0.4547800
  H       -2.9192060     1.1010660     1.6506870
  H       -2.0023200     2.4636420     0.9693550
  H        1.0609540    -1.4829580    -1.1859370
  H        2.3266460     2.0767070     0.8563740
  H        3.3548360    -2.4238320    -0.9804540
  H        4.6199280     1.1225680     1.1042590
  H        5.1302370    -1.1288490     0.1814620
units angstrom
no_reorient  #important for SAPT in psi4, default
symmetry c1  #important for SAPT in psi4, default
}

set PROPERTIES_ORIGIN ["COM"]
properties('MP2/aug-cc-pvtz', properties = ['dipole'])
--------------------------------------------------------------------------

    Molecular point group: c1
  Charge       = 0
  Multiplicity = 1
  Basis Set: AUG-CC-PVTZ
    Blend: AUG-CC-PVTZ
  Basis Set: (AUG-CC-PVTZ AUX)
    Blend: AUG-CC-PVTZ-JKFIT

    Orbital Energies [Eh]
    ---------------------

    Doubly Occupied:

       1A    -20.537940     2A    -15.562809     3A    -11.352398
       4A    -11.254328     5A    -11.253184     6A    -11.251634
       7A    -11.250313     8A    -11.248901     9A    -11.247131
      10A    -11.245958    11A    -11.244022    12A    -11.223305
      13A    -11.221125    14A    -11.217920    15A    -11.207166
      16A     -1.423893    17A     -1.226836    18A     -1.162755
      19A     -1.072399    20A     -1.046474    21A     -1.031856
      22A     -1.023897    23A     -0.948244    24A     -0.887746
      25A     -0.860216    26A     -0.839214    27A     -0.827919
      28A     -0.777710    29A     -0.726812    30A     -0.712195
      31A     -0.687698    32A     -0.660316    33A     -0.638965
      34A     -0.631639    35A     -0.624207    36A     -0.604295
      37A     -0.600285    38A     -0.594234    39A     -0.587409
      40A     -0.573758    41A     -0.560032    42A     -0.551577
      43A     -0.527635    44A     -0.517397    45A     -0.511499
      46A     -0.504625    47A     -0.500227    48A     -0.487959
      49A     -0.467100    50A     -0.460255    51A     -0.445974
      52A     -0.418721    53A     -0.359850    54A     -0.346071
      55A     -0.343935

  @DF-RHF Final Energy:  -631.71237574617089

   => Energetics <=

    Nuclear Repulsion Energy =            997.9159331990247210
    One-Electron Energy =               -2839.0726882296453368
    Two-Electron Energy =                1209.4443792844497239
    Total Energy =                       -631.7123757461708919
  Basis Set: (AUG-CC-PVTZ AUX)
    Blend: AUG-CC-PVTZ-RI
    Molecular point group: c1

    Geometry (in Angstrom), charge = 0, multiplicity = 1:

       Center              X                  Y                   Z               Mass
    ------------   -----------------  -----------------  -----------------  -----------------
         O            0.069098045410     2.110901994964    -0.737670040098    15.994914619570
         N           -0.975937954590     0.180508994964    -0.071071040098    14.003074004430
         C           -2.278201954590     0.788668994964    -0.392659040098    12.000000000000
         C           -3.239533954590    -0.318955005036    -0.832561040098    12.000000000000
         C           -3.322398954590    -1.467659005036     0.171963959902    12.000000000000
         C           -1.926283954590    -2.018489005036     0.454986959902    12.000000000000
         C           -1.001364954590    -0.900192005036     0.917642959902    12.000000000000
         C           -2.801041954590     1.649752994964     0.756461959902    12.000000000000
         C            0.196149745410     1.069392294964    -0.229467440098    12.000000000000
         C            1.478668045410     0.303303994964    -0.120700040098    12.000000000000
         C            1.770729045410    -0.959290005036    -0.654807040098    12.000000000000
         C            2.489565045410     1.047486994964     0.498835959902    12.000000000000
         C            3.059818045410    -1.482152005036    -0.543225040098    12.000000000000
         C            3.771830045410     0.513896994964     0.623541959902    12.000000000000
         C            4.059548045410    -0.751173005036     0.103398959902    12.000000000000
         H           -2.086976954590     1.451770994964    -1.240293040098     1.007825032230
         H           -2.888584954590    -0.713733005036    -1.794379040098     1.007825032230
         H           -4.230452954590     0.118101994964    -1.006781040098     1.007825032230
         H           -3.976300954590    -2.258011005036    -0.214267040098     1.007825032230
         H           -3.773116954590    -1.120252005036     1.110267959902     1.007825032230
         H           -1.962047954590    -2.801489005036     1.222235959902     1.007825032230
         H           -1.512488954590    -2.468905005036    -0.456116040098     1.007825032230
         H           -1.354669954590    -0.510201005036     1.884505959902     1.007825032230
         H            0.014822045410    -1.262820005036     1.070624959902     1.007825032230
         H           -3.741198954590     2.130415994964     0.466999959902     1.007825032230
         H           -2.987223954590     1.067747994964     1.662906959902     1.007825032230
         H           -2.070337954590     2.430323994964     0.981574959902     1.007825032230
         H            0.992936045410    -1.516276005036    -1.173717040098     1.007825032230
         H            2.258628045410     2.043388994964     0.868593959902     1.007825032230
         H            3.286818045410    -2.457150005036    -0.968234040098     1.007825032230
         H            4.551910045410     1.089249994964     1.116478959902     1.007825032230
         H            5.062219045410    -1.162167005036     0.193681959902     1.007825032230

  Basis Set: AUG-CC-PVTZ
    Blend: AUG-CC-PVTZ
  Basis Set: (AUG-CC-PVTZ AUX)
    Blend: AUG-CC-PVTZ-JKFIT
	 Reference Energy          =    -631.7123757461708919 [Eh]
	 Singles Energy            =      -0.0000000000000000 [Eh]
	 Same-Spin Energy          =      -0.6879996324697670 [Eh]
	 Opposite-Spin Energy      =      -2.2109041962535678 [Eh]
	 Correlation Energy        =      -2.8989038287233351 [Eh]
	 Total Energy              =    -634.6112795748941835 [Eh]

	 ================> DF-SCS-MP2 Energies <==================
	-----------------------------------------------------------
	 SCS Same-Spin Scale       =       0.3333333333333333 [-]
	 SCS Opposite-Spin Scale   =       1.2000000000000000 [-]
	 SCS Same-Spin Energy      =      -0.2293332108232557 [Eh]
	 SCS Opposite-Spin Energy  =      -2.6530850355042812 [Eh]
	 SCS Correlation Energy    =      -2.8824182463275370 [Eh]
	 SCS Total Energy          =    -634.5947939924984667 [Eh]
	-----------------------------------------------------------

  Dipole Moment: [D]
     X:    -0.1656      Y:    -2.4717      Z:     1.2492     Total:     2.7744

*** Psi4 exiting successfully. Buy a developer a beer!
