                               Psi4 1.3.2 release

  ==> Input File <==

--------------------------------------------------------------------------
#psi4
#
memory 32 gb

molecule  {
0 1
  O        0.1803162     2.1453940    -0.7517700
  N       -0.9079200     0.2138270    -0.0832910
  C       -2.2101840     0.8219870    -0.4048790
  C       -3.1715160    -0.2856370    -0.8447810
  C       -3.2543810    -1.4343410     0.1597440
  C       -1.8582660    -1.9851710     0.4427670
  C       -0.9333470    -0.8668740     0.9054230
  C       -2.7330240     1.6830710     0.7442420
  C        0.2088310     0.9821600    -0.3252730
  C        1.5466860     0.3366220    -0.1329200
  C        1.8387470    -0.9259720    -0.6670270
  C        2.5575830     1.0808050     0.4866160
  C        3.1278360    -1.4488340    -0.5554450
  C        3.8398480     0.5472150     0.6113220
  C        4.1275660    -0.7178550     0.0911790
  H       -2.0189590     1.4850890    -1.2525130
  H       -2.8205670    -0.6804150    -1.8065990
  H       -4.1624350     0.1514200    -1.0190010
  H       -3.9082830    -2.2246930    -0.2264870
  H       -3.7050990    -1.0869340     1.0980480
  H       -1.8940300    -2.7681710     1.2100160
  H       -1.4444710    -2.4355870    -0.4683360
  H       -1.2866520    -0.4768830     1.8722860
  H        0.0828400    -1.2295020     1.0584050
  H       -3.6731810     2.1637340     0.4547800
  H       -2.9192060     1.1010660     1.6506870
  H       -2.0023200     2.4636420     0.9693550
  H        1.0609540    -1.4829580    -1.1859370
  H        2.3266460     2.0767070     0.8563740
  H        3.3548360    -2.4238320    -0.9804540
  H        4.6199280     1.1225680     1.1042590
  H        5.1302370    -1.1288490     0.1814620
units angstrom
no_reorient  #important for SAPT in psi4, default
symmetry c1  #important for SAPT in psi4, default
}

set PROPERTIES_ORIGIN ["COM"]
properties('MP2/aug-cc-pvtz', properties = ['dipole'])
--------------------------------------------------------------------------

    Molecular point group: c1
  Charge       = 0
  Multiplicity = 1
  Basis Set: AUG-CC-PVTZ
    Blend: AUG-CC-PVTZ
  Basis Set: (AUG-CC-PVTZ AUX)
    Blend: AUG-CC-PVTZ-JKFIT

    Orbital Energies [Eh]
    ---------------------

    Doubly Occupied:

       1A    -20.515163     2A    -15.581127     3A    -11.349309
       4A    -11.266129     5A    -11.259255     6A    -11.249024
       7A    -11.247850     8A    -11.246200     9A    -11.244049
      10A    -11.243910    11A    -11.241982    12A    -11.230315
      13A    -11.227087    14A    -11.223969    15A    -11.211957
      16A     -1.368342    17A     -1.248829    18A     -1.159441
      19A     -1.085719    20A     -1.053220    21A     -1.029830
      22A     -1.021819    23A     -0.960235    24A     -0.898031
      25A     -0.865499    26A     -0.836787    27A     -0.833262
      28A     -0.787035    29A     -0.729243    30A     -0.718233
      31A     -0.681326    32A     -0.654716    33A     -0.638581
      34A     -0.628065    35A     -0.626369    36A     -0.606201
      37A     -0.598933    38A     -0.592570    39A     -0.587323
      40A     -0.578427    41A     -0.565362    42A     -0.543479
      43A     -0.526145    44A     -0.520142    45A     -0.507056
      46A     -0.501958    47A     -0.494597    48A     -0.492577
      49A     -0.470851    50A     -0.463479    51A     -0.452728
      52A     -0.420821    53A     -0.369708    54A     -0.343424
      55A     -0.339981

  @DF-RHF Final Energy:  -631.72886643758363

   => Energetics <=

    Nuclear Repulsion Energy =            998.4903950699249435
    One-Electron Energy =               -2840.1631779458793972
    Two-Electron Energy =                1209.9439164383707066
    Total Energy =                       -631.7288664375837470
  Basis Set: (AUG-CC-PVTZ AUX)
    Blend: AUG-CC-PVTZ-RI
    Molecular point group: c1

    Geometry (in Angstrom), charge = 0, multiplicity = 1:

       Center              X                  Y                   Z               Mass
    ------------   -----------------  -----------------  -----------------  -----------------
         O            0.112165606331     2.119105081960    -0.734464171533    15.994914619570
         N           -0.976070593669     0.187538081960    -0.065985171533    14.003074004430
         C           -2.278334593669     0.795698081960    -0.387573171533    12.000000000000
         C           -3.239666593669    -0.311925918040    -0.827475171533    12.000000000000
         C           -3.322531593669    -1.460629918040     0.177049828467    12.000000000000
         C           -1.926416593669    -2.011459918040     0.460072828467    12.000000000000
         C           -1.001497593669    -0.893162918040     0.922728828467    12.000000000000
         C           -2.801174593669     1.656782081960     0.761547828467    12.000000000000
         C            0.140680406331     0.955871081960    -0.307967171533    12.000000000000
         C            1.478535406331     0.310333081960    -0.115614171533    12.000000000000
         C            1.770596406331    -0.952260918040    -0.649721171533    12.000000000000
         C            2.489432406331     1.054516081960     0.503921828467    12.000000000000
         C            3.059685406331    -1.475122918040    -0.538139171533    12.000000000000
         C            3.771697406331     0.520926081960     0.628627828467    12.000000000000
         C            4.059415406331    -0.744143918040     0.108484828467    12.000000000000
         H           -2.087109593669     1.458800081960    -1.235207171533     1.007825032230
         H           -2.888717593669    -0.706703918040    -1.789293171533     1.007825032230
         H           -4.230585593669     0.125131081960    -1.001695171533     1.007825032230
         H           -3.976433593669    -2.250981918040    -0.209181171533     1.007825032230
         H           -3.773249593669    -1.113222918040     1.115353828467     1.007825032230
         H           -1.962180593669    -2.794459918040     1.227321828467     1.007825032230
         H           -1.512621593669    -2.461875918040    -0.451030171533     1.007825032230
         H           -1.354802593669    -0.503171918040     1.889591828467     1.007825032230
         H            0.014689406331    -1.255790918040     1.075710828467     1.007825032230
         H           -3.741331593669     2.137445081960     0.472085828467     1.007825032230
         H           -2.987356593669     1.074777081960     1.667992828467     1.007825032230
         H           -2.070470593669     2.437353081960     0.986660828467     1.007825032230
         H            0.992803406331    -1.509246918040    -1.168631171533     1.007825032230
         H            2.258495406331     2.050418081960     0.873679828467     1.007825032230
         H            3.286685406331    -2.450120918040    -0.963148171533     1.007825032230
         H            4.551777406331     1.096279081960     1.121564828467     1.007825032230
         H            5.062086406331    -1.155137918040     0.198767828467     1.007825032230

  Basis Set: AUG-CC-PVTZ
    Blend: AUG-CC-PVTZ
  Basis Set: (AUG-CC-PVTZ AUX)
    Blend: AUG-CC-PVTZ-JKFIT
	 Reference Energy          =    -631.7288664375836333 [Eh]
	 Singles Energy            =      -0.0000000000000000 [Eh]
	 Same-Spin Energy          =      -0.6885876464905091 [Eh]
	 Opposite-Spin Energy      =      -2.2116107275483854 [Eh]
	 Correlation Energy        =      -2.9001983740388946 [Eh]
	 Total Energy              =    -634.6290648116225839 [Eh]

	 ================> DF-SCS-MP2 Energies <==================
	-----------------------------------------------------------
	 SCS Same-Spin Scale       =       0.3333333333333333 [-]
	 SCS Opposite-Spin Scale   =       1.2000000000000000 [-]
	 SCS Same-Spin Energy      =      -0.2295292154968364 [Eh]
	 SCS Opposite-Spin Energy  =      -2.6539328730580625 [Eh]
	 SCS Correlation Energy    =      -2.8834620885548987 [Eh]
	 SCS Total Energy          =    -634.6123285261385263 [Eh]
	-----------------------------------------------------------

  Dipole Moment: [D]
     X:    -1.0120      Y:    -3.1196      Z:     1.4728     Total:     3.5951

*** Psi4 exiting successfully. Buy a developer a beer!
