                               Psi4 1.3.2 release

  ==> Input File <==

--------------------------------------------------------------------------
#psi4
#
memory 32 gb

molecule  {
0 1
  O        0.1371160     2.1442200    -0.7498900
  N       -0.9079200     0.2138270    -0.0832910
  C       -2.2101840     0.8219870    -0.4048790
  C       -3.1715160    -0.2856370    -0.8447810
  C       -3.2543810    -1.4343410     0.1597440
  C       -1.8582660    -1.9851710     0.4427670
  C       -0.9333470    -0.8668740     0.9054230
  C       -2.7330240     1.6830710     0.7442420
  C        0.2088310     0.9821600    -0.3252730
  C        1.7253219     0.2504271    -0.1072362
  C        1.8387470    -0.9259720    -0.6670270
  C        2.5575830     1.0808050     0.4866160
  C        3.1278360    -1.4488340    -0.5554450
  C        3.8398480     0.5472150     0.6113220
  C        4.1275660    -0.7178550     0.0911790
  H       -2.0189590     1.4850890    -1.2525130
  H       -2.8205670    -0.6804150    -1.8065990
  H       -4.1624350     0.1514200    -1.0190010
  H       -3.9082830    -2.2246930    -0.2264870
  H       -3.7050990    -1.0869340     1.0980480
  H       -1.8940300    -2.7681710     1.2100160
  H       -1.4444710    -2.4355870    -0.4683360
  H       -1.2866520    -0.4768830     1.8722860
  H        0.0828400    -1.2295020     1.0584050
  H       -3.6731810     2.1637340     0.4547800
  H       -2.9192060     1.1010660     1.6506870
  H       -2.0023200     2.4636420     0.9693550
  H        1.0609540    -1.4829580    -1.1859370
  H        2.3266460     2.0767070     0.8563740
  H        3.3548360    -2.4238320    -0.9804540
  H        4.6199280     1.1225680     1.1042590
  H        5.1302370    -1.1288490     0.1814620
units angstrom
no_reorient  #important for SAPT in psi4, default
symmetry c1  #important for SAPT in psi4, default
}

set PROPERTIES_ORIGIN ["COM"]
properties('MP2/aug-cc-pvtz', properties = ['dipole'])
--------------------------------------------------------------------------

    Molecular point group: c1
  Charge       = 0
  Multiplicity = 1
  Basis Set: AUG-CC-PVTZ
    Blend: AUG-CC-PVTZ
  Basis Set: (AUG-CC-PVTZ AUX)
    Blend: AUG-CC-PVTZ-JKFIT

    Orbital Energies [Eh]
    ---------------------

    Doubly Occupied:

       1A    -20.514623     2A    -15.577836     3A    -11.349557
       4A    -11.264770     5A    -11.256793     6A    -11.246179
       7A    -11.245880     8A    -11.244040     9A    -11.240908
      10A    -11.236669    11A    -11.233715    12A    -11.229307
      13A    -11.225985    14A    -11.222459    15A    -11.210162
      16A     -1.362611    17A     -1.243677    18A     -1.182136
      19A     -1.081993    20A     -1.050129    21A     -1.036561
      22A     -1.028420    23A     -0.957846    24A     -0.891406
      25A     -0.852732    26A     -0.846380    27A     -0.826990
      28A     -0.788779    29A     -0.727253    30A     -0.717737
      31A     -0.670351    32A     -0.649593    33A     -0.645273
      34A     -0.630832    35A     -0.625097    36A     -0.613415
      37A     -0.599071    38A     -0.591240    39A     -0.584017
      40A     -0.575557    41A     -0.562927    42A     -0.543828
      43A     -0.525781    44A     -0.519343    45A     -0.517978
      46A     -0.508016    47A     -0.493507    48A     -0.490097
      49A     -0.469157    50A     -0.461655    51A     -0.450645
      52A     -0.393240    53A     -0.366465    54A     -0.351884
      55A     -0.347131

  @DF-RHF Final Energy:  -631.68954009828360

   => Energetics <=

    Nuclear Repulsion Energy =            998.2674116697568252
    One-Electron Energy =               -2839.7546393463262575
    Two-Electron Energy =                1209.7976875782860589
    Total Energy =                       -631.6895400982834872
  Basis Set: (AUG-CC-PVTZ AUX)
    Blend: AUG-CC-PVTZ-RI
    Molecular point group: c1

    Geometry (in Angstrom), charge = 0, multiplicity = 1:

       Center              X                  Y                   Z               Mass
    ------------   -----------------  -----------------  -----------------  -----------------
         O            0.061814123720     2.123115503620    -0.734249481190    15.994914619570
         N           -0.983221876280     0.192722503620    -0.067650481190    14.003074004430
         C           -2.285485876280     0.800882503620    -0.389238481190    12.000000000000
         C           -3.246817876280    -0.306741496380    -0.829140481190    12.000000000000
         C           -3.329682876280    -1.455445496380     0.175384518810    12.000000000000
         C           -1.933567876280    -2.006275496380     0.458407518810    12.000000000000
         C           -1.008648876280    -0.887978496380     0.921063518810    12.000000000000
         C           -2.808325876280     1.661966503620     0.759882518810    12.000000000000
         C            0.133529123720     0.961055503620    -0.309632481190    12.000000000000
         C            1.650020023720     0.229322603620    -0.091595681190    12.000000000000
         C            1.763445123720    -0.947076496380    -0.651386481190    12.000000000000
         C            2.482281123720     1.059700503620     0.502256518810    12.000000000000
         C            3.052534123720    -1.469938496380    -0.539804481190    12.000000000000
         C            3.764546123720     0.526110503620     0.626962518810    12.000000000000
         C            4.052264123720    -0.738959496380     0.106819518810    12.000000000000
         H           -2.094260876280     1.463984503620    -1.236872481190     1.007825032230
         H           -2.895868876280    -0.701519496380    -1.790958481190     1.007825032230
         H           -4.237736876280     0.130315503620    -1.003360481190     1.007825032230
         H           -3.983584876280    -2.245797496380    -0.210846481190     1.007825032230
         H           -3.780400876280    -1.108038496380     1.113688518810     1.007825032230
         H           -1.969331876280    -2.789275496380     1.225656518810     1.007825032230
         H           -1.519772876280    -2.456691496380    -0.452695481190     1.007825032230
         H           -1.361953876280    -0.497987496380     1.887926518810     1.007825032230
         H            0.007538123720    -1.250606496380     1.074045518810     1.007825032230
         H           -3.748482876280     2.142629503620     0.470420518810     1.007825032230
         H           -2.994507876280     1.079961503620     1.666327518810     1.007825032230
         H           -2.077621876280     2.442537503620     0.984995518810     1.007825032230
         H            0.985652123720    -1.504062496380    -1.170296481190     1.007825032230
         H            2.251344123720     2.055602503620     0.872014518810     1.007825032230
         H            3.279534123720    -2.444936496380    -0.964813481190     1.007825032230
         H            4.544626123720     1.101463503620     1.119899518810     1.007825032230
         H            5.054935123720    -1.149953496380     0.197102518810     1.007825032230

  Basis Set: AUG-CC-PVTZ
    Blend: AUG-CC-PVTZ
  Basis Set: (AUG-CC-PVTZ AUX)
    Blend: AUG-CC-PVTZ-JKFIT
	 Reference Energy          =    -631.6895400982836009 [Eh]
	 Singles Energy            =      -0.0000000000000000 [Eh]
	 Same-Spin Energy          =      -0.6890309280559037 [Eh]
	 Opposite-Spin Energy      =      -2.2121623463415956 [Eh]
	 Correlation Energy        =      -2.9011932743974995 [Eh]
	 Total Energy              =    -634.5907333726811430 [Eh]

	 ================> DF-SCS-MP2 Energies <==================
	-----------------------------------------------------------
	 SCS Same-Spin Scale       =       0.3333333333333333 [-]
	 SCS Opposite-Spin Scale   =       1.2000000000000000 [-]
	 SCS Same-Spin Energy      =      -0.2296769760186346 [Eh]
	 SCS Opposite-Spin Energy  =      -2.6545948156099146 [Eh]
	 SCS Correlation Energy    =      -2.8842717916285494 [Eh]
	 SCS Total Energy          =    -634.5738118899121218 [Eh]
	-----------------------------------------------------------

  Dipole Moment: [D]
     X:    -0.9546      Y:    -3.0364      Z:     1.4386     Total:     3.4929

*** Psi4 exiting successfully. Buy a developer a beer!
