                               Psi4 1.3.2 release

  ==> Input File <==

--------------------------------------------------------------------------
#psi4
#
memory 32 gb

molecule  {
0 1
  O        0.1371160     2.1442200    -0.7498900
  N       -0.9094935     0.2369066    -0.0373818
  C       -2.2101840     0.8219870    -0.4048790
  C       -3.1715160    -0.2856370    -0.8447810
  C       -3.2543810    -1.4343410     0.1597440
  C       -1.8582660    -1.9851710     0.4427670
  C       -0.9333470    -0.8668740     0.9054230
  C       -2.7330240     1.6830710     0.7442420
  C        0.2088310     0.9821600    -0.3252730
  C        1.5466860     0.3366220    -0.1329200
  C        1.8387470    -0.9259720    -0.6670270
  C        2.5575830     1.0808050     0.4866160
  C        3.1278360    -1.4488340    -0.5554450
  C        3.8398480     0.5472150     0.6113220
  C        4.1275660    -0.7178550     0.0911790
  H       -2.0189590     1.4850890    -1.2525130
  H       -2.8205670    -0.6804150    -1.8065990
  H       -4.1624350     0.1514200    -1.0190010
  H       -3.9082830    -2.2246930    -0.2264870
  H       -3.7050990    -1.0869340     1.0980480
  H       -1.8940300    -2.7681710     1.2100160
  H       -1.4444710    -2.4355870    -0.4683360
  H       -1.2866520    -0.4768830     1.8722860
  H        0.0828400    -1.2295020     1.0584050
  H       -3.6731810     2.1637340     0.4547800
  H       -2.9192060     1.1010660     1.6506870
  H       -2.0023200     2.4636420     0.9693550
  H        1.0609540    -1.4829580    -1.1859370
  H        2.3266460     2.0767070     0.8563740
  H        3.3548360    -2.4238320    -0.9804540
  H        4.6199280     1.1225680     1.1042590
  H        5.1302370    -1.1288490     0.1814620
units angstrom
no_reorient  #important for SAPT in psi4, default
symmetry c1  #important for SAPT in psi4, default
}

set PROPERTIES_ORIGIN ["COM"]
properties('MP2/aug-cc-pvtz', properties = ['dipole'])
--------------------------------------------------------------------------

    Molecular point group: c1
  Charge       = 0
  Multiplicity = 1
  Basis Set: AUG-CC-PVTZ
    Blend: AUG-CC-PVTZ
  Basis Set: (AUG-CC-PVTZ AUX)
    Blend: AUG-CC-PVTZ-JKFIT

    Orbital Energies [Eh]
    ---------------------

    Doubly Occupied:

       1A    -20.512413     2A    -15.578703     3A    -11.348641
       4A    -11.264333     5A    -11.258379     6A    -11.250679
       7A    -11.249478     8A    -11.247451     9A    -11.245338
      10A    -11.245169    11A    -11.243100    12A    -11.230251
      13A    -11.226855    14A    -11.224147    15A    -11.209765
      16A     -1.367903    17A     -1.248231    18A     -1.160806
      19A     -1.085525    20A     -1.053067    21A     -1.031206
      22A     -1.023066    23A     -0.959052    24A     -0.897851
      25A     -0.866079    26A     -0.837572    27A     -0.834706
      28A     -0.788400    29A     -0.728718    30A     -0.717538
      31A     -0.681775    32A     -0.655589    33A     -0.638811
      34A     -0.627948    35A     -0.626740    36A     -0.607486
      37A     -0.599030    38A     -0.593571    39A     -0.586592
      40A     -0.579129    41A     -0.565278    42A     -0.542117
      43A     -0.525659    44A     -0.519760    45A     -0.507729
      46A     -0.503156    47A     -0.493454    48A     -0.492338
      49A     -0.470743    50A     -0.463427    51A     -0.452403
      52A     -0.419972    53A     -0.364831    54A     -0.344552
      55A     -0.341723

  @DF-RHF Final Energy:  -631.72892114612171

   => Energetics <=

    Nuclear Repulsion Energy =            998.8068640937026430
    One-Electron Energy =               -2840.7951037520037971
    Two-Electron Energy =                1210.2593185121795614
    Total Energy =                       -631.7289211461215928
  Basis Set: (AUG-CC-PVTZ AUX)
    Blend: AUG-CC-PVTZ-RI
    Molecular point group: c1

    Geometry (in Angstrom), charge = 0, multiplicity = 1:

       Center              X                  Y                   Z               Mass
    ------------   -----------------  -----------------  -----------------  -----------------
         O            0.072475541651     2.116432505693    -0.735897010626    15.994914619570
         N           -0.974133958349     0.209119105693    -0.023388810626    14.003074004430
         C           -2.274824458349     0.794199505693    -0.390886010626    12.000000000000
         C           -3.236156458349    -0.313424494307    -0.830788010626    12.000000000000
         C           -3.319021458349    -1.462128494307     0.173736989374    12.000000000000
         C           -1.922906458349    -2.012958494307     0.456759989374    12.000000000000
         C           -0.997987458349    -0.894661494307     0.919415989374    12.000000000000
         C           -2.797664458349     1.655283505693     0.758234989374    12.000000000000
         C            0.144190541651     0.954372505693    -0.311280010626    12.000000000000
         C            1.482045541651     0.308834505693    -0.118927010626    12.000000000000
         C            1.774106541651    -0.953759494307    -0.653034010626    12.000000000000
         C            2.492942541651     1.053017505693     0.500608989374    12.000000000000
         C            3.063195541651    -1.476621494307    -0.541452010626    12.000000000000
         C            3.775207541651     0.519427505693     0.625314989374    12.000000000000
         C            4.062925541651    -0.745642494307     0.105171989374    12.000000000000
         H           -2.083599458349     1.457301505693    -1.238520010626     1.007825032230
         H           -2.885207458349    -0.708202494307    -1.792606010626     1.007825032230
         H           -4.227075458349     0.123632505693    -1.005008010626     1.007825032230
         H           -3.972923458349    -2.252480494307    -0.212494010626     1.007825032230
         H           -3.769739458349    -1.114721494307     1.112040989374     1.007825032230
         H           -1.958670458349    -2.795958494307     1.224008989374     1.007825032230
         H           -1.509111458349    -2.463374494307    -0.454343010626     1.007825032230
         H           -1.351292458349    -0.504670494307     1.886278989374     1.007825032230
         H            0.018199541651    -1.257289494307     1.072397989374     1.007825032230
         H           -3.737821458349     2.135946505693     0.468772989374     1.007825032230
         H           -2.983846458349     1.073278505693     1.664679989374     1.007825032230
         H           -2.066960458349     2.435854505693     0.983347989374     1.007825032230
         H            0.996313541651    -1.510745494307    -1.171944010626     1.007825032230
         H            2.262005541651     2.048919505693     0.870366989374     1.007825032230
         H            3.290195541651    -2.451619494307    -0.966461010626     1.007825032230
         H            4.555287541651     1.094780505693     1.118251989374     1.007825032230
         H            5.065596541651    -1.156636494307     0.195454989374     1.007825032230

  Basis Set: AUG-CC-PVTZ
    Blend: AUG-CC-PVTZ
  Basis Set: (AUG-CC-PVTZ AUX)
    Blend: AUG-CC-PVTZ-JKFIT
	 Reference Energy          =    -631.7289211461217064 [Eh]
	 Singles Energy            =      -0.0000000000000000 [Eh]
	 Same-Spin Energy          =      -0.6886801292788117 [Eh]
	 Opposite-Spin Energy      =      -2.2114718800876285 [Eh]
	 Correlation Energy        =      -2.9001520093664404 [Eh]
	 Total Energy              =    -634.6290731554881859 [Eh]

	 ================> DF-SCS-MP2 Energies <==================
	-----------------------------------------------------------
	 SCS Same-Spin Scale       =       0.3333333333333333 [-]
	 SCS Opposite-Spin Scale   =       1.2000000000000000 [-]
	 SCS Same-Spin Energy      =      -0.2295600430929372 [Eh]
	 SCS Opposite-Spin Energy  =      -2.6537662561051540 [Eh]
	 SCS Correlation Energy    =      -2.8833262991980915 [Eh]
	 SCS Total Energy          =    -634.6122474453197810 [Eh]
	-----------------------------------------------------------

  Dipole Moment: [D]
     X:    -0.8755      Y:    -3.2123      Z:     1.4139     Total:     3.6172

*** Psi4 exiting successfully. Buy a developer a beer!
