                               Psi4 1.3.2 release

  ==> Input File <==

--------------------------------------------------------------------------
#psi4
#
memory 32 gb

molecule  {
0 1
  O        0.1371160     2.1442200    -0.7498900
  N       -0.9079200     0.2138270    -0.0832910
  C       -2.2101840     0.8219870    -0.4048790
  C       -3.1715160    -0.2856370    -0.8447810
  C       -3.2543810    -1.4343410     0.1597440
  C       -1.8582660    -1.9851710     0.4427670
  C       -0.9333470    -0.8668740     0.9054230
  C       -2.7330240     1.6830710     0.7442420
  C        0.0466259     0.8705617    -0.2901258
  C        1.5466860     0.3366220    -0.1329200
  C        1.8387470    -0.9259720    -0.6670270
  C        2.5575830     1.0808050     0.4866160
  C        3.1278360    -1.4488340    -0.5554450
  C        3.8398480     0.5472150     0.6113220
  C        4.1275660    -0.7178550     0.0911790
  H       -2.0189590     1.4850890    -1.2525130
  H       -2.8205670    -0.6804150    -1.8065990
  H       -4.1624350     0.1514200    -1.0190010
  H       -3.9082830    -2.2246930    -0.2264870
  H       -3.7050990    -1.0869340     1.0980480
  H       -1.8940300    -2.7681710     1.2100160
  H       -1.4444710    -2.4355870    -0.4683360
  H       -1.2866520    -0.4768830     1.8722860
  H        0.0828400    -1.2295020     1.0584050
  H       -3.6731810     2.1637340     0.4547800
  H       -2.9192060     1.1010660     1.6506870
  H       -2.0023200     2.4636420     0.9693550
  H        1.0609540    -1.4829580    -1.1859370
  H        2.3266460     2.0767070     0.8563740
  H        3.3548360    -2.4238320    -0.9804540
  H        4.6199280     1.1225680     1.1042590
  H        5.1302370    -1.1288490     0.1814620
units angstrom
no_reorient  #important for SAPT in psi4, default
symmetry c1  #important for SAPT in psi4, default
}

set PROPERTIES_ORIGIN ["COM"]
properties('MP2/aug-cc-pvtz', properties = ['dipole'])
--------------------------------------------------------------------------

    Molecular point group: c1
  Charge       = 0
  Multiplicity = 1
  Basis Set: AUG-CC-PVTZ
    Blend: AUG-CC-PVTZ
  Basis Set: (AUG-CC-PVTZ AUX)
    Blend: AUG-CC-PVTZ-JKFIT

    Orbital Energies [Eh]
    ---------------------

    Doubly Occupied:

       1A    -20.476445     2A    -15.608729     3A    -11.335213
       4A    -11.286366     5A    -11.274556     6A    -11.251140
       7A    -11.244188     8A    -11.239255     9A    -11.238463
      10A    -11.238179    11A    -11.237281    12A    -11.236298
      13A    -11.236063    14A    -11.234926    15A    -11.222496
      16A     -1.375287    17A     -1.235060    18A     -1.149787
      19A     -1.114594    20A     -1.069340    21A     -1.017870
      22A     -1.013457    23A     -0.987388    24A     -0.921367
      25A     -0.877363    26A     -0.835931    27A     -0.825288
      28A     -0.805926    29A     -0.741244    30A     -0.715878
      31A     -0.674909    32A     -0.667380    33A     -0.648791
      34A     -0.641686    35A     -0.619590    36A     -0.610825
      37A     -0.607044    38A     -0.599199    39A     -0.586056
      40A     -0.581711    41A     -0.560584    42A     -0.540423
      43A     -0.532264    44A     -0.519805    45A     -0.508207
      46A     -0.499383    47A     -0.492470    48A     -0.487007
      49A     -0.470994    50A     -0.467425    51A     -0.462373
      52A     -0.389599    53A     -0.374492    54A     -0.337326
      55A     -0.326128

  @DF-RHF Final Energy:  -631.66524623553323

   => Energetics <=

    Nuclear Repulsion Energy =           1000.4437059094188953
    One-Electron Energy =               -2843.7158086857252783
    Two-Electron Energy =                1211.6068565407731512
    Total Energy =                       -631.6652462355332318
  Basis Set: (AUG-CC-PVTZ AUX)
    Blend: AUG-CC-PVTZ-RI
    Molecular point group: c1

    Geometry (in Angstrom), charge = 0, multiplicity = 1:

       Center              X                  Y                   Z               Mass
    ------------   -----------------  -----------------  -----------------  -----------------
         O            0.081949365089     2.124616213895    -0.734808533191    15.994914619570
         N           -0.963086634911     0.194223213895    -0.068209533191    14.003074004430
         C           -2.265350634911     0.802383213895    -0.389797533191    12.000000000000
         C           -3.226682634911    -0.305240786105    -0.829699533191    12.000000000000
         C           -3.309547634911    -1.453944786105     0.174825466809    12.000000000000
         C           -1.913432634911    -2.004774786105     0.457848466809    12.000000000000
         C           -0.988513634911    -0.886477786105     0.920504466809    12.000000000000
         C           -2.788190634911     1.663467213895     0.759323466809    12.000000000000
         C           -0.008540734911     0.850957913895    -0.275044333191    12.000000000000
         C            1.491519365089     0.317018213895    -0.117838533191    12.000000000000
         C            1.783580365089    -0.945575786105    -0.651945533191    12.000000000000
         C            2.502416365089     1.061201213895     0.501697466809    12.000000000000
         C            3.072669365089    -1.468437786105    -0.540363533191    12.000000000000
         C            3.784681365089     0.527611213895     0.626403466809    12.000000000000
         C            4.072399365089    -0.737458786105     0.106260466809    12.000000000000
         H           -2.074125634911     1.465485213895    -1.237431533191     1.007825032230
         H           -2.875733634911    -0.700018786105    -1.791517533191     1.007825032230
         H           -4.217601634911     0.131816213895    -1.003919533191     1.007825032230
         H           -3.963449634911    -2.244296786105    -0.211405533191     1.007825032230
         H           -3.760265634911    -1.106537786105     1.113129466809     1.007825032230
         H           -1.949196634911    -2.787774786105     1.225097466809     1.007825032230
         H           -1.499637634911    -2.455190786105    -0.453254533191     1.007825032230
         H           -1.341818634911    -0.496486786105     1.887367466809     1.007825032230
         H            0.027673365089    -1.249105786105     1.073486466809     1.007825032230
         H           -3.728347634911     2.144130213895     0.469861466809     1.007825032230
         H           -2.974372634911     1.081462213895     1.665768466809     1.007825032230
         H           -2.057486634911     2.444038213895     0.984436466809     1.007825032230
         H            1.005787365089    -1.502561786105    -1.170855533191     1.007825032230
         H            2.271479365089     2.057103213895     0.871455466809     1.007825032230
         H            3.299669365089    -2.443435786105    -0.965372533191     1.007825032230
         H            4.564761365089     1.102964213895     1.119340466809     1.007825032230
         H            5.075070365089    -1.148452786105     0.196543466809     1.007825032230

  Basis Set: AUG-CC-PVTZ
    Blend: AUG-CC-PVTZ
  Basis Set: (AUG-CC-PVTZ AUX)
    Blend: AUG-CC-PVTZ-JKFIT
	 Reference Energy          =    -631.6652462355332318 [Eh]
	 Singles Energy            =      -0.0000000000000000 [Eh]
	 Same-Spin Energy          =      -0.6900727594015533 [Eh]
	 Opposite-Spin Energy      =      -2.2143612633374565 [Eh]
	 Correlation Energy        =      -2.9044340227390100 [Eh]
	 Total Energy              =    -634.5696802582722285 [Eh]

	 ================> DF-SCS-MP2 Energies <==================
	-----------------------------------------------------------
	 SCS Same-Spin Scale       =       0.3333333333333333 [-]
	 SCS Opposite-Spin Scale   =       1.2000000000000000 [-]
	 SCS Same-Spin Energy      =      -0.2300242531338511 [Eh]
	 SCS Opposite-Spin Energy  =      -2.6572335160049478 [Eh]
	 SCS Correlation Energy    =      -2.8872577691387988 [Eh]
	 SCS Total Energy          =    -634.5525040046720733 [Eh]
	-----------------------------------------------------------

  Dipole Moment: [D]
     X:    -2.5573      Y:    -4.0761      Z:     1.9582     Total:     5.1951

*** Psi4 exiting successfully. Buy a developer a beer!
