                               Psi4 1.3.2 release

  ==> Input File <==

--------------------------------------------------------------------------
#psi4
#
memory 32 gb

molecule  {
0 1
  O        0.0510303     2.1376278    -0.7445808
  N       -0.9079200     0.2138270    -0.0832910
  C       -2.2101840     0.8219870    -0.4048790
  C       -3.1715160    -0.2856370    -0.8447810
  C       -3.2543810    -1.4343410     0.1597440
  C       -1.8582660    -1.9851710     0.4427670
  C       -0.9333470    -0.8668740     0.9054230
  C       -2.7330240     1.6830710     0.7442420
  C        0.2088310     0.9821600    -0.3252730
  C        1.5466860     0.3366220    -0.1329200
  C        1.8387470    -0.9259720    -0.6670270
  C        2.5575830     1.0808050     0.4866160
  C        3.1278360    -1.4488340    -0.5554450
  C        3.8398480     0.5472150     0.6113220
  C        4.1275660    -0.7178550     0.0911790
  H       -2.0189590     1.4850890    -1.2525130
  H       -2.8205670    -0.6804150    -1.8065990
  H       -4.1624350     0.1514200    -1.0190010
  H       -3.9082830    -2.2246930    -0.2264870
  H       -3.7050990    -1.0869340     1.0980480
  H       -1.8940300    -2.7681710     1.2100160
  H       -1.4444710    -2.4355870    -0.4683360
  H       -1.2866520    -0.4768830     1.8722860
  H        0.0828400    -1.2295020     1.0584050
  H       -3.6731810     2.1637340     0.4547800
  H       -2.9192060     1.1010660     1.6506870
  H       -2.0023200     2.4636420     0.9693550
  H        1.0609540    -1.4829580    -1.1859370
  H        2.3266460     2.0767070     0.8563740
  H        3.3548360    -2.4238320    -0.9804540
  H        4.6199280     1.1225680     1.1042590
  H        5.1302370    -1.1288490     0.1814620
units angstrom
no_reorient  #important for SAPT in psi4, default
symmetry c1  #important for SAPT in psi4, default
}

set PROPERTIES_ORIGIN ["COM"]
properties('MP2/aug-cc-pvtz', properties = ['dipole'])
--------------------------------------------------------------------------

    Molecular point group: c1
  Charge       = 0
  Multiplicity = 1
  Basis Set: AUG-CC-PVTZ
    Blend: AUG-CC-PVTZ
  Basis Set: (AUG-CC-PVTZ AUX)
    Blend: AUG-CC-PVTZ-JKFIT

    Orbital Energies [Eh]
    ---------------------

    Doubly Occupied:

       1A    -20.512621     2A    -15.575123     3A    -11.348608
       4A    -11.262873     5A    -11.254376     6A    -11.253879
       7A    -11.252342     8A    -11.250002     9A    -11.248278
      10A    -11.247231    11A    -11.245268    12A    -11.227920
      13A    -11.224577    14A    -11.220887    15A    -11.208400
      16A     -1.369507    17A     -1.241408    18A     -1.163456
      19A     -1.082863    20A     -1.051082    21A     -1.032377
      22A     -1.025311    23A     -0.957088    24A     -0.895892
      25A     -0.865613    26A     -0.839122    27A     -0.832683
      28A     -0.786317    29A     -0.728810    30A     -0.716790
      31A     -0.683095    32A     -0.655209    33A     -0.638891
      34A     -0.628420    35A     -0.624294    36A     -0.606060
      37A     -0.598887    38A     -0.595160    39A     -0.585080
      40A     -0.575569    41A     -0.563058    42A     -0.542025
      43A     -0.526461    44A     -0.517883    45A     -0.508675
      46A     -0.504709    47A     -0.492592    48A     -0.491941
      49A     -0.467865    50A     -0.460071    51A     -0.448867
      52A     -0.420653    53A     -0.364652    54A     -0.346610
      55A     -0.345144

  @DF-RHF Final Energy:  -631.72742705536325

   => Energetics <=

    Nuclear Repulsion Energy =            999.1372374163345285
    One-Electron Energy =               -2841.5041852917347569
    Two-Electron Energy =                1210.6395208200369780
    Total Energy =                       -631.7274270553632505
  Basis Set: (AUG-CC-PVTZ AUX)
    Blend: AUG-CC-PVTZ-RI
    Molecular point group: c1

    Geometry (in Angstrom), charge = 0, multiplicity = 1:

       Center              X                  Y                   Z               Mass
    ------------   -----------------  -----------------  -----------------  -----------------
         O           -0.006940080960     2.111950407021    -0.727841062540    15.994914619570
         N           -0.965890380960     0.188149607021    -0.066551262540    14.003074004430
         C           -2.268154380960     0.796309607021    -0.388139262540    12.000000000000
         C           -3.229486380960    -0.311314392979    -0.828041262540    12.000000000000
         C           -3.312351380960    -1.460018392979     0.176483737460    12.000000000000
         C           -1.916236380960    -2.010848392979     0.459506737460    12.000000000000
         C           -0.991317380960    -0.892551392979     0.922162737460    12.000000000000
         C           -2.790994380960     1.657393607021     0.760981737460    12.000000000000
         C            0.150860619040     0.956482607021    -0.308533262540    12.000000000000
         C            1.488715619040     0.310944607021    -0.116180262540    12.000000000000
         C            1.780776619040    -0.951649392979    -0.650287262540    12.000000000000
         C            2.499612619040     1.055127607021     0.503355737460    12.000000000000
         C            3.069865619040    -1.474511392979    -0.538705262540    12.000000000000
         C            3.781877619040     0.521537607021     0.628061737460    12.000000000000
         C            4.069595619040    -0.743532392979     0.107918737460    12.000000000000
         H           -2.076929380960     1.459411607021    -1.235773262540     1.007825032230
         H           -2.878537380960    -0.706092392979    -1.789859262540     1.007825032230
         H           -4.220405380960     0.125742607021    -1.002261262540     1.007825032230
         H           -3.966253380960    -2.250370392979    -0.209747262540     1.007825032230
         H           -3.763069380960    -1.112611392979     1.114787737460     1.007825032230
         H           -1.952000380960    -2.793848392979     1.226755737460     1.007825032230
         H           -1.502441380960    -2.461264392979    -0.451596262540     1.007825032230
         H           -1.344622380960    -0.502560392979     1.889025737460     1.007825032230
         H            0.024869619040    -1.255179392979     1.075144737460     1.007825032230
         H           -3.731151380960     2.138056607021     0.471519737460     1.007825032230
         H           -2.977176380960     1.075388607021     1.667426737460     1.007825032230
         H           -2.060290380960     2.437964607021     0.986094737460     1.007825032230
         H            1.002983619040    -1.508635392979    -1.169197262540     1.007825032230
         H            2.268675619040     2.051029607021     0.873113737460     1.007825032230
         H            3.296865619040    -2.449509392979    -0.963714262540     1.007825032230
         H            4.561957619040     1.096890607021     1.120998737460     1.007825032230
         H            5.072266619040    -1.154526392979     0.198201737460     1.007825032230

  Basis Set: AUG-CC-PVTZ
    Blend: AUG-CC-PVTZ
  Basis Set: (AUG-CC-PVTZ AUX)
    Blend: AUG-CC-PVTZ-JKFIT
	 Reference Energy          =    -631.7274270553632505 [Eh]
	 Singles Energy            =      -0.0000000000000000 [Eh]
	 Same-Spin Energy          =      -0.6888408140269764 [Eh]
	 Opposite-Spin Energy      =      -2.2117895459546792 [Eh]
	 Correlation Energy        =      -2.9006303599816556 [Eh]
	 Total Energy              =    -634.6280574153448697 [Eh]

	 ================> DF-SCS-MP2 Energies <==================
	-----------------------------------------------------------
	 SCS Same-Spin Scale       =       0.3333333333333333 [-]
	 SCS Opposite-Spin Scale   =       1.2000000000000000 [-]
	 SCS Same-Spin Energy      =      -0.2296136046756588 [Eh]
	 SCS Opposite-Spin Energy  =      -2.6541474551456150 [Eh]
	 SCS Correlation Energy    =      -2.8837610598212740 [Eh]
	 SCS Total Energy          =    -634.6111881151845182 [Eh]
	-----------------------------------------------------------

  Dipole Moment: [D]
     X:    -0.4802      Y:    -3.1323      Z:     1.4400     Total:     3.4807

*** Psi4 exiting successfully. Buy a developer a beer!
