                               Psi4 1.3.2 release

  ==> Input File <==

--------------------------------------------------------------------------
#psi4
#
memory 32 gb

molecule  {
0 1
  O        0.1371160     2.1442200    -0.7498900
  N       -0.9079200     0.2138270    -0.0832910
  C       -2.1892138     0.8151323    -0.3898917
  C       -3.1715160    -0.2856370    -0.8447810
  C       -3.2543810    -1.4343410     0.1597440
  C       -1.8582660    -1.9851710     0.4427670
  C       -0.9333470    -0.8668740     0.9054230
  C       -2.7330240     1.6830710     0.7442420
  C        0.2088310     0.9821600    -0.3252730
  C        1.5466860     0.3366220    -0.1329200
  C        1.8387470    -0.9259720    -0.6670270
  C        2.5575830     1.0808050     0.4866160
  C        3.1278360    -1.4488340    -0.5554450
  C        3.8398480     0.5472150     0.6113220
  C        4.1275660    -0.7178550     0.0911790
  H       -2.0189590     1.4850890    -1.2525130
  H       -2.8205670    -0.6804150    -1.8065990
  H       -4.1624350     0.1514200    -1.0190010
  H       -3.9082830    -2.2246930    -0.2264870
  H       -3.7050990    -1.0869340     1.0980480
  H       -1.8940300    -2.7681710     1.2100160
  H       -1.4444710    -2.4355870    -0.4683360
  H       -1.2866520    -0.4768830     1.8722860
  H        0.0828400    -1.2295020     1.0584050
  H       -3.6731810     2.1637340     0.4547800
  H       -2.9192060     1.1010660     1.6506870
  H       -2.0023200     2.4636420     0.9693550
  H        1.0609540    -1.4829580    -1.1859370
  H        2.3266460     2.0767070     0.8563740
  H        3.3548360    -2.4238320    -0.9804540
  H        4.6199280     1.1225680     1.1042590
  H        5.1302370    -1.1288490     0.1814620
units angstrom
no_reorient  #important for SAPT in psi4, default
symmetry c1  #important for SAPT in psi4, default
}

set PROPERTIES_ORIGIN ["COM"]
properties('MP2/aug-cc-pvtz', properties = ['dipole'])
--------------------------------------------------------------------------

    Molecular point group: c1
  Charge       = 0
  Multiplicity = 1
  Basis Set: AUG-CC-PVTZ
    Blend: AUG-CC-PVTZ
  Basis Set: (AUG-CC-PVTZ AUX)
    Blend: AUG-CC-PVTZ-JKFIT

    Orbital Energies [Eh]
    ---------------------

    Doubly Occupied:

       1A    -20.515384     2A    -15.580216     3A    -11.349961
       4A    -11.265670     5A    -11.256792     6A    -11.251152
       7A    -11.249893     8A    -11.247913     9A    -11.245882
      10A    -11.245518    11A    -11.243512    12A    -11.229641
      13A    -11.225530    14A    -11.222586    15A    -11.210036
      16A     -1.370074    17A     -1.251094    18A     -1.161328
      19A     -1.084088    20A     -1.052352    21A     -1.030655
      22A     -1.023427    23A     -0.959031    24A     -0.897139
      25A     -0.867247    26A     -0.837787    27A     -0.832785
      28A     -0.788522    29A     -0.728613    30A     -0.718619
      31A     -0.682265    32A     -0.655171    33A     -0.638345
      34A     -0.628056    35A     -0.626167    36A     -0.607553
      37A     -0.598758    38A     -0.593845    39A     -0.588342
      40A     -0.577455    41A     -0.564051    42A     -0.542584
      43A     -0.527239    44A     -0.518753    45A     -0.508138
      46A     -0.503197    47A     -0.493828    48A     -0.493033
      49A     -0.468210    50A     -0.463844    51A     -0.447033
      52A     -0.422335    53A     -0.368110    54A     -0.344925
      55A     -0.342275

  @DF-RHF Final Energy:  -631.72844021477340

   => Energetics <=

    Nuclear Repulsion Energy =            999.1146946009866951
    One-Electron Energy =               -2841.3943467392005005
    Two-Electron Energy =                1210.5512119234404054
    Total Energy =                       -631.7284402147733999
  Basis Set: (AUG-CC-PVTZ AUX)
    Blend: AUG-CC-PVTZ-RI
    Molecular point group: c1

    Geometry (in Angstrom), charge = 0, multiplicity = 1:

       Center              X                  Y                   Z               Mass
    ------------   -----------------  -----------------  -----------------  -----------------
         O            0.071128252376     2.118428467503    -0.733617583592    15.994914619570
         N           -0.973907747624     0.188035467503    -0.067018583592    14.003074004430
         C           -2.255201547624     0.789340767503    -0.373619283592    12.000000000000
         C           -3.237503747624    -0.311428532497    -0.828508583592    12.000000000000
         C           -3.320368747624    -1.460132532497     0.176016416408    12.000000000000
         C           -1.924253747624    -2.010962532497     0.459039416408    12.000000000000
         C           -0.999334747624    -0.892665532497     0.921695416408    12.000000000000
         C           -2.799011747624     1.657279467503     0.760514416408    12.000000000000
         C            0.142843252376     0.956368467503    -0.309000583592    12.000000000000
         C            1.480698252376     0.310830467503    -0.116647583592    12.000000000000
         C            1.772759252376    -0.951763532497    -0.650754583592    12.000000000000
         C            2.491595252376     1.055013467503     0.502888416408    12.000000000000
         C            3.061848252376    -1.474625532497    -0.539172583592    12.000000000000
         C            3.773860252376     0.521423467503     0.627594416408    12.000000000000
         C            4.061578252376    -0.743646532497     0.107451416408    12.000000000000
         H           -2.084946747624     1.459297467503    -1.236240583592     1.007825032230
         H           -2.886554747624    -0.706206532497    -1.790326583592     1.007825032230
         H           -4.228422747624     0.125628467503    -1.002728583592     1.007825032230
         H           -3.974270747624    -2.250484532497    -0.210214583592     1.007825032230
         H           -3.771086747624    -1.112725532497     1.114320416408     1.007825032230
         H           -1.960017747624    -2.793962532497     1.226288416408     1.007825032230
         H           -1.510458747624    -2.461378532497    -0.452063583592     1.007825032230
         H           -1.352639747624    -0.502674532497     1.888558416408     1.007825032230
         H            0.016852252376    -1.255293532497     1.074677416408     1.007825032230
         H           -3.739168747624     2.137942467503     0.471052416408     1.007825032230
         H           -2.985193747624     1.075274467503     1.666959416408     1.007825032230
         H           -2.068307747624     2.437850467503     0.985627416408     1.007825032230
         H            0.994966252376    -1.508749532497    -1.169664583592     1.007825032230
         H            2.260658252376     2.050915467503     0.872646416408     1.007825032230
         H            3.288848252376    -2.449623532497    -0.964181583592     1.007825032230
         H            4.553940252376     1.096776467503     1.120531416408     1.007825032230
         H            5.064249252376    -1.154640532497     0.197734416408     1.007825032230

  Basis Set: AUG-CC-PVTZ
    Blend: AUG-CC-PVTZ
  Basis Set: (AUG-CC-PVTZ AUX)
    Blend: AUG-CC-PVTZ-JKFIT
	 Reference Energy          =    -631.7284402147733999 [Eh]
	 Singles Energy            =      -0.0000000000000000 [Eh]
	 Same-Spin Energy          =      -0.6887484475206136 [Eh]
	 Opposite-Spin Energy      =      -2.2116834868136821 [Eh]
	 Correlation Energy        =      -2.9004319343342955 [Eh]
	 Total Energy              =    -634.6288721491076785 [Eh]

	 ================> DF-SCS-MP2 Energies <==================
	-----------------------------------------------------------
	 SCS Same-Spin Scale       =       0.3333333333333333 [-]
	 SCS Opposite-Spin Scale   =       1.2000000000000000 [-]
	 SCS Same-Spin Energy      =      -0.2295828158402045 [Eh]
	 SCS Opposite-Spin Energy  =      -2.6540201841764186 [Eh]
	 SCS Correlation Energy    =      -2.8836030000166231 [Eh]
	 SCS Total Energy          =    -634.6120432147899919 [Eh]
	-----------------------------------------------------------

  Dipole Moment: [D]
     X:    -0.7523      Y:    -3.1323      Z:     1.4721     Total:     3.5418

*** Psi4 exiting successfully. Buy a developer a beer!
