                               Psi4 1.4a3.dev225

  ==> Input File <==

--------------------------------------------------------------------------
#psi4
#
memory 32 gb

molecule  {
0 1
  O        0.1371160     2.1442200    -0.7498900
  N       -0.9079200     0.2138270    -0.0832910
  C       -2.2101840     0.8219870    -0.4048790
  C       -3.1715160    -0.2856370    -0.8447810
  C       -3.2543810    -1.4343410     0.1597440
  C       -1.8582660    -1.9851710     0.4427670
  C       -0.9333470    -0.8668740     0.9054230
  C       -2.7330240     1.6830710     0.7442420
  C        0.2088310     0.9821600    -0.3252730
  C        1.5288224     0.3452415    -0.1354884
  C        1.8387470    -0.9259720    -0.6670270
  C        2.5575830     1.0808050     0.4866160
  C        3.1278360    -1.4488340    -0.5554450
  C        3.8398480     0.5472150     0.6113220
  C        4.1275660    -0.7178550     0.0911790
  H       -2.0189590     1.4850890    -1.2525130
  H       -2.8205670    -0.6804150    -1.8065990
  H       -4.1624350     0.1514200    -1.0190010
  H       -3.9082830    -2.2246930    -0.2264870
  H       -3.7050990    -1.0869340     1.0980480
  H       -1.8940300    -2.7681710     1.2100160
  H       -1.4444710    -2.4355870    -0.4683360
  H       -1.2866520    -0.4768830     1.8722860
  H        0.0828400    -1.2295020     1.0584050
  H       -3.6731810     2.1637340     0.4547800
  H       -2.9192060     1.1010660     1.6506870
  H       -2.0023200     2.4636420     0.9693550
  H        1.0609540    -1.4829580    -1.1859370
  H        2.3266460     2.0767070     0.8563740
  H        3.3548360    -2.4238320    -0.9804540
  H        4.6199280     1.1225680     1.1042590
  H        5.1302370    -1.1288490     0.1814620
units angstrom
no_reorient  #important for SAPT in psi4, default
symmetry c1  #important for SAPT in psi4, default
}

set PROPERTIES_ORIGIN ["COM"]
properties('MP2/aug-cc-pvtz', properties = ['dipole'])
--------------------------------------------------------------------------

    Molecular point group: c1
  Charge       = 0
  Multiplicity = 1
  Basis Set: AUG-CC-PVTZ
    Blend: AUG-CC-PVTZ
  Basis Set: (AUG-CC-PVTZ AUX)
    Blend: AUG-CC-PVTZ-JKFIT

    Orbital Energies [Eh]
    ---------------------

    Doubly Occupied:

       1A    -20.514057     2A    -15.579007     3A    -11.348080
       4A    -11.264988     5A    -11.257591     6A    -11.251854
       7A    -11.250586     8A    -11.248320     9A    -11.246979
      10A    -11.245369    11A    -11.243368    12A    -11.229478
      13A    -11.226213    14A    -11.222908    15A    -11.210718
      16A     -1.369020    17A     -1.246515    18A     -1.159223
      19A     -1.085085    20A     -1.052705    21A     -1.031153
      22A     -1.022262    23A     -0.959205    24A     -0.898258
      25A     -0.867219    26A     -0.837090    27A     -0.833079
      28A     -0.786452    29A     -0.729454    30A     -0.717996
      31A     -0.683249    32A     -0.655436    33A     -0.638499
      34A     -0.627518    35A     -0.626141    36A     -0.605552
      37A     -0.599090    38A     -0.592772    39A     -0.586778
      40A     -0.577510    41A     -0.564635    42A     -0.542985
      43A     -0.526609    44A     -0.519665    45A     -0.508053
      46A     -0.501398    47A     -0.493617    48A     -0.491302
      49A     -0.469842    50A     -0.462341    51A     -0.451391
      52A     -0.422468    53A     -0.368001    54A     -0.344405
      55A     -0.340775

  @DF-RHF Final Energy:  -631.72812737898482

   => Energetics <=

    Nuclear Repulsion Energy =            998.7365709632148310
    One-Electron Energy =               -2840.6608679192891032
    Two-Electron Energy =                1210.1961695770892220
    Total Energy =                       -631.7281273789849365
  Basis Set: (AUG-CC-PVTZ AUX)
    Blend: AUG-CC-PVTZ-RI
    Molecular point group: c1

    Geometry (in Angstrom), charge = 0, multiplicity = 1:

       Center              X                  Y                   Z               Mass
    ------------   -----------------  -----------------  -----------------  -----------------
         O            0.073422365866     2.117514326446    -0.732580477560    15.994914619570
         N           -0.971613634134     0.187121326446    -0.065981477560    14.003074004430
         C           -2.273877634134     0.795281326446    -0.387569477560    12.000000000000
         C           -3.235209634134    -0.312342673554    -0.827471477560    12.000000000000
         C           -3.318074634134    -1.461046673554     0.177053522440    12.000000000000
         C           -1.921959634134    -2.011876673554     0.460076522440    12.000000000000
         C           -0.997040634134    -0.893579673554     0.922732522440    12.000000000000
         C           -2.796717634134     1.656365326446     0.761551522440    12.000000000000
         C            0.145137365866     0.955454326446    -0.307963477560    12.000000000000
         C            1.465128765866     0.318535826446    -0.118178877560    12.000000000000
         C            1.775053365866    -0.952677673554    -0.649717477560    12.000000000000
         C            2.493889365866     1.054099326446     0.503925522440    12.000000000000
         C            3.064142365866    -1.475539673554    -0.538135477560    12.000000000000
         C            3.776154365866     0.520509326446     0.628631522440    12.000000000000
         C            4.063872365866    -0.744560673554     0.108488522440    12.000000000000
         H           -2.082652634134     1.458383326446    -1.235203477560     1.007825032230
         H           -2.884260634134    -0.707120673554    -1.789289477560     1.007825032230
         H           -4.226128634134     0.124714326446    -1.001691477560     1.007825032230
         H           -3.971976634134    -2.251398673554    -0.209177477560     1.007825032230
         H           -3.768792634134    -1.113639673554     1.115357522440     1.007825032230
         H           -1.957723634134    -2.794876673554     1.227325522440     1.007825032230
         H           -1.508164634134    -2.462292673554    -0.451026477560     1.007825032230
         H           -1.350345634134    -0.503588673554     1.889595522440     1.007825032230
         H            0.019146365866    -1.256207673554     1.075714522440     1.007825032230
         H           -3.736874634134     2.137028326446     0.472089522440     1.007825032230
         H           -2.982899634134     1.074360326446     1.667996522440     1.007825032230
         H           -2.066013634134     2.436936326446     0.986664522440     1.007825032230
         H            0.997260365866    -1.509663673554    -1.168627477560     1.007825032230
         H            2.262952365866     2.050001326446     0.873683522440     1.007825032230
         H            3.291142365866    -2.450537673554    -0.963144477560     1.007825032230
         H            4.556234365866     1.095862326446     1.121568522440     1.007825032230
         H            5.066543365866    -1.155554673554     0.198771522440     1.007825032230

  Basis Set: AUG-CC-PVTZ
    Blend: AUG-CC-PVTZ
  Basis Set: (AUG-CC-PVTZ AUX)
    Blend: AUG-CC-PVTZ-JKFIT
	 Reference Energy          =    -631.7281273789848228 [Eh]
	 Singles Energy            =      -0.0000000000000000 [Eh]
	 Same-Spin Energy          =      -0.6888420330121476 [Eh]
	 Opposite-Spin Energy      =      -2.2119934994867068 [Eh]
	 Correlation Energy        =      -2.9008355324988546 [Eh]
	 Total Energy              =    -634.6289629114836544 [Eh]

	 ================> DF-SCS-MP2 Energies <==================
	-----------------------------------------------------------
	 SCS Same-Spin Scale       =       0.3333333333333333 [-]
	 SCS Opposite-Spin Scale   =       1.2000000000000000 [-]
	 SCS Same-Spin Energy      =      -0.2296140110040492 [Eh]
	 SCS Opposite-Spin Energy  =      -2.6543921993840480 [Eh]
	 SCS Correlation Energy    =      -2.8840062103880970 [Eh]
	 SCS Total Energy          =    -634.6121335893728883 [Eh]
	-----------------------------------------------------------

  Dipole Moment: [D]
     X:    -0.8095      Y:    -3.1406      Z:     1.4664     Total:     3.5594

*** Psi4 exiting successfully. Buy a developer a beer!
