                               Psi4 1.3.2 release

  ==> Input File <==

--------------------------------------------------------------------------
#psi4
#
memory 32 gb

molecule  {
0 1
  O        0.1371160     2.1442200    -0.7498900
  N       -0.9079200     0.2138270    -0.0832910
  C       -2.2101840     0.8219870    -0.4048790
  C       -3.1715160    -0.2856370    -0.8447810
  C       -3.2543810    -1.4343410     0.1597440
  C       -1.8582660    -1.9851710     0.4427670
  C       -0.9333470    -0.8668740     0.9054230
  C       -2.7330240     1.6830710     0.7442420
  C        0.2088310     0.9821600    -0.3252730
  C        1.5466860     0.3366220    -0.1329200
  C        1.9310783    -0.9134422    -0.6371972
  C        2.5575830     1.0808050     0.4866160
  C        3.1278360    -1.4488340    -0.5554450
  C        3.8398480     0.5472150     0.6113220
  C        4.1275660    -0.7178550     0.0911790
  H       -2.0189590     1.4850890    -1.2525130
  H       -2.8205670    -0.6804150    -1.8065990
  H       -4.1624350     0.1514200    -1.0190010
  H       -3.9082830    -2.2246930    -0.2264870
  H       -3.7050990    -1.0869340     1.0980480
  H       -1.8940300    -2.7681710     1.2100160
  H       -1.4444710    -2.4355870    -0.4683360
  H       -1.2866520    -0.4768830     1.8722860
  H        0.0828400    -1.2295020     1.0584050
  H       -3.6731810     2.1637340     0.4547800
  H       -2.9192060     1.1010660     1.6506870
  H       -2.0023200     2.4636420     0.9693550
  H        1.0609540    -1.4829580    -1.1859370
  H        2.3266460     2.0767070     0.8563740
  H        3.3548360    -2.4238320    -0.9804540
  H        4.6199280     1.1225680     1.1042590
  H        5.1302370    -1.1288490     0.1814620
units angstrom
no_reorient  #important for SAPT in psi4, default
symmetry c1  #important for SAPT in psi4, default
}

set PROPERTIES_ORIGIN ["COM"]
properties('MP2/aug-cc-pvtz', properties = ['dipole'])
--------------------------------------------------------------------------

    Molecular point group: c1
  Charge       = 0
  Multiplicity = 1
  Basis Set: AUG-CC-PVTZ
    Blend: AUG-CC-PVTZ
  Basis Set: (AUG-CC-PVTZ AUX)
    Blend: AUG-CC-PVTZ-JKFIT

    Orbital Energies [Eh]
    ---------------------

    Doubly Occupied:

       1A    -20.515692     2A    -15.579716     3A    -11.351640
       4A    -11.265420     5A    -11.257849     6A    -11.249210
       7A    -11.247960     8A    -11.247107     9A    -11.245660
      10A    -11.241442    11A    -11.235061    12A    -11.229229
      13A    -11.226144    14A    -11.222928    15A    -11.210943
      16A     -1.369551    17A     -1.246791    18A     -1.169957
      19A     -1.084861    20A     -1.052379    21A     -1.035614
      22A     -1.025751    23A     -0.959380    24A     -0.898144
      25A     -0.867923    26A     -0.835978    27A     -0.828562
      28A     -0.790073    29A     -0.730122    30A     -0.717661
      31A     -0.682046    32A     -0.653002    33A     -0.642786
      34A     -0.629202    35A     -0.623216    36A     -0.605544
      37A     -0.601698    38A     -0.587412    39A     -0.584808
      40A     -0.578083    41A     -0.564362    42A     -0.543918
      43A     -0.528670    44A     -0.520109    45A     -0.512182
      46A     -0.500378    47A     -0.493963    48A     -0.479636
      49A     -0.470060    50A     -0.462275    51A     -0.451457
      52A     -0.424104    53A     -0.368370    54A     -0.353761
      55A     -0.339288

  @DF-RHF Final Energy:  -631.71705236603009

   => Energetics <=

    Nuclear Repulsion Energy =            999.1304923440134189
    One-Electron Energy =               -2841.4169376696827385
    Two-Electron Energy =                1210.5693929596391172
    Total Energy =                       -631.7170523660302024
  Basis Set: (AUG-CC-PVTZ AUX)
    Blend: AUG-CC-PVTZ-RI
    Molecular point group: c1

    Geometry (in Angstrom), charge = 0, multiplicity = 1:

       Center              X                  Y                   Z               Mass
    ------------   -----------------  -----------------  -----------------  -----------------
         O            0.066912582979     2.117283324793    -0.734494406861    15.994914619570
         N           -0.978123417021     0.186890324793    -0.067895406861    14.003074004430
         C           -2.280387417021     0.795050324793    -0.389483406861    12.000000000000
         C           -3.241719417021    -0.312573675207    -0.829385406861    12.000000000000
         C           -3.324584417021    -1.461277675207     0.175139593139    12.000000000000
         C           -1.928469417021    -2.012107675207     0.458162593139    12.000000000000
         C           -1.003550417021    -0.893810675207     0.920818593139    12.000000000000
         C           -2.803227417021     1.656134324793     0.759637593139    12.000000000000
         C            0.138627582979     0.955223324793    -0.309877406861    12.000000000000
         C            1.476482582979     0.309685324793    -0.117524406861    12.000000000000
         C            1.860874882979    -0.940378875207    -0.621801606861    12.000000000000
         C            2.487379582979     1.053868324793     0.502011593139    12.000000000000
         C            3.057632582979    -1.475770675207    -0.540049406861    12.000000000000
         C            3.769644582979     0.520278324793     0.626717593139    12.000000000000
         C            4.057362582979    -0.744791675207     0.106574593139    12.000000000000
         H           -2.089162417021     1.458152324793    -1.237117406861     1.007825032230
         H           -2.890770417021    -0.707351675207    -1.791203406861     1.007825032230
         H           -4.232638417021     0.124483324793    -1.003605406861     1.007825032230
         H           -3.978486417021    -2.251629675207    -0.211091406861     1.007825032230
         H           -3.775302417021    -1.113870675207     1.113443593139     1.007825032230
         H           -1.964233417021    -2.795107675207     1.225411593139     1.007825032230
         H           -1.514674417021    -2.462523675207    -0.452940406861     1.007825032230
         H           -1.356855417021    -0.503819675207     1.887681593139     1.007825032230
         H            0.012636582979    -1.256438675207     1.073800593139     1.007825032230
         H           -3.743384417021     2.136797324793     0.470175593139     1.007825032230
         H           -2.989409417021     1.074129324793     1.666082593139     1.007825032230
         H           -2.072523417021     2.436705324793     0.984750593139     1.007825032230
         H            0.990750582979    -1.509894675207    -1.170541406861     1.007825032230
         H            2.256442582979     2.049770324793     0.871769593139     1.007825032230
         H            3.284632582979    -2.450768675207    -0.965058406861     1.007825032230
         H            4.549724582979     1.095631324793     1.119654593139     1.007825032230
         H            5.060033582979    -1.155785675207     0.196857593139     1.007825032230

  Basis Set: AUG-CC-PVTZ
    Blend: AUG-CC-PVTZ
  Basis Set: (AUG-CC-PVTZ AUX)
    Blend: AUG-CC-PVTZ-JKFIT
	 Reference Energy          =    -631.7170523660300887 [Eh]
	 Singles Energy            =      -0.0000000000000000 [Eh]
	 Same-Spin Energy          =      -0.6887827846421573 [Eh]
	 Opposite-Spin Energy      =      -2.2118330063640821 [Eh]
	 Correlation Energy        =      -2.9006157910062393 [Eh]
	 Total Energy              =    -634.6176681570362916 [Eh]

	 ================> DF-SCS-MP2 Energies <==================
	-----------------------------------------------------------
	 SCS Same-Spin Scale       =       0.3333333333333333 [-]
	 SCS Opposite-Spin Scale   =       1.2000000000000000 [-]
	 SCS Same-Spin Energy      =      -0.2295942615473857 [Eh]
	 SCS Opposite-Spin Energy  =      -2.6541996076368983 [Eh]
	 SCS Correlation Energy    =      -2.8837938691842839 [Eh]
	 SCS Total Energy          =    -634.6008462352143624 [Eh]
	-----------------------------------------------------------

  Dipole Moment: [D]
     X:    -0.8494      Y:    -3.1033      Z:     1.4821     Total:     3.5425

*** Psi4 exiting successfully. Buy a developer a beer!
