                               Psi4 1.3.2 release

  ==> Input File <==

--------------------------------------------------------------------------
#psi4
#
memory 32 gb

molecule  {
0 1
  O        0.1371160     2.1442200    -0.7498900
  N       -0.9077282     0.2025633    -0.1063960
  C       -2.2101840     0.8219870    -0.4048790
  C       -3.1715160    -0.2856370    -0.8447810
  C       -3.2543810    -1.4343410     0.1597440
  C       -1.8582660    -1.9851710     0.4427670
  C       -0.9333470    -0.8668740     0.9054230
  C       -2.7330240     1.6830710     0.7442420
  C        0.2088310     0.9821600    -0.3252730
  C        1.5466860     0.3366220    -0.1329200
  C        1.8387470    -0.9259720    -0.6670270
  C        2.5575830     1.0808050     0.4866160
  C        3.1278360    -1.4488340    -0.5554450
  C        3.8398480     0.5472150     0.6113220
  C        4.1275660    -0.7178550     0.0911790
  H       -2.0189590     1.4850890    -1.2525130
  H       -2.8205670    -0.6804150    -1.8065990
  H       -4.1624350     0.1514200    -1.0190010
  H       -3.9082830    -2.2246930    -0.2264870
  H       -3.7050990    -1.0869340     1.0980480
  H       -1.8940300    -2.7681710     1.2100160
  H       -1.4444710    -2.4355870    -0.4683360
  H       -1.2866520    -0.4768830     1.8722860
  H        0.0828400    -1.2295020     1.0584050
  H       -3.6731810     2.1637340     0.4547800
  H       -2.9192060     1.1010660     1.6506870
  H       -2.0023200     2.4636420     0.9693550
  H        1.0609540    -1.4829580    -1.1859370
  H        2.3266460     2.0767070     0.8563740
  H        3.3548360    -2.4238320    -0.9804540
  H        4.6199280     1.1225680     1.1042590
  H        5.1302370    -1.1288490     0.1814620
units angstrom
no_reorient  #important for SAPT in psi4, default
symmetry c1  #important for SAPT in psi4, default
}

set PROPERTIES_ORIGIN ["COM"]
properties('MP2/aug-cc-pvtz', properties = ['dipole'])
--------------------------------------------------------------------------

    Molecular point group: c1
  Charge       = 0
  Multiplicity = 1
  Basis Set: AUG-CC-PVTZ
    Blend: AUG-CC-PVTZ
  Basis Set: (AUG-CC-PVTZ AUX)
    Blend: AUG-CC-PVTZ-JKFIT

    Orbital Energies [Eh]
    ---------------------

    Doubly Occupied:

       1A    -20.515556     2A    -15.579366     3A    -11.349328
       4A    -11.265403     5A    -11.257243     6A    -11.250652
       7A    -11.249393     8A    -11.247566     9A    -11.245500
      10A    -11.245119    11A    -11.243151    12A    -11.229151
      13A    -11.225944    14A    -11.222331    15A    -11.211254
      16A     -1.368916    17A     -1.245309    18A     -1.160852
      19A     -1.084284    20A     -1.052103    21A     -1.030601
      22A     -1.023024    23A     -0.959170    24A     -0.896924
      25A     -0.865222    26A     -0.837358    27A     -0.832539
      28A     -0.785873    29A     -0.729202    30A     -0.717918
      31A     -0.681952    32A     -0.654371    33A     -0.638455
      34A     -0.627809    35A     -0.625866    36A     -0.605476
      37A     -0.598919    38A     -0.593445    39A     -0.586538
      40A     -0.576576    41A     -0.564167    42A     -0.543299
      43A     -0.526297    44A     -0.519346    45A     -0.507601
      46A     -0.502701    47A     -0.494031    48A     -0.492680
      49A     -0.469398    50A     -0.461865    51A     -0.450727
      52A     -0.421641    53A     -0.369727    54A     -0.344517
      55A     -0.341893

  @DF-RHF Final Energy:  -631.72868749789166

   => Energetics <=

    Nuclear Repulsion Energy =            998.5611619736514513
    One-Electron Energy =               -2840.3286032526661984
    Two-Electron Energy =                1210.0387537811229777
    Total Energy =                       -631.7286874978917695
  Basis Set: (AUG-CC-PVTZ AUX)
    Blend: AUG-CC-PVTZ-RI
    Molecular point group: c1

    Geometry (in Angstrom), charge = 0, multiplicity = 1:

       Center              X                  Y                   Z               Mass
    ------------   -----------------  -----------------  -----------------  -----------------
         O            0.072353848631     2.118800001239    -0.731139436043    15.994914619570
         N           -0.972490351369     0.177143301239    -0.087645436043    14.003074004430
         C           -2.274946151369     0.796567001239    -0.386128436043    12.000000000000
         C           -3.236278151369    -0.311056998761    -0.826030436043    12.000000000000
         C           -3.319143151369    -1.459760998761     0.178494563957    12.000000000000
         C           -1.923028151369    -2.010590998761     0.461517563957    12.000000000000
         C           -0.998109151369    -0.892293998761     0.924173563957    12.000000000000
         C           -2.797786151369     1.657651001239     0.762992563957    12.000000000000
         C            0.144068848631     0.956740001239    -0.306522436043    12.000000000000
         C            1.481923848631     0.311202001239    -0.114169436043    12.000000000000
         C            1.773984848631    -0.951391998761    -0.648276436043    12.000000000000
         C            2.492820848631     1.055385001239     0.505366563957    12.000000000000
         C            3.063073848631    -1.474253998761    -0.536694436043    12.000000000000
         C            3.775085848631     0.521795001239     0.630072563957    12.000000000000
         C            4.062803848631    -0.743274998761     0.109929563957    12.000000000000
         H           -2.083721151369     1.459669001239    -1.233762436043     1.007825032230
         H           -2.885329151369    -0.705834998761    -1.787848436043     1.007825032230
         H           -4.227197151369     0.126000001239    -1.000250436043     1.007825032230
         H           -3.973045151369    -2.250112998761    -0.207736436043     1.007825032230
         H           -3.769861151369    -1.112353998761     1.116798563957     1.007825032230
         H           -1.958792151369    -2.793590998761     1.228766563957     1.007825032230
         H           -1.509233151369    -2.461006998761    -0.449585436043     1.007825032230
         H           -1.351414151369    -0.502302998761     1.891036563957     1.007825032230
         H            0.018077848631    -1.254921998761     1.077155563957     1.007825032230
         H           -3.737943151369     2.138314001239     0.473530563957     1.007825032230
         H           -2.983968151369     1.075646001239     1.669437563957     1.007825032230
         H           -2.067082151369     2.438222001239     0.988105563957     1.007825032230
         H            0.996191848631    -1.508377998761    -1.167186436043     1.007825032230
         H            2.261883848631     2.051287001239     0.875124563957     1.007825032230
         H            3.290073848631    -2.449251998761    -0.961703436043     1.007825032230
         H            4.555165848631     1.097148001239     1.123009563957     1.007825032230
         H            5.065474848631    -1.154268998761     0.200212563957     1.007825032230

  Basis Set: AUG-CC-PVTZ
    Blend: AUG-CC-PVTZ
  Basis Set: (AUG-CC-PVTZ AUX)
    Blend: AUG-CC-PVTZ-JKFIT
	 Reference Energy          =    -631.7286874978916558 [Eh]
	 Singles Energy            =      -0.0000000000000000 [Eh]
	 Same-Spin Energy          =      -0.6886266324033964 [Eh]
	 Opposite-Spin Energy      =      -2.2117352672589359 [Eh]
	 Correlation Energy        =      -2.9003618996623324 [Eh]
	 Total Energy              =    -634.6290493975540130 [Eh]

	 ================> DF-SCS-MP2 Energies <==================
	-----------------------------------------------------------
	 SCS Same-Spin Scale       =       0.3333333333333333 [-]
	 SCS Opposite-Spin Scale   =       1.2000000000000000 [-]
	 SCS Same-Spin Energy      =      -0.2295422108011321 [Eh]
	 SCS Opposite-Spin Energy  =      -2.6540823207107231 [Eh]
	 SCS Correlation Energy    =      -2.8836245315118552 [Eh]
	 SCS Total Energy          =    -634.6123120294034834 [Eh]
	-----------------------------------------------------------

  Dipole Moment: [D]
     X:    -0.8040      Y:    -3.0835      Z:     1.4870     Total:     3.5164

*** Psi4 exiting successfully. Buy a developer a beer!
