                               Psi4 1.3.2 release

  ==> Input File <==

--------------------------------------------------------------------------
#psi4
#
memory 32 gb

molecule  {
0 1
  O        0.1371160     2.1442200    -0.7498900
  N       -0.9079200     0.2138270    -0.0832910
  C       -2.2101840     0.8219870    -0.4048790
  C       -3.1715160    -0.2856370    -0.8447810
  C       -3.2543810    -1.4343410     0.1597440
  C       -1.8582660    -1.9851710     0.4427670
  C       -0.9333470    -0.8668740     0.9054230
  C       -2.7330240     1.6830710     0.7442420
  C        0.2030442     1.0759286    -0.3595361
  C        1.5466860     0.3366220    -0.1329200
  C        1.8387470    -0.9259720    -0.6670270
  C        2.5575830     1.0808050     0.4866160
  C        3.1278360    -1.4488340    -0.5554450
  C        3.8398480     0.5472150     0.6113220
  C        4.1275660    -0.7178550     0.0911790
  H       -2.0189590     1.4850890    -1.2525130
  H       -2.8205670    -0.6804150    -1.8065990
  H       -4.1624350     0.1514200    -1.0190010
  H       -3.9082830    -2.2246930    -0.2264870
  H       -3.7050990    -1.0869340     1.0980480
  H       -1.8940300    -2.7681710     1.2100160
  H       -1.4444710    -2.4355870    -0.4683360
  H       -1.2866520    -0.4768830     1.8722860
  H        0.0828400    -1.2295020     1.0584050
  H       -3.6731810     2.1637340     0.4547800
  H       -2.9192060     1.1010660     1.6506870
  H       -2.0023200     2.4636420     0.9693550
  H        1.0609540    -1.4829580    -1.1859370
  H        2.3266460     2.0767070     0.8563740
  H        3.3548360    -2.4238320    -0.9804540
  H        4.6199280     1.1225680     1.1042590
  H        5.1302370    -1.1288490     0.1814620
units angstrom
no_reorient  #important for SAPT in psi4, default
symmetry c1  #important for SAPT in psi4, default
}

set PROPERTIES_ORIGIN ["COM"]
properties('MP2/aug-cc-pvtz', properties = ['dipole'])
--------------------------------------------------------------------------

    Molecular point group: c1
  Charge       = 0
  Multiplicity = 1
  Basis Set: AUG-CC-PVTZ
    Blend: AUG-CC-PVTZ
  Basis Set: (AUG-CC-PVTZ AUX)
    Blend: AUG-CC-PVTZ-JKFIT

    Orbital Energies [Eh]
    ---------------------

    Doubly Occupied:

       1A    -20.535789     2A    -15.565473     3A    -11.348388
       4A    -11.259927     5A    -11.252769     6A    -11.247970
       7A    -11.246604     8A    -11.244894     9A    -11.243277
      10A    -11.242518    11A    -11.241170    12A    -11.225676
      13A    -11.223072    14A    -11.219413    15A    -11.209137
      16A     -1.441679    17A     -1.237574    18A     -1.157375
      19A     -1.076490    20A     -1.047221    21A     -1.025407
      22A     -1.020478    23A     -0.953162    24A     -0.888937
      25A     -0.857760    26A     -0.834457    27A     -0.828455
      28A     -0.779392    29A     -0.725146    30A     -0.716406
      31A     -0.689338    32A     -0.659781    33A     -0.637976
      34A     -0.635856    35A     -0.624717    36A     -0.605768
      37A     -0.604374    38A     -0.592304    39A     -0.590143
      40A     -0.576857    41A     -0.561826    42A     -0.554682
      43A     -0.527276    44A     -0.521091    45A     -0.513718
      46A     -0.502183    47A     -0.498507    48A     -0.490467
      49A     -0.469534    50A     -0.461677    51A     -0.449164
      52A     -0.415753    53A     -0.364450    54A     -0.342559
      55A     -0.340326

  @DF-RHF Final Energy:  -631.71941726611510

   => Energetics <=

    Nuclear Repulsion Energy =            998.4354733966648610
    One-Electron Energy =               -2840.0570931854258561
    Two-Electron Energy =                1209.9022025226458936
    Total Energy =                       -631.7194172661152152
  Basis Set: (AUG-CC-PVTZ AUX)
    Blend: AUG-CC-PVTZ-RI
    Molecular point group: c1

    Geometry (in Angstrom), charge = 0, multiplicity = 1:

       Center              X                  Y                   Z               Mass
    ------------   -----------------  -----------------  -----------------  -----------------
         O            0.072708926805     2.112484128550    -0.730708107644    15.994914619570
         N           -0.972327073195     0.182091128550    -0.064109107644    14.003074004430
         C           -2.274591073195     0.790251128550    -0.385697107644    12.000000000000
         C           -3.235923073195    -0.317372871450    -0.825599107644    12.000000000000
         C           -3.318788073195    -1.466076871450     0.178925892356    12.000000000000
         C           -1.922673073195    -2.016906871450     0.461948892356    12.000000000000
         C           -0.997754073195    -0.898609871450     0.924604892356    12.000000000000
         C           -2.797431073195     1.651335128550     0.763423892356    12.000000000000
         C            0.138637126805     1.044192728550    -0.340354207644    12.000000000000
         C            1.482278926805     0.304886128550    -0.113738107644    12.000000000000
         C            1.774339926805    -0.957707871450    -0.647845107644    12.000000000000
         C            2.493175926805     1.049069128550     0.505797892356    12.000000000000
         C            3.063428926805    -1.480569871450    -0.536263107644    12.000000000000
         C            3.775440926805     0.515479128550     0.630503892356    12.000000000000
         C            4.063158926805    -0.749590871450     0.110360892356    12.000000000000
         H           -2.083366073195     1.453353128550    -1.233331107644     1.007825032230
         H           -2.884974073195    -0.712150871450    -1.787417107644     1.007825032230
         H           -4.226842073195     0.119684128550    -0.999819107644     1.007825032230
         H           -3.972690073195    -2.256428871450    -0.207305107644     1.007825032230
         H           -3.769506073195    -1.118669871450     1.117229892356     1.007825032230
         H           -1.958437073195    -2.799906871450     1.229197892356     1.007825032230
         H           -1.508878073195    -2.467322871450    -0.449154107644     1.007825032230
         H           -1.351059073195    -0.508618871450     1.891467892356     1.007825032230
         H            0.018432926805    -1.261237871450     1.077586892356     1.007825032230
         H           -3.737588073195     2.131998128550     0.473961892356     1.007825032230
         H           -2.983613073195     1.069330128550     1.669868892356     1.007825032230
         H           -2.066727073195     2.431906128550     0.988536892356     1.007825032230
         H            0.996546926805    -1.514693871450    -1.166755107644     1.007825032230
         H            2.262238926805     2.044971128550     0.875555892356     1.007825032230
         H            3.290428926805    -2.455567871450    -0.961272107644     1.007825032230
         H            4.555520926805     1.090832128550     1.123440892356     1.007825032230
         H            5.065829926805    -1.160584871450     0.200643892356     1.007825032230

  Basis Set: AUG-CC-PVTZ
    Blend: AUG-CC-PVTZ
  Basis Set: (AUG-CC-PVTZ AUX)
    Blend: AUG-CC-PVTZ-JKFIT
	 Reference Energy          =    -631.7194172661151015 [Eh]
	 Singles Energy            =      -0.0000000000000000 [Eh]
	 Same-Spin Energy          =      -0.6864837076692979 [Eh]
	 Opposite-Spin Energy      =      -2.2074629845461948 [Eh]
	 Correlation Energy        =      -2.8939466922154926 [Eh]
	 Total Energy              =    -634.6133639583306376 [Eh]

	 ================> DF-SCS-MP2 Energies <==================
	-----------------------------------------------------------
	 SCS Same-Spin Scale       =       0.3333333333333333 [-]
	 SCS Opposite-Spin Scale   =       1.2000000000000000 [-]
	 SCS Same-Spin Energy      =      -0.2288279025564326 [Eh]
	 SCS Opposite-Spin Energy  =      -2.6489555814554335 [Eh]
	 SCS Correlation Energy    =      -2.8777834840118661 [Eh]
	 SCS Total Energy          =    -634.5972007501269445 [Eh]
	-----------------------------------------------------------

  Dipole Moment: [D]
     X:    -0.6086      Y:    -2.4617      Z:     1.1923     Total:     2.8021

*** Psi4 exiting successfully. Buy a developer a beer!
