                               Psi4 1.3.2 release

  ==> Input File <==

--------------------------------------------------------------------------
#psi4
#
memory 32 gb

molecule  {
0 1
  O        0.1371160     2.1442200    -0.7498900
  N       -0.9079200     0.2138270    -0.0832910
  C       -2.2101840     0.8219870    -0.4048790
  C       -3.1715160    -0.2856370    -0.8447810
  C       -3.2543810    -1.4343410     0.1597440
  C       -1.8582660    -1.9851710     0.4427670
  C       -0.9333470    -0.8668740     0.9054230
  C       -2.7330240     1.6830710     0.7442420
  C        0.2088310     0.9821600    -0.3252730
  C        1.5466860     0.3366220    -0.1329200
  C        1.6977246    -0.9332222    -0.7068507
  C        2.5575830     1.0808050     0.4866160
  C        3.1278360    -1.4488340    -0.5554450
  C        3.8398480     0.5472150     0.6113220
  C        4.1275660    -0.7178550     0.0911790
  H       -2.0189590     1.4850890    -1.2525130
  H       -2.8205670    -0.6804150    -1.8065990
  H       -4.1624350     0.1514200    -1.0190010
  H       -3.9082830    -2.2246930    -0.2264870
  H       -3.7050990    -1.0869340     1.0980480
  H       -1.8940300    -2.7681710     1.2100160
  H       -1.4444710    -2.4355870    -0.4683360
  H       -1.2866520    -0.4768830     1.8722860
  H        0.0828400    -1.2295020     1.0584050
  H       -3.6731810     2.1637340     0.4547800
  H       -2.9192060     1.1010660     1.6506870
  H       -2.0023200     2.4636420     0.9693550
  H        1.0609540    -1.4829580    -1.1859370
  H        2.3266460     2.0767070     0.8563740
  H        3.3548360    -2.4238320    -0.9804540
  H        4.6199280     1.1225680     1.1042590
  H        5.1302370    -1.1288490     0.1814620
units angstrom
no_reorient  #important for SAPT in psi4, default
symmetry c1  #important for SAPT in psi4, default
}

set PROPERTIES_ORIGIN ["COM"]
properties('MP2/aug-cc-pvtz', properties = ['dipole'])
--------------------------------------------------------------------------

    Molecular point group: c1
  Charge       = 0
  Multiplicity = 1
  Basis Set: AUG-CC-PVTZ
    Blend: AUG-CC-PVTZ
  Basis Set: (AUG-CC-PVTZ AUX)
    Blend: AUG-CC-PVTZ-JKFIT

    Orbital Energies [Eh]
    ---------------------

    Doubly Occupied:

       1A    -20.512332     2A    -15.578115     3A    -11.345379
       4A    -11.264278     5A    -11.259314     6A    -11.257261
       7A    -11.255168     8A    -11.253950     9A    -11.247687
      10A    -11.246596    11A    -11.245323    12A    -11.229625
      13A    -11.226202    14A    -11.222801    15A    -11.210406
      16A     -1.367073    17A     -1.245805    18A     -1.152050
      19A     -1.084764    20A     -1.053340    21A     -1.033744
      22A     -1.012838    23A     -0.958756    24A     -0.896256
      25A     -0.863758    26A     -0.850001    27A     -0.831502
      28A     -0.783396    29A     -0.729430    30A     -0.719888
      31A     -0.688668    32A     -0.659959    33A     -0.638571
      34A     -0.635287    35A     -0.624828    36A     -0.606901
      37A     -0.599189    38A     -0.588301    39A     -0.585699
      40A     -0.576394    41A     -0.564463    42A     -0.542134
      43A     -0.526853    44A     -0.520119    45A     -0.507102
      46A     -0.499105    47A     -0.494467    48A     -0.490340
      49A     -0.469395    50A     -0.462249    51A     -0.451192
      52A     -0.415161    53A     -0.367224    54A     -0.347661
      55A     -0.332129

  @DF-RHF Final Energy:  -631.69919233907331

   => Energetics <=

    Nuclear Repulsion Energy =            998.3446003033794796
    One-Electron Energy =               -2839.8267309241427938
    Two-Electron Energy =                1209.7829382816898942
    Total Energy =                       -631.6991923390733064
  Basis Set: (AUG-CC-PVTZ AUX)
    Blend: AUG-CC-PVTZ-RI
    Molecular point group: c1

    Geometry (in Angstrom), charge = 0, multiplicity = 1:

       Center              X                  Y                   Z               Mass
    ------------   -----------------  -----------------  -----------------  -----------------
         O            0.080697993402     2.118451831734    -0.730379614232    15.994914619570
         N           -0.964338006598     0.188058831734    -0.063780614232    14.003074004430
         C           -2.266602006598     0.796218831734    -0.385368614232    12.000000000000
         C           -3.227934006598    -0.311405168266    -0.825270614232    12.000000000000
         C           -3.310799006598    -1.460109168266     0.179254385768    12.000000000000
         C           -1.914684006598    -2.010939168266     0.462277385768    12.000000000000
         C           -0.989765006598    -0.892642168266     0.924933385768    12.000000000000
         C           -2.789442006598     1.657302831734     0.763752385768    12.000000000000
         C            0.152412993402     0.956391831734    -0.305762614232    12.000000000000
         C            1.490267993402     0.310853831734    -0.113409614232    12.000000000000
         C            1.641306593402    -0.958990368266    -0.687340314232    12.000000000000
         C            2.501164993402     1.055036831734     0.506126385768    12.000000000000
         C            3.071417993402    -1.474602168266    -0.535934614232    12.000000000000
         C            3.783429993402     0.521446831734     0.630832385768    12.000000000000
         C            4.071147993402    -0.743623168266     0.110689385768    12.000000000000
         H           -2.075377006598     1.459320831734    -1.233002614232     1.007825032230
         H           -2.876985006598    -0.706183168266    -1.787088614232     1.007825032230
         H           -4.218853006598     0.125651831734    -0.999490614232     1.007825032230
         H           -3.964701006598    -2.250461168266    -0.206976614232     1.007825032230
         H           -3.761517006598    -1.112702168266     1.117558385768     1.007825032230
         H           -1.950448006598    -2.793939168266     1.229526385768     1.007825032230
         H           -1.500889006598    -2.461355168266    -0.448825614232     1.007825032230
         H           -1.343070006598    -0.502651168266     1.891796385768     1.007825032230
         H            0.026421993402    -1.255270168266     1.077915385768     1.007825032230
         H           -3.729599006598     2.137965831734     0.474290385768     1.007825032230
         H           -2.975624006598     1.075297831734     1.670197385768     1.007825032230
         H           -2.058738006598     2.437873831734     0.988865385768     1.007825032230
         H            1.004535993402    -1.508726168266    -1.166426614232     1.007825032230
         H            2.270227993402     2.050938831734     0.875884385768     1.007825032230
         H            3.298417993402    -2.449600168266    -0.960943614232     1.007825032230
         H            4.563509993402     1.096799831734     1.123769385768     1.007825032230
         H            5.073818993402    -1.154617168266     0.200972385768     1.007825032230

  Basis Set: AUG-CC-PVTZ
    Blend: AUG-CC-PVTZ
  Basis Set: (AUG-CC-PVTZ AUX)
    Blend: AUG-CC-PVTZ-JKFIT
	 Reference Energy          =    -631.6991923390733064 [Eh]
	 Singles Energy            =      -0.0000000000000000 [Eh]
	 Same-Spin Energy          =      -0.6890116552102024 [Eh]
	 Opposite-Spin Energy      =      -2.2139316327772045 [Eh]
	 Correlation Energy        =      -2.9029432879874069 [Eh]
	 Total Energy              =    -634.6021356270607612 [Eh]

	 ================> DF-SCS-MP2 Energies <==================
	-----------------------------------------------------------
	 SCS Same-Spin Scale       =       0.3333333333333333 [-]
	 SCS Opposite-Spin Scale   =       1.2000000000000000 [-]
	 SCS Same-Spin Energy      =      -0.2296705517367341 [Eh]
	 SCS Opposite-Spin Energy  =      -2.6567179593326453 [Eh]
	 SCS Correlation Energy    =      -2.8863885110693794 [Eh]
	 SCS Total Energy          =    -634.5855808501427191 [Eh]
	-----------------------------------------------------------

  Dipole Moment: [D]
     X:    -0.7616      Y:    -3.1235      Z:     1.4723     Total:     3.5361

*** Psi4 exiting successfully. Buy a developer a beer!
