                               Psi4 1.4a3.dev225

  ==> Input File <==

--------------------------------------------------------------------------
#psi4
#
memory 32 gb

molecule  {
0 1
  O        0.1371160     2.1442200    -0.7498900
  N       -0.9079200     0.2138270    -0.0832910
  C       -2.2101840     0.8219870    -0.4048790
  C       -3.1715160    -0.2856370    -0.8447810
  C       -3.2543810    -1.4343410     0.1597440
  C       -1.8582660    -1.9851710     0.4427670
  C       -0.9333470    -0.8668740     0.9054230
  C       -2.7330240     1.6830710     0.7442420
  C        0.2088310     0.9821600    -0.3252730
  C        1.5645496     0.3280025    -0.1303516
  C        1.8387470    -0.9259720    -0.6670270
  C        2.5575830     1.0808050     0.4866160
  C        3.1278360    -1.4488340    -0.5554450
  C        3.8398480     0.5472150     0.6113220
  C        4.1275660    -0.7178550     0.0911790
  H       -2.0189590     1.4850890    -1.2525130
  H       -2.8205670    -0.6804150    -1.8065990
  H       -4.1624350     0.1514200    -1.0190010
  H       -3.9082830    -2.2246930    -0.2264870
  H       -3.7050990    -1.0869340     1.0980480
  H       -1.8940300    -2.7681710     1.2100160
  H       -1.4444710    -2.4355870    -0.4683360
  H       -1.2866520    -0.4768830     1.8722860
  H        0.0828400    -1.2295020     1.0584050
  H       -3.6731810     2.1637340     0.4547800
  H       -2.9192060     1.1010660     1.6506870
  H       -2.0023200     2.4636420     0.9693550
  H        1.0609540    -1.4829580    -1.1859370
  H        2.3266460     2.0767070     0.8563740
  H        3.3548360    -2.4238320    -0.9804540
  H        4.6199280     1.1225680     1.1042590
  H        5.1302370    -1.1288490     0.1814620
units angstrom
no_reorient  #important for SAPT in psi4, default
symmetry c1  #important for SAPT in psi4, default
}

set PROPERTIES_ORIGIN ["COM"]
properties('MP2/aug-cc-pvtz', properties = ['dipole'])
--------------------------------------------------------------------------

    Molecular point group: c1
  Charge       = 0
  Multiplicity = 1
  Basis Set: AUG-CC-PVTZ
    Blend: AUG-CC-PVTZ
  Basis Set: (AUG-CC-PVTZ AUX)
    Blend: AUG-CC-PVTZ-JKFIT

    Orbital Energies [Eh]
    ---------------------

    Doubly Occupied:

       1A    -20.514625     2A    -15.579214     3A    -11.349818
       4A    -11.265148     5A    -11.257710     6A    -11.249772
       7A    -11.247940     8A    -11.246744     9A    -11.244888
      10A    -11.244051    11A    -11.242741    12A    -11.229584
      13A    -11.226313    14A    -11.223005    15A    -11.210810
      16A     -1.368045    17A     -1.246299    18A     -1.162504
      19A     -1.084486    20A     -1.052205    21A     -1.030477
      22A     -1.023874    23A     -0.959154    24A     -0.896442
      25A     -0.863884    26A     -0.837925    27A     -0.833266
      28A     -0.787117    29A     -0.728615    30A     -0.717800
      31A     -0.680514    32A     -0.654148    33A     -0.638711
      34A     -0.628238    35A     -0.626124    36A     -0.606833
      37A     -0.598731    38A     -0.594021    39A     -0.586412
      40A     -0.577456    41A     -0.564539    42A     -0.542940
      43A     -0.525713    44A     -0.519326    45A     -0.507329
      46A     -0.504356    47A     -0.494040    48A     -0.493548
      49A     -0.469899    50A     -0.462424    51A     -0.451469
      52A     -0.419341    53A     -0.368037    54A     -0.344714
      55A     -0.342766

  @DF-RHF Final Energy:  -631.72921846023451

   => Energetics <=

    Nuclear Repulsion Energy =            998.5976513777119408
    One-Electron Energy =               -2840.4015701223133874
    Two-Electron Energy =                1210.0747002843670543
    Total Energy =                       -631.7292184602345060
  Basis Set: (AUG-CC-PVTZ AUX)
    Blend: AUG-CC-PVTZ-RI
    Molecular point group: c1

    Geometry (in Angstrom), charge = 0, multiplicity = 1:

       Center              X                  Y                   Z               Mass
    ------------   -----------------  -----------------  -----------------  -----------------
         O            0.071311775311     2.118532723370    -0.732883934914    15.994914619570
         N           -0.973724224689     0.188139723370    -0.066284934914    14.003074004430
         C           -2.275988224689     0.796299723370    -0.387872934914    12.000000000000
         C           -3.237320224689    -0.311324276630    -0.827774934914    12.000000000000
         C           -3.320185224689    -1.460028276630     0.176750065086    12.000000000000
         C           -1.924070224689    -2.010858276630     0.459773065086    12.000000000000
         C           -0.999151224689    -0.892561276630     0.922429065086    12.000000000000
         C           -2.798828224689     1.657383723370     0.761248065086    12.000000000000
         C            0.143026775311     0.956472723370    -0.308266934914    12.000000000000
         C            1.498745375311     0.302315223370    -0.113345534914    12.000000000000
         C            1.772942775311    -0.951659276630    -0.650020934914    12.000000000000
         C            2.491778775311     1.055117723370     0.503622065086    12.000000000000
         C            3.062031775311    -1.474521276630    -0.538438934914    12.000000000000
         C            3.774043775311     0.521527723370     0.628328065086    12.000000000000
         C            4.061761775311    -0.743542276630     0.108185065086    12.000000000000
         H           -2.084763224689     1.459401723370    -1.235506934914     1.007825032230
         H           -2.886371224689    -0.706102276630    -1.789592934914     1.007825032230
         H           -4.228239224689     0.125732723370    -1.001994934914     1.007825032230
         H           -3.974087224689    -2.250380276630    -0.209480934914     1.007825032230
         H           -3.770903224689    -1.112621276630     1.115054065086     1.007825032230
         H           -1.959834224689    -2.793858276630     1.227022065086     1.007825032230
         H           -1.510275224689    -2.461274276630    -0.451329934914     1.007825032230
         H           -1.352456224689    -0.502570276630     1.889292065086     1.007825032230
         H            0.017035775311    -1.255189276630     1.075411065086     1.007825032230
         H           -3.738985224689     2.138046723370     0.471786065086     1.007825032230
         H           -2.985010224689     1.075378723370     1.667693065086     1.007825032230
         H           -2.068124224689     2.437954723370     0.986361065086     1.007825032230
         H            0.995149775311    -1.508645276630    -1.168930934914     1.007825032230
         H            2.260841775311     2.051019723370     0.873380065086     1.007825032230
         H            3.289031775311    -2.449519276630    -0.963447934914     1.007825032230
         H            4.554123775311     1.096880723370     1.121265065086     1.007825032230
         H            5.064432775311    -1.154536276630     0.198468065086     1.007825032230

  Basis Set: AUG-CC-PVTZ
    Blend: AUG-CC-PVTZ
  Basis Set: (AUG-CC-PVTZ AUX)
    Blend: AUG-CC-PVTZ-JKFIT
	 Reference Energy          =    -631.7292184602345060 [Eh]
	 Singles Energy            =      -0.0000000000000000 [Eh]
	 Same-Spin Energy          =      -0.6884646868758730 [Eh]
	 Opposite-Spin Energy      =      -2.2112879537326657 [Eh]
	 Correlation Energy        =      -2.8997526406085390 [Eh]
	 Total Energy              =    -634.6289711008430459 [Eh]

	 ================> DF-SCS-MP2 Energies <==================
	-----------------------------------------------------------
	 SCS Same-Spin Scale       =       0.3333333333333333 [-]
	 SCS Opposite-Spin Scale   =       1.2000000000000000 [-]
	 SCS Same-Spin Energy      =      -0.2294882289586243 [Eh]
	 SCS Opposite-Spin Energy  =      -2.6535455444791989 [Eh]
	 SCS Correlation Energy    =      -2.8830337734378233 [Eh]
	 SCS Total Energy          =    -634.6122522336722795 [Eh]
	-----------------------------------------------------------

  Dipole Moment: [D]
     X:    -0.8553      Y:    -3.1174      Z:     1.4608     Total:     3.5474

*** Psi4 exiting successfully. Buy a developer a beer!
