                               Psi4 1.3.2 release

  ==> Input File <==

--------------------------------------------------------------------------
#psi4
#
memory 32 gb

molecule  {
0 1
  O        0.1371160     2.1442200    -0.7498900
  N       -0.9079200     0.2138270    -0.0832910
  C       -2.2101840     0.8219870    -0.4048790
  C       -3.1715160    -0.2856370    -0.8447810
  C       -3.2543810    -1.4343410     0.1597440
  C       -1.8582660    -1.9851710     0.4427670
  C       -0.9333470    -0.8668740     0.9054230
  C       -2.7330240     1.6830710     0.7442420
  C        0.2088310     0.9821600    -0.3252730
  C        1.5466860     0.3366220    -0.1329200
  C        1.9765695    -0.9048885    -0.6213515
  C        2.5575830     1.0808050     0.4866160
  C        3.1278360    -1.4488340    -0.5554450
  C        3.8398480     0.5472150     0.6113220
  C        4.1275660    -0.7178550     0.0911790
  H       -2.0189590     1.4850890    -1.2525130
  H       -2.8205670    -0.6804150    -1.8065990
  H       -4.1624350     0.1514200    -1.0190010
  H       -3.9082830    -2.2246930    -0.2264870
  H       -3.7050990    -1.0869340     1.0980480
  H       -1.8940300    -2.7681710     1.2100160
  H       -1.4444710    -2.4355870    -0.4683360
  H       -1.2866520    -0.4768830     1.8722860
  H        0.0828400    -1.2295020     1.0584050
  H       -3.6731810     2.1637340     0.4547800
  H       -2.9192060     1.1010660     1.6506870
  H       -2.0023200     2.4636420     0.9693550
  H        1.0609540    -1.4829580    -1.1859370
  H        2.3266460     2.0767070     0.8563740
  H        3.3548360    -2.4238320    -0.9804540
  H        4.6199280     1.1225680     1.1042590
  H        5.1302370    -1.1288490     0.1814620
units angstrom
no_reorient  #important for SAPT in psi4, default
symmetry c1  #important for SAPT in psi4, default
}

set PROPERTIES_ORIGIN ["COM"]
properties('MP2/aug-cc-pvtz', properties = ['dipole'])
--------------------------------------------------------------------------

    Molecular point group: c1
  Charge       = 0
  Multiplicity = 1
  Basis Set: AUG-CC-PVTZ
    Blend: AUG-CC-PVTZ
  Basis Set: (AUG-CC-PVTZ AUX)
    Blend: AUG-CC-PVTZ-JKFIT

    Orbital Energies [Eh]
    ---------------------

    Doubly Occupied:

       1A    -20.516345     2A    -15.579950     3A    -11.352977
       4A    -11.265495     5A    -11.257892     6A    -11.249161
       7A    -11.248554     8A    -11.246325     9A    -11.246001
      10A    -11.240810    11A    -11.230115    12A    -11.228959
      13A    -11.226000    14A    -11.222839    15A    -11.210987
      16A     -1.370060    17A     -1.246931    18A     -1.175747
      19A     -1.084911    20A     -1.052706    21A     -1.040544
      22A     -1.024998    23A     -0.959421    24A     -0.898549
      25A     -0.869093    26A     -0.836638    27A     -0.825338
      28A     -0.791884    29A     -0.730939    30A     -0.717744
      31A     -0.683298    32A     -0.652433    33A     -0.645583
      34A     -0.629914    35A     -0.622785    36A     -0.605419
      37A     -0.602458    38A     -0.587235    39A     -0.580567
      40A     -0.578315    41A     -0.564101    42A     -0.544615
      43A     -0.529921    44A     -0.520361    45A     -0.515370
      46A     -0.500594    47A     -0.493933    48A     -0.470082
      49A     -0.468103    50A     -0.461829    51A     -0.451362
      52A     -0.425406    53A     -0.368450    54A     -0.358808
      55A     -0.338298

  @DF-RHF Final Energy:  -631.70110494150981

   => Energetics <=

    Nuclear Repulsion Energy =            999.4354888613696630
    One-Electron Energy =               -2841.9788829436797641
    Two-Electron Energy =                1210.8422891408001760
    Total Energy =                       -631.7011049415098114
  Basis Set: (AUG-CC-PVTZ AUX)
    Blend: AUG-CC-PVTZ-RI
    Molecular point group: c1

    Geometry (in Angstrom), charge = 0, multiplicity = 1:

       Center              X                  Y                   Z               Mass
    ------------   -----------------  -----------------  -----------------  -----------------
         O            0.064225182425     2.116778013478    -0.735430494346    15.994914619570
         N           -0.980810817575     0.186385013478    -0.068831494346    14.003074004430
         C           -2.283074817575     0.794545013478    -0.390419494346    12.000000000000
         C           -3.244406817575    -0.313078986522    -0.830321494346    12.000000000000
         C           -3.327271817575    -1.461782986522     0.174203505654    12.000000000000
         C           -1.931156817575    -2.012612986522     0.457226505654    12.000000000000
         C           -1.006237817575    -0.894315986522     0.919882505654    12.000000000000
         C           -2.805914817575     1.655629013478     0.758701505654    12.000000000000
         C            0.135940182425     0.954718013478    -0.310813494346    12.000000000000
         C            1.473795182425     0.309180013478    -0.118460494346    12.000000000000
         C            1.903678682425    -0.932330486522    -0.606891994346    12.000000000000
         C            2.484692182425     1.053363013478     0.501075505654    12.000000000000
         C            3.054945182425    -1.476275986522    -0.540985494346    12.000000000000
         C            3.766957182425     0.519773013478     0.625781505654    12.000000000000
         C            4.054675182425    -0.745296986522     0.105638505654    12.000000000000
         H           -2.091849817575     1.457647013478    -1.238053494346     1.007825032230
         H           -2.893457817575    -0.707856986522    -1.792139494346     1.007825032230
         H           -4.235325817575     0.123978013478    -1.004541494346     1.007825032230
         H           -3.981173817575    -2.252134986522    -0.212027494346     1.007825032230
         H           -3.777989817575    -1.114375986522     1.112507505654     1.007825032230
         H           -1.966920817575    -2.795612986522     1.224475505654     1.007825032230
         H           -1.517361817575    -2.463028986522    -0.453876494346     1.007825032230
         H           -1.359542817575    -0.504324986522     1.886745505654     1.007825032230
         H            0.009949182425    -1.256943986522     1.072864505654     1.007825032230
         H           -3.746071817575     2.136292013478     0.469239505654     1.007825032230
         H           -2.992096817575     1.073624013478     1.665146505654     1.007825032230
         H           -2.075210817575     2.436200013478     0.983814505654     1.007825032230
         H            0.988063182425    -1.510399986522    -1.171477494346     1.007825032230
         H            2.253755182425     2.049265013478     0.870833505654     1.007825032230
         H            3.281945182425    -2.451273986522    -0.965994494346     1.007825032230
         H            4.547037182425     1.095126013478     1.118718505654     1.007825032230
         H            5.057346182425    -1.156290986522     0.195921505654     1.007825032230

  Basis Set: AUG-CC-PVTZ
    Blend: AUG-CC-PVTZ
  Basis Set: (AUG-CC-PVTZ AUX)
    Blend: AUG-CC-PVTZ-JKFIT
	 Reference Energy          =    -631.7011049415098114 [Eh]
	 Singles Energy            =      -0.0000000000000000 [Eh]
	 Same-Spin Energy          =      -0.6889881929764015 [Eh]
	 Opposite-Spin Energy      =      -2.2124280316805196 [Eh]
	 Correlation Energy        =      -2.9014162246569208 [Eh]
	 Total Energy              =    -634.6025211661667527 [Eh]

	 ================> DF-SCS-MP2 Energies <==================
	-----------------------------------------------------------
	 SCS Same-Spin Scale       =       0.3333333333333333 [-]
	 SCS Opposite-Spin Scale   =       1.2000000000000000 [-]
	 SCS Same-Spin Energy      =      -0.2296627309921338 [Eh]
	 SCS Opposite-Spin Energy  =      -2.6549136380166236 [Eh]
	 SCS Correlation Energy    =      -2.8845763690087574 [Eh]
	 SCS Total Energy          =    -634.5856813105185665 [Eh]
	-----------------------------------------------------------

  Dipole Moment: [D]
     X:    -0.8407      Y:    -3.0804      Z:     1.5009     Total:     3.5282

*** Psi4 exiting successfully. Buy a developer a beer!
