                               Psi4 1.4a3.dev225

  ==> Input File <==

--------------------------------------------------------------------------
#psi4
#
memory 32 gb

molecule  {
0 1
  O        0.1371160     2.1442200    -0.7498900
  N       -0.9079200     0.2138270    -0.0832910
  C       -2.1659738     0.8013408    -0.3939615
  C       -3.1715160    -0.2856370    -0.8447810
  C       -3.2543810    -1.4343410     0.1597440
  C       -1.8582660    -1.9851710     0.4427670
  C       -0.9333470    -0.8668740     0.9054230
  C       -2.7330240     1.6830710     0.7442420
  C        0.2088310     0.9821600    -0.3252730
  C        1.5466860     0.3366220    -0.1329200
  C        1.8387470    -0.9259720    -0.6670270
  C        2.5575830     1.0808050     0.4866160
  C        3.1278360    -1.4488340    -0.5554450
  C        3.8398480     0.5472150     0.6113220
  C        4.1275660    -0.7178550     0.0911790
  H       -2.0189590     1.4850890    -1.2525130
  H       -2.8205670    -0.6804150    -1.8065990
  H       -4.1624350     0.1514200    -1.0190010
  H       -3.9082830    -2.2246930    -0.2264870
  H       -3.7050990    -1.0869340     1.0980480
  H       -1.8940300    -2.7681710     1.2100160
  H       -1.4444710    -2.4355870    -0.4683360
  H       -1.2866520    -0.4768830     1.8722860
  H        0.0828400    -1.2295020     1.0584050
  H       -3.6731810     2.1637340     0.4547800
  H       -2.9192060     1.1010660     1.6506870
  H       -2.0023200     2.4636420     0.9693550
  H        1.0609540    -1.4829580    -1.1859370
  H        2.3266460     2.0767070     0.8563740
  H        3.3548360    -2.4238320    -0.9804540
  H        4.6199280     1.1225680     1.1042590
  H        5.1302370    -1.1288490     0.1814620
units angstrom
no_reorient  #important for SAPT in psi4, default
symmetry c1  #important for SAPT in psi4, default
}

set PROPERTIES_ORIGIN ["COM"]
properties('MP2/aug-cc-pvtz', properties = ['dipole'])
--------------------------------------------------------------------------

    Molecular point group: c1
  Charge       = 0
  Multiplicity = 1
  Basis Set: AUG-CC-PVTZ
    Blend: AUG-CC-PVTZ
  Basis Set: (AUG-CC-PVTZ AUX)
    Blend: AUG-CC-PVTZ-JKFIT

    Orbital Energies [Eh]
    ---------------------

    Doubly Occupied:

       1A    -20.516419     2A    -15.581112     3A    -11.350856
       4A    -11.266455     5A    -11.255968     6A    -11.251649
       7A    -11.250376     8A    -11.248319     9A    -11.246313
      10A    -11.245914    11A    -11.243890    12A    -11.229970
      13A    -11.225208    14A    -11.222138    15A    -11.209379
      16A     -1.371717    17A     -1.256049    18A     -1.161828
      19A     -1.083930    20A     -1.051777    21A     -1.030323
      22A     -1.023812    23A     -0.956966    24A     -0.897288
      25A     -0.869458    26A     -0.838388    27A     -0.833117
      28A     -0.790309    29A     -0.728498    30A     -0.719993
      31A     -0.682781    32A     -0.655727    33A     -0.638184
      34A     -0.628375    35A     -0.626126    36A     -0.608217
      37A     -0.598653    38A     -0.594161    39A     -0.590196
      40A     -0.577328    41A     -0.563250    42A     -0.542509
      43A     -0.527964    44A     -0.519198    45A     -0.508644
      46A     -0.503541    47A     -0.493396    48A     -0.491913
      49A     -0.466183    50A     -0.465393    51A     -0.445430
      52A     -0.423694    53A     -0.366832    54A     -0.345331
      55A     -0.342696

  @DF-RHF Final Energy:  -631.72688450736223

   => Energetics <=

    Nuclear Repulsion Energy =            999.5178902875306903
    One-Electron Energy =               -2842.1632585419488350
    Two-Electron Energy =                1210.9184837470559160
    Total Energy =                       -631.7268845073622288
  Basis Set: (AUG-CC-PVTZ AUX)
    Blend: AUG-CC-PVTZ-RI
    Molecular point group: c1

    Geometry (in Angstrom), charge = 0, multiplicity = 1:

       Center              X                  Y                   Z               Mass
    ------------   -----------------  -----------------  -----------------  -----------------
         O            0.069755345333     2.119243202765    -0.733377159449    15.994914619570
         N           -0.975280654667     0.188850202765    -0.066778159449    14.003074004430
         C           -2.233334454667     0.776364002765    -0.377448659449    12.000000000000
         C           -3.238876654667    -0.310613797235    -0.828268159449    12.000000000000
         C           -3.321741654667    -1.459317797235     0.176256840551    12.000000000000
         C           -1.925626654667    -2.010147797235     0.459279840551    12.000000000000
         C           -1.000707654667    -0.891850797235     0.921935840551    12.000000000000
         C           -2.800384654667     1.658094202765     0.760754840551    12.000000000000
         C            0.141470345333     0.957183202765    -0.308760159449    12.000000000000
         C            1.479325345333     0.311645202765    -0.116407159449    12.000000000000
         C            1.771386345333    -0.950948797235    -0.650514159449    12.000000000000
         C            2.490222345333     1.055828202765     0.503128840551    12.000000000000
         C            3.060475345333    -1.473810797235    -0.538932159449    12.000000000000
         C            3.772487345333     0.522238202765     0.627834840551    12.000000000000
         C            4.060205345333    -0.742831797235     0.107691840551    12.000000000000
         H           -2.086319654667     1.460112202765    -1.236000159449     1.007825032230
         H           -2.887927654667    -0.705391797235    -1.790086159449     1.007825032230
         H           -4.229795654667     0.126443202765    -1.002488159449     1.007825032230
         H           -3.975643654667    -2.249669797235    -0.209974159449     1.007825032230
         H           -3.772459654667    -1.111910797235     1.114560840551     1.007825032230
         H           -1.961390654667    -2.793147797235     1.226528840551     1.007825032230
         H           -1.511831654667    -2.460563797235    -0.451823159449     1.007825032230
         H           -1.354012654667    -0.501859797235     1.888798840551     1.007825032230
         H            0.015479345333    -1.254478797235     1.074917840551     1.007825032230
         H           -3.740541654667     2.138757202765     0.471292840551     1.007825032230
         H           -2.986566654667     1.076089202765     1.667199840551     1.007825032230
         H           -2.069680654667     2.438665202765     0.985867840551     1.007825032230
         H            0.993593345333    -1.507934797235    -1.169424159449     1.007825032230
         H            2.259285345333     2.051730202765     0.872886840551     1.007825032230
         H            3.287475345333    -2.448808797235    -0.963941159449     1.007825032230
         H            4.552567345333     1.097591202765     1.120771840551     1.007825032230
         H            5.062876345333    -1.153825797235     0.197974840551     1.007825032230

  Basis Set: AUG-CC-PVTZ
    Blend: AUG-CC-PVTZ
  Basis Set: (AUG-CC-PVTZ AUX)
    Blend: AUG-CC-PVTZ-JKFIT
	 Reference Energy          =    -631.7268845073622288 [Eh]
	 Singles Energy            =      -0.0000000000000000 [Eh]
	 Same-Spin Energy          =      -0.6888360572356313 [Eh]
	 Opposite-Spin Energy      =      -2.2117284967443172 [Eh]
	 Correlation Energy        =      -2.9005645539799483 [Eh]
	 Total Energy              =    -634.6274490613421904 [Eh]

	 ================> DF-SCS-MP2 Energies <==================
	-----------------------------------------------------------
	 SCS Same-Spin Scale       =       0.3333333333333333 [-]
	 SCS Opposite-Spin Scale   =       1.2000000000000000 [-]
	 SCS Same-Spin Energy      =      -0.2296120190785438 [Eh]
	 SCS Opposite-Spin Energy  =      -2.6540741960931804 [Eh]
	 SCS Correlation Energy    =      -2.8836862151717240 [Eh]
	 SCS Total Energy          =    -634.6105707225339074 [Eh]
	-----------------------------------------------------------

  Dipole Moment: [D]
     X:    -0.6711      Y:    -3.1620      Z:     1.4616     Total:     3.5475

*** Psi4 exiting successfully. Buy a developer a beer!
