                               Psi4 1.3.2 release

  ==> Input File <==

--------------------------------------------------------------------------
#psi4
#
memory 32 gb

molecule  {
0 1
  O        0.1371160     2.1442200    -0.7498900
  N       -0.9079200     0.2138270    -0.0832910
  C       -2.2101840     0.8219870    -0.4048790
  C       -3.1715160    -0.2856370    -0.8447810
  C       -3.2543810    -1.4343410     0.1597440
  C       -1.8582660    -1.9851710     0.4427670
  C       -0.9333470    -0.8668740     0.9054230
  C       -2.7330240     1.6830710     0.7442420
  C        0.2010192     0.9613438    -0.3390235
  C        1.5466860     0.3366220    -0.1329200
  C        1.8387470    -0.9259720    -0.6670270
  C        2.5575830     1.0808050     0.4866160
  C        3.1278360    -1.4488340    -0.5554450
  C        3.8398480     0.5472150     0.6113220
  C        4.1275660    -0.7178550     0.0911790
  H       -2.0189590     1.4850890    -1.2525130
  H       -2.8205670    -0.6804150    -1.8065990
  H       -4.1624350     0.1514200    -1.0190010
  H       -3.9082830    -2.2246930    -0.2264870
  H       -3.7050990    -1.0869340     1.0980480
  H       -1.8940300    -2.7681710     1.2100160
  H       -1.4444710    -2.4355870    -0.4683360
  H       -1.2866520    -0.4768830     1.8722860
  H        0.0828400    -1.2295020     1.0584050
  H       -3.6731810     2.1637340     0.4547800
  H       -2.9192060     1.1010660     1.6506870
  H       -2.0023200     2.4636420     0.9693550
  H        1.0609540    -1.4829580    -1.1859370
  H        2.3266460     2.0767070     0.8563740
  H        3.3548360    -2.4238320    -0.9804540
  H        4.6199280     1.1225680     1.1042590
  H        5.1302370    -1.1288490     0.1814620
units angstrom
no_reorient  #important for SAPT in psi4, default
symmetry c1  #important for SAPT in psi4, default
}

set PROPERTIES_ORIGIN ["COM"]
properties('MP2/aug-cc-pvtz', properties = ['dipole'])
--------------------------------------------------------------------------

    Molecular point group: c1
  Charge       = 0
  Multiplicity = 1
  Basis Set: AUG-CC-PVTZ
    Blend: AUG-CC-PVTZ
  Basis Set: (AUG-CC-PVTZ AUX)
    Blend: AUG-CC-PVTZ-JKFIT

    Orbital Energies [Eh]
    ---------------------

    Doubly Occupied:

       1A    -20.510296     2A    -15.581898     3A    -11.348579
       4A    -11.266777     5A    -11.258892     6A    -11.250544
       7A    -11.249069     8A    -11.247323     9A    -11.245405
      10A    -11.244839    11A    -11.243020    12A    -11.230579
      13A    -11.227134    14A    -11.223838    15A    -11.211384
      16A     -1.360292    17A     -1.248231    18A     -1.160562
      19A     -1.086844    20A     -1.053583    21A     -1.030721
      22A     -1.022820    23A     -0.961124    24A     -0.899002
      25A     -0.866506    26A     -0.837098    27A     -0.834110
      28A     -0.788543    29A     -0.729363    30A     -0.718889
      31A     -0.681196    32A     -0.655163    33A     -0.638964
      34A     -0.628453    35A     -0.624992    36A     -0.607312
      37A     -0.598130    38A     -0.593067    39A     -0.586824
      40A     -0.577070    41A     -0.565131    42A     -0.542171
      43A     -0.526013    44A     -0.519672    45A     -0.506798
      46A     -0.502682    47A     -0.494789    48A     -0.490979
      49A     -0.469847    50A     -0.462987    51A     -0.452606
      52A     -0.419139    53A     -0.368629    54A     -0.344362
      55A     -0.341328

  @DF-RHF Final Energy:  -631.72780512463009

   => Energetics <=

    Nuclear Repulsion Energy =            998.7586661641339560
    One-Electron Energy =               -2840.7018011025161286
    Two-Electron Energy =                1210.2153298137520778
    Total Energy =                       -631.7278051246300947
  Basis Set: (AUG-CC-PVTZ AUX)
    Blend: AUG-CC-PVTZ-RI
    Molecular point group: c1

    Geometry (in Angstrom), charge = 0, multiplicity = 1:

       Center              X                  Y                   Z               Mass
    ------------   -----------------  -----------------  -----------------  -----------------
         O            0.072828554033     2.119253245544    -0.731919893057    15.994914619570
         N           -0.972207445967     0.188860245544    -0.065320893057    14.003074004430
         C           -2.274471445967     0.797020245544    -0.386908893057    12.000000000000
         C           -3.235803445967    -0.310603754456    -0.826810893057    12.000000000000
         C           -3.318668445967    -1.459307754456     0.177714106943    12.000000000000
         C           -1.922553445967    -2.010137754456     0.460737106943    12.000000000000
         C           -0.997634445967    -0.891840754456     0.923393106943    12.000000000000
         C           -2.797311445967     1.658104245544     0.762212106943    12.000000000000
         C            0.136731754033     0.936377045544    -0.321053393057    12.000000000000
         C            1.482398554033     0.311655245544    -0.114949893057    12.000000000000
         C            1.774459554033    -0.950938754456    -0.649056893057    12.000000000000
         C            2.493295554033     1.055838245544     0.504586106943    12.000000000000
         C            3.063548554033    -1.473800754456    -0.537474893057    12.000000000000
         C            3.775560554033     0.522248245544     0.629292106943    12.000000000000
         C            4.063278554033    -0.742821754456     0.109149106943    12.000000000000
         H           -2.083246445967     1.460122245544    -1.234542893057     1.007825032230
         H           -2.884854445967    -0.705381754456    -1.788628893057     1.007825032230
         H           -4.226722445967     0.126453245544    -1.001030893057     1.007825032230
         H           -3.972570445967    -2.249659754456    -0.208516893057     1.007825032230
         H           -3.769386445967    -1.111900754456     1.116018106943     1.007825032230
         H           -1.958317445967    -2.793137754456     1.227986106943     1.007825032230
         H           -1.508758445967    -2.460553754456    -0.450365893057     1.007825032230
         H           -1.350939445967    -0.501849754456     1.890256106943     1.007825032230
         H            0.018552554033    -1.254468754456     1.076375106943     1.007825032230
         H           -3.737468445967     2.138767245544     0.472750106943     1.007825032230
         H           -2.983493445967     1.076099245544     1.668657106943     1.007825032230
         H           -2.066607445967     2.438675245544     0.987325106943     1.007825032230
         H            0.996666554033    -1.507924754456    -1.167966893057     1.007825032230
         H            2.262358554033     2.051740245544     0.874344106943     1.007825032230
         H            3.290548554033    -2.448798754456    -0.962483893057     1.007825032230
         H            4.555640554033     1.097601245544     1.122229106943     1.007825032230
         H            5.065949554033    -1.153815754456     0.199432106943     1.007825032230

  Basis Set: AUG-CC-PVTZ
    Blend: AUG-CC-PVTZ
  Basis Set: (AUG-CC-PVTZ AUX)
    Blend: AUG-CC-PVTZ-JKFIT
	 Reference Energy          =    -631.7278051246300947 [Eh]
	 Singles Energy            =      -0.0000000000000000 [Eh]
	 Same-Spin Energy          =      -0.6888844319003347 [Eh]
	 Opposite-Spin Energy      =      -2.2120730645586231 [Eh]
	 Correlation Energy        =      -2.9009574964589575 [Eh]
	 Total Energy              =    -634.6287626210890949 [Eh]

	 ================> DF-SCS-MP2 Energies <==================
	-----------------------------------------------------------
	 SCS Same-Spin Scale       =       0.3333333333333333 [-]
	 SCS Opposite-Spin Scale   =       1.2000000000000000 [-]
	 SCS Same-Spin Energy      =      -0.2296281439667782 [Eh]
	 SCS Opposite-Spin Energy  =      -2.6544876774703474 [Eh]
	 SCS Correlation Energy    =      -2.8841158214371259 [Eh]
	 SCS Total Energy          =    -634.6119209460672437 [Eh]
	-----------------------------------------------------------

  Dipole Moment: [D]
     X:    -0.9367      Y:    -3.2382      Z:     1.5041     Total:     3.6912

*** Psi4 exiting successfully. Buy a developer a beer!
