                               Psi4 1.3.2 release

  ==> Input File <==

--------------------------------------------------------------------------
#psi4
#
memory 32 gb

molecule  {
0 1
  O        0.1371160     2.1442200    -0.7498900
  N       -0.9079200     0.2138270    -0.0832910
  C       -2.0869734     0.7848633    -0.3098680
  C       -3.1715160    -0.2856370    -0.8447810
  C       -3.2543810    -1.4343410     0.1597440
  C       -1.8582660    -1.9851710     0.4427670
  C       -0.9333470    -0.8668740     0.9054230
  C       -2.7330240     1.6830710     0.7442420
  C        0.2088310     0.9821600    -0.3252730
  C        1.5466860     0.3366220    -0.1329200
  C        1.8387470    -0.9259720    -0.6670270
  C        2.5575830     1.0808050     0.4866160
  C        3.1278360    -1.4488340    -0.5554450
  C        3.8398480     0.5472150     0.6113220
  C        4.1275660    -0.7178550     0.0911790
  H       -2.0189590     1.4850890    -1.2525130
  H       -2.8205670    -0.6804150    -1.8065990
  H       -4.1624350     0.1514200    -1.0190010
  H       -3.9082830    -2.2246930    -0.2264870
  H       -3.7050990    -1.0869340     1.0980480
  H       -1.8940300    -2.7681710     1.2100160
  H       -1.4444710    -2.4355870    -0.4683360
  H       -1.2866520    -0.4768830     1.8722860
  H        0.0828400    -1.2295020     1.0584050
  H       -3.6731810     2.1637340     0.4547800
  H       -2.9192060     1.1010660     1.6506870
  H       -2.0023200     2.4636420     0.9693550
  H        1.0609540    -1.4829580    -1.1859370
  H        2.3266460     2.0767070     0.8563740
  H        3.3548360    -2.4238320    -0.9804540
  H        4.6199280     1.1225680     1.1042590
  H        5.1302370    -1.1288490     0.1814620
units angstrom
no_reorient  #important for SAPT in psi4, default
symmetry c1  #important for SAPT in psi4, default
}

set PROPERTIES_ORIGIN ["COM"]
properties('MP2/aug-cc-pvtz', properties = ['dipole'])
--------------------------------------------------------------------------

    Molecular point group: c1
  Charge       = 0
  Multiplicity = 1
  Basis Set: AUG-CC-PVTZ
    Blend: AUG-CC-PVTZ
  Basis Set: (AUG-CC-PVTZ AUX)
    Blend: AUG-CC-PVTZ-JKFIT

    Orbital Energies [Eh]
    ---------------------

    Doubly Occupied:

       1A    -20.520605     2A    -15.583654     3A    -11.354279
       4A    -11.268522     5A    -11.255361     6A    -11.253650
       7A    -11.252226     8A    -11.249837     9A    -11.248090
      10A    -11.247412    11A    -11.245398    12A    -11.230172
      13A    -11.222149    14A    -11.220932    15A    -11.207703
      16A     -1.379305    17A     -1.278070    18A     -1.163797
      19A     -1.082357    20A     -1.053280    21A     -1.028461
      22A     -1.025056    23A     -0.959186    24A     -0.900202
      25A     -0.875336    26A     -0.840317    27A     -0.830105
      28A     -0.796167    29A     -0.729673    30A     -0.719976
      31A     -0.684471    32A     -0.657475    33A     -0.638580
      34A     -0.631502    35A     -0.625631    36A     -0.615122
      37A     -0.598937    38A     -0.598385    39A     -0.594418
      40A     -0.575974    41A     -0.561064    42A     -0.541398
      43A     -0.533863    44A     -0.519703    45A     -0.507489
      46A     -0.504967    47A     -0.494386    48A     -0.491613
      49A     -0.468268    50A     -0.462984    51A     -0.429428
      52A     -0.417877    53A     -0.363617    54A     -0.346898
      55A     -0.344298

  @DF-RHF Final Energy:  -631.70087240465068

   => Energetics <=

    Nuclear Repulsion Energy =           1001.3977044804026946
    One-Electron Energy =               -2845.7379065598142915
    Two-Electron Energy =                1212.6393296747608019
    Total Energy =                       -631.7008724046506813
  Basis Set: (AUG-CC-PVTZ AUX)
    Blend: AUG-CC-PVTZ-RI
    Molecular point group: c1

    Geometry (in Angstrom), charge = 0, multiplicity = 1:

       Center              X                  Y                   Z               Mass
    ------------   -----------------  -----------------  -----------------  -----------------
         O            0.065088382959     2.120216613944    -0.738344997591    15.994914619570
         N           -0.979947617041     0.189823613944    -0.071745997591    14.003074004430
         C           -2.159001017041     0.760859913944    -0.298322997591    12.000000000000
         C           -3.243543617041    -0.309640386056    -0.833235997591    12.000000000000
         C           -3.326408617041    -1.458344386056     0.171289002409    12.000000000000
         C           -1.930293617041    -2.009174386056     0.454312002409    12.000000000000
         C           -1.005374617041    -0.890877386056     0.916968002409    12.000000000000
         C           -2.805051617041     1.659067613944     0.755787002409    12.000000000000
         C            0.136803382959     0.958156613944    -0.313727997591    12.000000000000
         C            1.474658382959     0.312618613944    -0.121374997591    12.000000000000
         C            1.766719382959    -0.949975386056    -0.655481997591    12.000000000000
         C            2.485555382959     1.056801613944     0.498161002409    12.000000000000
         C            3.055808382959    -1.472837386056    -0.543899997591    12.000000000000
         C            3.767820382959     0.523211613944     0.622867002409    12.000000000000
         C            4.055538382959    -0.741858386056     0.102724002409    12.000000000000
         H           -2.090986617041     1.461085613944    -1.240967997591     1.007825032230
         H           -2.892594617041    -0.704418386056    -1.795053997591     1.007825032230
         H           -4.234462617041     0.127416613944    -1.007455997591     1.007825032230
         H           -3.980310617041    -2.248696386056    -0.214941997591     1.007825032230
         H           -3.777126617041    -1.110937386056     1.109593002409     1.007825032230
         H           -1.966057617041    -2.792174386056     1.221561002409     1.007825032230
         H           -1.516498617041    -2.459590386056    -0.456790997591     1.007825032230
         H           -1.358679617041    -0.500886386056     1.883831002409     1.007825032230
         H            0.010812382959    -1.253505386056     1.069950002409     1.007825032230
         H           -3.745208617041     2.139730613944     0.466325002409     1.007825032230
         H           -2.991233617041     1.077062613944     1.662232002409     1.007825032230
         H           -2.074347617041     2.439638613944     0.980900002409     1.007825032230
         H            0.988926382959    -1.506961386056    -1.174391997591     1.007825032230
         H            2.254618382959     2.052703613944     0.867919002409     1.007825032230
         H            3.282808382959    -2.447835386056    -0.968908997591     1.007825032230
         H            4.547900382959     1.098564613944     1.115804002409     1.007825032230
         H            5.058209382959    -1.152852386056     0.193007002409     1.007825032230

  Basis Set: AUG-CC-PVTZ
    Blend: AUG-CC-PVTZ
  Basis Set: (AUG-CC-PVTZ AUX)
    Blend: AUG-CC-PVTZ-JKFIT
	 Reference Energy          =    -631.7008724046506813 [Eh]
	 Singles Energy            =      -0.0000000000000000 [Eh]
	 Same-Spin Energy          =      -0.6904073742307705 [Eh]
	 Opposite-Spin Energy      =      -2.2139625592688272 [Eh]
	 Correlation Energy        =      -2.9043699334995976 [Eh]
	 Total Energy              =    -634.6052423381503331 [Eh]

	 ================> DF-SCS-MP2 Energies <==================
	-----------------------------------------------------------
	 SCS Same-Spin Scale       =       0.3333333333333333 [-]
	 SCS Opposite-Spin Scale   =       1.2000000000000000 [-]
	 SCS Same-Spin Energy      =      -0.2301357914102568 [Eh]
	 SCS Opposite-Spin Energy  =      -2.6567550711225927 [Eh]
	 SCS Correlation Energy    =      -2.8868908625328493 [Eh]
	 SCS Total Energy          =    -634.5877632671835045 [Eh]
	-----------------------------------------------------------

  Dipole Moment: [D]
     X:    -0.3544      Y:    -3.1474      Z:     1.5264     Total:     3.5160

*** Psi4 exiting successfully. Buy a developer a beer!
