                               Psi4 1.3.2 release

  ==> Input File <==

--------------------------------------------------------------------------
#psi4
#
memory 32 gb

molecule  {
0 1
  O        0.0082489     2.1294235    -0.7488051
  N       -0.9079200     0.2138270    -0.0832910
  C       -2.2101840     0.8219870    -0.4048790
  C       -3.1715160    -0.2856370    -0.8447810
  C       -3.2543810    -1.4343410     0.1597440
  C       -1.8582660    -1.9851710     0.4427670
  C       -0.9333470    -0.8668740     0.9054230
  C       -2.7330240     1.6830710     0.7442420
  C        0.2088310     0.9821600    -0.3252730
  C        1.5466860     0.3366220    -0.1329200
  C        1.8387470    -0.9259720    -0.6670270
  C        2.5575830     1.0808050     0.4866160
  C        3.1278360    -1.4488340    -0.5554450
  C        3.8398480     0.5472150     0.6113220
  C        4.1275660    -0.7178550     0.0911790
  H       -2.0189590     1.4850890    -1.2525130
  H       -2.8205670    -0.6804150    -1.8065990
  H       -4.1624350     0.1514200    -1.0190010
  H       -3.9082830    -2.2246930    -0.2264870
  H       -3.7050990    -1.0869340     1.0980480
  H       -1.8940300    -2.7681710     1.2100160
  H       -1.4444710    -2.4355870    -0.4683360
  H       -1.2866520    -0.4768830     1.8722860
  H        0.0828400    -1.2295020     1.0584050
  H       -3.6731810     2.1637340     0.4547800
  H       -2.9192060     1.1010660     1.6506870
  H       -2.0023200     2.4636420     0.9693550
  H        1.0609540    -1.4829580    -1.1859370
  H        2.3266460     2.0767070     0.8563740
  H        3.3548360    -2.4238320    -0.9804540
  H        4.6199280     1.1225680     1.1042590
  H        5.1302370    -1.1288490     0.1814620
units angstrom
no_reorient  #important for SAPT in psi4, default
symmetry c1  #important for SAPT in psi4, default
}

set PROPERTIES_ORIGIN ["COM"]
properties('MP2/aug-cc-pvtz', properties = ['dipole'])
--------------------------------------------------------------------------

    Molecular point group: c1
  Charge       = 0
  Multiplicity = 1
  Basis Set: AUG-CC-PVTZ
    Blend: AUG-CC-PVTZ
  Basis Set: (AUG-CC-PVTZ AUX)
    Blend: AUG-CC-PVTZ-JKFIT

    Orbital Energies [Eh]
    ---------------------

    Doubly Occupied:

       1A    -20.511626     2A    -15.573196     3A    -11.348458
       4A    -11.261707     5A    -11.255559     6A    -11.253722
       7A    -11.252657     8A    -11.251161     9A    -11.249662
      10A    -11.248240    11A    -11.246300    12A    -11.227097
      13A    -11.223706    14A    -11.219815    15A    -11.207315
      16A     -1.370286    17A     -1.238819    18A     -1.164719
      19A     -1.081909    20A     -1.050535    21A     -1.032957
      22A     -1.026392    23A     -0.956068    24A     -0.895275
      25A     -0.865624    26A     -0.840096    27A     -0.832162
      28A     -0.786089    29A     -0.728822    30A     -0.716056
      31A     -0.683765    32A     -0.655525    33A     -0.639223
      34A     -0.628779    35A     -0.623097    36A     -0.606084
      37A     -0.598942    38A     -0.595861    39A     -0.584324
      40A     -0.574574    41A     -0.562310    42A     -0.541569
      43A     -0.526810    44A     -0.516983    45A     -0.509207
      46A     -0.505642    47A     -0.492415    48A     -0.491025
      49A     -0.466820    50A     -0.458848    51A     -0.447612
      52A     -0.419957    53A     -0.363018    54A     -0.347632
      55A     -0.346591

  @DF-RHF Final Energy:  -631.72528156288831

   => Energetics <=

    Nuclear Repulsion Energy =            999.4304068701163715
    One-Electron Energy =               -2842.1060969307677624
    Two-Electron Energy =                1210.9504084977631919
    Total Energy =                       -631.7252815628883127
  Basis Set: (AUG-CC-PVTZ AUX)
    Blend: AUG-CC-PVTZ-RI
    Molecular point group: c1

    Geometry (in Angstrom), charge = 0, multiplicity = 1:

       Center              X                  Y                   Z               Mass
    ------------   -----------------  -----------------  -----------------  -----------------
         O           -0.046352793795     2.104392128893    -0.731732733285    15.994914619570
         N           -0.962521693795     0.188795628893    -0.066218633285    14.003074004430
         C           -2.264785693795     0.796955628893    -0.387806633285    12.000000000000
         C           -3.226117693795    -0.310668371107    -0.827708633285    12.000000000000
         C           -3.308982693795    -1.459372371107     0.176816366715    12.000000000000
         C           -1.912867693795    -2.010202371107     0.459839366715    12.000000000000
         C           -0.987948693795    -0.891905371107     0.922495366715    12.000000000000
         C           -2.787625693795     1.658039628893     0.761314366715    12.000000000000
         C            0.154229306205     0.957128628893    -0.308200633285    12.000000000000
         C            1.492084306205     0.311590628893    -0.115847633285    12.000000000000
         C            1.784145306205    -0.951003371107    -0.649954633285    12.000000000000
         C            2.502981306205     1.055773628893     0.503688366715    12.000000000000
         C            3.073234306205    -1.473865371107    -0.538372633285    12.000000000000
         C            3.785246306205     0.522183628893     0.628394366715    12.000000000000
         C            4.072964306205    -0.742886371107     0.108251366715    12.000000000000
         H           -2.073560693795     1.460057628893    -1.235440633285     1.007825032230
         H           -2.875168693795    -0.705446371107    -1.789526633285     1.007825032230
         H           -4.217036693795     0.126388628893    -1.001928633285     1.007825032230
         H           -3.962884693795    -2.249724371107    -0.209414633285     1.007825032230
         H           -3.759700693795    -1.111965371107     1.115120366715     1.007825032230
         H           -1.948631693795    -2.793202371107     1.227088366715     1.007825032230
         H           -1.499072693795    -2.460618371107    -0.451263633285     1.007825032230
         H           -1.341253693795    -0.501914371107     1.889358366715     1.007825032230
         H            0.028238306205    -1.254533371107     1.075477366715     1.007825032230
         H           -3.727782693795     2.138702628893     0.471852366715     1.007825032230
         H           -2.973807693795     1.076034628893     1.667759366715     1.007825032230
         H           -2.056921693795     2.438610628893     0.986427366715     1.007825032230
         H            1.006352306205    -1.507989371107    -1.168864633285     1.007825032230
         H            2.272044306205     2.051675628893     0.873446366715     1.007825032230
         H            3.300234306205    -2.448863371107    -0.963381633285     1.007825032230
         H            4.565326306205     1.097536628893     1.121331366715     1.007825032230
         H            5.075635306205    -1.153880371107     0.198534366715     1.007825032230

  Basis Set: AUG-CC-PVTZ
    Blend: AUG-CC-PVTZ
  Basis Set: (AUG-CC-PVTZ AUX)
    Blend: AUG-CC-PVTZ-JKFIT
	 Reference Energy          =    -631.7252815628883127 [Eh]
	 Singles Energy            =      -0.0000000000000000 [Eh]
	 Same-Spin Energy          =      -0.6890194734316224 [Eh]
	 Opposite-Spin Energy      =      -2.2120101625234754 [Eh]
	 Correlation Energy        =      -2.9010296359550978 [Eh]
	 Total Energy              =    -634.6263111988433820 [Eh]

	 ================> DF-SCS-MP2 Energies <==================
	-----------------------------------------------------------
	 SCS Same-Spin Scale       =       0.3333333333333333 [-]
	 SCS Opposite-Spin Scale   =       1.2000000000000000 [-]
	 SCS Same-Spin Energy      =      -0.2296731578105408 [Eh]
	 SCS Opposite-Spin Energy  =      -2.6544121950281703 [Eh]
	 SCS Correlation Energy    =      -2.8840853528387109 [Eh]
	 SCS Total Energy          =    -634.6093669157270369 [Eh]
	-----------------------------------------------------------

  Dipole Moment: [D]
     X:    -0.3102      Y:    -3.1228      Z:     1.4373     Total:     3.4516

*** Psi4 exiting successfully. Buy a developer a beer!
