                               Psi4 1.4a3.dev225

  ==> Input File <==

--------------------------------------------------------------------------
#psi4
#
memory 32 gb

molecule  {
0 1
  O        0.1371160     2.1442200    -0.7498900
  N       -0.9079200     0.2138270    -0.0832910
  C       -2.2101840     0.8219870    -0.4048790
  C       -3.1715160    -0.2856370    -0.8447810
  C       -3.2543810    -1.4343410     0.1597440
  C       -1.8582660    -1.9851710     0.4427670
  C       -0.9333470    -0.8668740     0.9054230
  C       -2.7330240     1.6830710     0.7442420
  C        0.2088310     0.9821600    -0.3252730
  C        1.5020270     0.3581707    -0.1393409
  C        1.8387470    -0.9259720    -0.6670270
  C        2.5575830     1.0808050     0.4866160
  C        3.1278360    -1.4488340    -0.5554450
  C        3.8398480     0.5472150     0.6113220
  C        4.1275660    -0.7178550     0.0911790
  H       -2.0189590     1.4850890    -1.2525130
  H       -2.8205670    -0.6804150    -1.8065990
  H       -4.1624350     0.1514200    -1.0190010
  H       -3.9082830    -2.2246930    -0.2264870
  H       -3.7050990    -1.0869340     1.0980480
  H       -1.8940300    -2.7681710     1.2100160
  H       -1.4444710    -2.4355870    -0.4683360
  H       -1.2866520    -0.4768830     1.8722860
  H        0.0828400    -1.2295020     1.0584050
  H       -3.6731810     2.1637340     0.4547800
  H       -2.9192060     1.1010660     1.6506870
  H       -2.0023200     2.4636420     0.9693550
  H        1.0609540    -1.4829580    -1.1859370
  H        2.3266460     2.0767070     0.8563740
  H        3.3548360    -2.4238320    -0.9804540
  H        4.6199280     1.1225680     1.1042590
  H        5.1302370    -1.1288490     0.1814620
units angstrom
no_reorient  #important for SAPT in psi4, default
symmetry c1  #important for SAPT in psi4, default
}

set PROPERTIES_ORIGIN ["COM"]
properties('MP2/aug-cc-pvtz', properties = ['dipole'])
--------------------------------------------------------------------------

    Molecular point group: c1
  Charge       = 0
  Multiplicity = 1
  Basis Set: AUG-CC-PVTZ
    Blend: AUG-CC-PVTZ
  Basis Set: (AUG-CC-PVTZ AUX)
    Blend: AUG-CC-PVTZ-JKFIT

    Orbital Energies [Eh]
    ---------------------

    Doubly Occupied:

       1A    -20.513492     2A    -15.578730     3A    -11.346348
       4A    -11.264809     5A    -11.257426     6A    -11.254384
       7A    -11.251861     8A    -11.249668     9A    -11.249496
      10A    -11.245776    11A    -11.243755    12A    -11.229358
      13A    -11.226096    14A    -11.222782    15A    -11.210591
      16A     -1.369721    17A     -1.246591    18A     -1.157042
      19A     -1.085596    20A     -1.053126    21A     -1.031738
      22A     -1.021311    23A     -0.959182    24A     -0.899969
      25A     -0.869672    26A     -0.837032    27A     -0.832261
      28A     -0.785873    29A     -0.730248    30A     -0.718142
      31A     -0.685320    32A     -0.656253    33A     -0.638493
      34A     -0.627091    35A     -0.626024    36A     -0.604840
      37A     -0.599367    38A     -0.591556    39A     -0.587016
      40A     -0.577452    41A     -0.564639    42A     -0.543037
      43A     -0.527537    44A     -0.519849    45A     -0.508792
      46A     -0.499496    47A     -0.493310    48A     -0.488560
      49A     -0.469748    50A     -0.462207    51A     -0.451262
      52A     -0.424256    53A     -0.367890    54A     -0.344385
      55A     -0.339115

  @DF-RHF Final Energy:  -631.72455155249486

   => Energetics <=

    Nuclear Repulsion Energy =            998.8605267315801939
    One-Electron Energy =               -2840.8910134262678184
    Two-Electron Energy =                1210.3059351421927659
    Total Energy =                       -631.7245515524948587
  Basis Set: (AUG-CC-PVTZ AUX)
    Blend: AUG-CC-PVTZ-RI
    Molecular point group: c1

    Geometry (in Angstrom), charge = 0, multiplicity = 1:

       Center              X                  Y                   Z               Mass
    ------------   -----------------  -----------------  -----------------  -----------------
         O            0.075005308783     2.116750531707    -0.732352890453    15.994914619570
         N           -0.970030691217     0.186357531707    -0.065753890453    14.003074004430
         C           -2.272294691217     0.794517531707    -0.387341890453    12.000000000000
         C           -3.233626691217    -0.313106468293    -0.827243890453    12.000000000000
         C           -3.316491691217    -1.461810468293     0.177281109547    12.000000000000
         C           -1.920376691217    -2.012640468293     0.460304109547    12.000000000000
         C           -0.995457691217    -0.894343468293     0.922960109547    12.000000000000
         C           -2.795134691217     1.655601531707     0.761779109547    12.000000000000
         C            0.146720308783     0.954690531707    -0.307735890453    12.000000000000
         C            1.439916308783     0.330701231707    -0.121803790453    12.000000000000
         C            1.776636308783    -0.953441468293    -0.649489890453    12.000000000000
         C            2.495472308783     1.053335531707     0.504153109547    12.000000000000
         C            3.065725308783    -1.476303468293    -0.537907890453    12.000000000000
         C            3.777737308783     0.519745531707     0.628859109547    12.000000000000
         C            4.065455308783    -0.745324468293     0.108716109547    12.000000000000
         H           -2.081069691217     1.457619531707    -1.234975890453     1.007825032230
         H           -2.882677691217    -0.707884468293    -1.789061890453     1.007825032230
         H           -4.224545691217     0.123950531707    -1.001463890453     1.007825032230
         H           -3.970393691217    -2.252162468293    -0.208949890453     1.007825032230
         H           -3.767209691217    -1.114403468293     1.115585109547     1.007825032230
         H           -1.956140691217    -2.795640468293     1.227553109547     1.007825032230
         H           -1.506581691217    -2.463056468293    -0.450798890453     1.007825032230
         H           -1.348762691217    -0.504352468293     1.889823109547     1.007825032230
         H            0.020729308783    -1.256971468293     1.075942109547     1.007825032230
         H           -3.735291691217     2.136264531707     0.472317109547     1.007825032230
         H           -2.981316691217     1.073596531707     1.668224109547     1.007825032230
         H           -2.064430691217     2.436172531707     0.986892109547     1.007825032230
         H            0.998843308783    -1.510427468293    -1.168399890453     1.007825032230
         H            2.264535308783     2.049237531707     0.873911109547     1.007825032230
         H            3.292725308783    -2.451301468293    -0.962916890453     1.007825032230
         H            4.557817308783     1.095098531707     1.121796109547     1.007825032230
         H            5.068126308783    -1.156318468293     0.198999109547     1.007825032230

  Basis Set: AUG-CC-PVTZ
    Blend: AUG-CC-PVTZ
  Basis Set: (AUG-CC-PVTZ AUX)
    Blend: AUG-CC-PVTZ-JKFIT
	 Reference Energy          =    -631.7245515524948587 [Eh]
	 Singles Energy            =      -0.0000000000000000 [Eh]
	 Same-Spin Energy          =      -0.6892554488242864 [Eh]
	 Opposite-Spin Energy      =      -2.2127544860435453 [Eh]
	 Correlation Energy        =      -2.9020099348678317 [Eh]
	 Total Energy              =    -634.6265614873626646 [Eh]

	 ================> DF-SCS-MP2 Energies <==================
	-----------------------------------------------------------
	 SCS Same-Spin Scale       =       0.3333333333333333 [-]
	 SCS Opposite-Spin Scale   =       1.2000000000000000 [-]
	 SCS Same-Spin Energy      =      -0.2297518162747621 [Eh]
	 SCS Opposite-Spin Energy  =      -2.6553053832522542 [Eh]
	 SCS Correlation Energy    =      -2.8850571995270164 [Eh]
	 SCS Total Energy          =    -634.6096087520219271 [Eh]
	-----------------------------------------------------------

  Dipole Moment: [D]
     X:    -0.7709      Y:    -3.1588      Z:     1.4706     Total:     3.5686

*** Psi4 exiting successfully. Buy a developer a beer!
