                               Psi4 1.3.2 release

  ==> Input File <==

--------------------------------------------------------------------------
#psi4
#
memory 32 gb

molecule  {
0 1
  O        0.1371160     2.1442200    -0.7498900
  N       -0.9079200     0.2138270    -0.0832910
  C       -2.2101840     0.8219870    -0.4048790
  C       -3.1715160    -0.2856370    -0.8447810
  C       -3.2543810    -1.4343410     0.1597440
  C       -1.8582660    -1.9851710     0.4427670
  C       -0.9333470    -0.8668740     0.9054230
  C       -2.7330240     1.6830710     0.7442420
  C        0.2088310     0.9821600    -0.3252730
  C        1.5466860     0.3366220    -0.1329200
  C        1.8851188    -0.9204729    -0.6524286
  C        2.5575830     1.0808050     0.4866160
  C        3.1278360    -1.4488340    -0.5554450
  C        3.8398480     0.5472150     0.6113220
  C        4.1275660    -0.7178550     0.0911790
  H       -2.0189590     1.4850890    -1.2525130
  H       -2.8205670    -0.6804150    -1.8065990
  H       -4.1624350     0.1514200    -1.0190010
  H       -3.9082830    -2.2246930    -0.2264870
  H       -3.7050990    -1.0869340     1.0980480
  H       -1.8940300    -2.7681710     1.2100160
  H       -1.4444710    -2.4355870    -0.4683360
  H       -1.2866520    -0.4768830     1.8722860
  H        0.0828400    -1.2295020     1.0584050
  H       -3.6731810     2.1637340     0.4547800
  H       -2.9192060     1.1010660     1.6506870
  H       -2.0023200     2.4636420     0.9693550
  H        1.0609540    -1.4829580    -1.1859370
  H        2.3266460     2.0767070     0.8563740
  H        3.3548360    -2.4238320    -0.9804540
  H        4.6199280     1.1225680     1.1042590
  H        5.1302370    -1.1288490     0.1814620
units angstrom
no_reorient  #important for SAPT in psi4, default
symmetry c1  #important for SAPT in psi4, default
}

set PROPERTIES_ORIGIN ["COM"]
properties('MP2/aug-cc-pvtz', properties = ['dipole'])
--------------------------------------------------------------------------

    Molecular point group: c1
  Charge       = 0
  Multiplicity = 1
  Basis Set: AUG-CC-PVTZ
    Blend: AUG-CC-PVTZ
  Basis Set: (AUG-CC-PVTZ AUX)
    Blend: AUG-CC-PVTZ-JKFIT

    Orbital Energies [Eh]
    ---------------------

    Doubly Occupied:

       1A    -20.515034     2A    -15.579442     3A    -11.350323
       4A    -11.265277     5A    -11.257771     6A    -11.249703
       7A    -11.248178     8A    -11.247597     9A    -11.245452
      10A    -11.242227    11A    -11.240144    12A    -11.229417
      13A    -11.226231    14A    -11.222968    15A    -11.210871
      16A     -1.369044    17A     -1.246619    18A     -1.165001
      19A     -1.084816    20A     -1.052345    21A     -1.031772
      22A     -1.025603    23A     -0.959301    24A     -0.897719
      25A     -0.866720    26A     -0.835604    27A     -0.831853
      28A     -0.788363    29A     -0.729470    30A     -0.717692
      31A     -0.681556    32A     -0.653776    33A     -0.640387
      34A     -0.628338    35A     -0.624322    36A     -0.605796
      37A     -0.600498    38A     -0.590077    39A     -0.586604
      40A     -0.577810    41A     -0.564523    42A     -0.543384
      43A     -0.527347    44A     -0.519826    45A     -0.509547
      46A     -0.500810    47A     -0.493859    48A     -0.488452
      49A     -0.469991    50A     -0.462376    51A     -0.451474
      52A     -0.422630    53A     -0.368228    54A     -0.348926
      55A     -0.340522

  @DF-RHF Final Energy:  -631.72640037643919

   => Energetics <=

    Nuclear Repulsion Energy =            998.8723357765660467
    One-Electron Energy =               -2840.9302357265055434
    Two-Electron Energy =                1210.3314995735001958
    Total Energy =                       -631.7264003764391873
  Basis Set: (AUG-CC-PVTZ AUX)
    Blend: AUG-CC-PVTZ-RI
    Molecular point group: c1

    Geometry (in Angstrom), charge = 0, multiplicity = 1:

       Center              X                  Y                   Z               Mass
    ------------   -----------------  -----------------  -----------------  -----------------
         O            0.069627648437     2.117698664619    -0.733594609257    15.994914619570
         N           -0.975408351563     0.187305664619    -0.066995609257    14.003074004430
         C           -2.277672351563     0.795465664619    -0.388583609257    12.000000000000
         C           -3.239004351563    -0.312158335381    -0.828485609257    12.000000000000
         C           -3.321869351563    -1.460862335381     0.176039390743    12.000000000000
         C           -1.925754351563    -2.011692335381     0.459062390743    12.000000000000
         C           -1.000835351563    -0.893395335381     0.921718390743    12.000000000000
         C           -2.800512351563     1.656549664619     0.760537390743    12.000000000000
         C            0.141342648437     0.955638664619    -0.308977609257    12.000000000000
         C            1.479197648437     0.310100664619    -0.116624609257    12.000000000000
         C            1.817630448437    -0.946994235381    -0.636133209257    12.000000000000
         C            2.490094648437     1.054283664619     0.502911390743    12.000000000000
         C            3.060347648437    -1.475355335381    -0.539149609257    12.000000000000
         C            3.772359648437     0.520693664619     0.627617390743    12.000000000000
         C            4.060077648437    -0.744376335381     0.107474390743    12.000000000000
         H           -2.086447351563     1.458567664619    -1.236217609257     1.007825032230
         H           -2.888055351563    -0.706936335381    -1.790303609257     1.007825032230
         H           -4.229923351563     0.124898664619    -1.002705609257     1.007825032230
         H           -3.975771351563    -2.251214335381    -0.210191609257     1.007825032230
         H           -3.772587351563    -1.113455335381     1.114343390743     1.007825032230
         H           -1.961518351563    -2.794692335381     1.226311390743     1.007825032230
         H           -1.511959351563    -2.462108335381    -0.452040609257     1.007825032230
         H           -1.354140351563    -0.503404335381     1.888581390743     1.007825032230
         H            0.015351648437    -1.256023335381     1.074700390743     1.007825032230
         H           -3.740669351563     2.137212664619     0.471075390743     1.007825032230
         H           -2.986694351563     1.074544664619     1.666982390743     1.007825032230
         H           -2.069808351563     2.437120664619     0.985650390743     1.007825032230
         H            0.993465648437    -1.509479335381    -1.169641609257     1.007825032230
         H            2.259157648437     2.050185664619     0.872669390743     1.007825032230
         H            3.287347648437    -2.450353335381    -0.964158609257     1.007825032230
         H            4.552439648437     1.096046664619     1.120554390743     1.007825032230
         H            5.062748648437    -1.155370335381     0.197757390743     1.007825032230

  Basis Set: AUG-CC-PVTZ
    Blend: AUG-CC-PVTZ
  Basis Set: (AUG-CC-PVTZ AUX)
    Blend: AUG-CC-PVTZ-JKFIT
	 Reference Energy          =    -631.7264003764391873 [Eh]
	 Singles Energy            =      -0.0000000000000000 [Eh]
	 Same-Spin Energy          =      -0.6886648953025964 [Eh]
	 Opposite-Spin Energy      =      -2.2115454593096695 [Eh]
	 Correlation Energy        =      -2.9002103546122662 [Eh]
	 Total Energy              =    -634.6266107310514144 [Eh]

	 ================> DF-SCS-MP2 Energies <==================
	-----------------------------------------------------------
	 SCS Same-Spin Scale       =       0.3333333333333333 [-]
	 SCS Opposite-Spin Scale   =       1.2000000000000000 [-]
	 SCS Same-Spin Energy      =      -0.2295549651008655 [Eh]
	 SCS Opposite-Spin Energy  =      -2.6538545511716034 [Eh]
	 SCS Correlation Energy    =      -2.8834095162724687 [Eh]
	 SCS Total Energy          =    -634.6098098927116098 [Eh]
	-----------------------------------------------------------

  Dipole Moment: [D]
     X:    -0.8461      Y:    -3.1193      Z:     1.4700     Total:     3.5506

*** Psi4 exiting successfully. Buy a developer a beer!
