                               Psi4 1.3.2 release

  ==> Input File <==

--------------------------------------------------------------------------
#psi4
#
memory 32 gb

molecule  {
0 1
  O        0.1371160     2.1442200    -0.7498900
  N       -0.9079200     0.2138270    -0.0832910
  C       -2.2101840     0.8219870    -0.4048790
  C       -3.1538352    -0.2933079    -0.8632933
  C       -3.2543810    -1.4343410     0.1597440
  C       -1.8582660    -1.9851710     0.4427670
  C       -0.9333470    -0.8668740     0.9054230
  C       -2.7330240     1.6830710     0.7442420
  C        0.2088310     0.9821600    -0.3252730
  C        1.5466860     0.3366220    -0.1329200
  C        1.8387470    -0.9259720    -0.6670270
  C        2.5575830     1.0808050     0.4866160
  C        3.1278360    -1.4488340    -0.5554450
  C        3.8398480     0.5472150     0.6113220
  C        4.1275660    -0.7178550     0.0911790
  H       -2.0189590     1.4850890    -1.2525130
  H       -2.8205670    -0.6804150    -1.8065990
  H       -4.1624350     0.1514200    -1.0190010
  H       -3.9082830    -2.2246930    -0.2264870
  H       -3.7050990    -1.0869340     1.0980480
  H       -1.8940300    -2.7681710     1.2100160
  H       -1.4444710    -2.4355870    -0.4683360
  H       -1.2866520    -0.4768830     1.8722860
  H        0.0828400    -1.2295020     1.0584050
  H       -3.6731810     2.1637340     0.4547800
  H       -2.9192060     1.1010660     1.6506870
  H       -2.0023200     2.4636420     0.9693550
  H        1.0609540    -1.4829580    -1.1859370
  H        2.3266460     2.0767070     0.8563740
  H        3.3548360    -2.4238320    -0.9804540
  H        4.6199280     1.1225680     1.1042590
  H        5.1302370    -1.1288490     0.1814620
units angstrom
no_reorient  #important for SAPT in psi4, default
symmetry c1  #important for SAPT in psi4, default
}

set PROPERTIES_ORIGIN ["COM"]
properties('MP2/aug-cc-pvtz', properties = ['dipole'])
--------------------------------------------------------------------------

    Molecular point group: c1
  Charge       = 0
  Multiplicity = 1
  Basis Set: AUG-CC-PVTZ
    Blend: AUG-CC-PVTZ
  Basis Set: (AUG-CC-PVTZ AUX)
    Blend: AUG-CC-PVTZ-JKFIT

    Orbital Energies [Eh]
    ---------------------

    Doubly Occupied:

       1A    -20.514216     2A    -15.578777     3A    -11.348816
       4A    -11.264934     5A    -11.257598     6A    -11.250553
       7A    -11.249332     8A    -11.247451     9A    -11.245351
      10A    -11.245078    11A    -11.243068    12A    -11.229164
      13A    -11.226449    14A    -11.222618    15A    -11.211317
      16A     -1.368399    17A     -1.246361    18A     -1.160756
      19A     -1.084021    20A     -1.052303    21A     -1.030565
      22A     -1.022965    23A     -0.959123    24A     -0.897800
      25A     -0.865172    26A     -0.837195    27A     -0.833001
      28A     -0.786984    29A     -0.729732    30A     -0.717825
      31A     -0.681750    32A     -0.654864    33A     -0.638657
      34A     -0.628789    35A     -0.625313    36A     -0.605964
      37A     -0.599573    38A     -0.593598    39A     -0.585677
      40A     -0.576726    41A     -0.563173    42A     -0.543412
      43A     -0.526151    44A     -0.518980    45A     -0.507283
      46A     -0.502687    47A     -0.495171    48A     -0.492855
      49A     -0.474074    50A     -0.459789    51A     -0.450093
      52A     -0.420723    53A     -0.368039    54A     -0.344465
      55A     -0.341745

  @DF-RHF Final Energy:  -631.72838416650779

   => Energetics <=

    Nuclear Repulsion Energy =            998.7049610938266824
    One-Electron Energy =               -2840.6137482107169490
    Two-Electron Energy =                1210.1804029503825859
    Total Energy =                       -631.7283841665077944
  Basis Set: (AUG-CC-PVTZ AUX)
    Blend: AUG-CC-PVTZ-RI
    Molecular point group: c1

    Geometry (in Angstrom), charge = 0, multiplicity = 1:

       Center              X                  Y                   Z               Mass
    ------------   -----------------  -----------------  -----------------  -----------------
         O            0.071322574253     2.118476684660    -0.731638588894    15.994914619570
         N           -0.973713425747     0.188083684660    -0.065039588894    14.003074004430
         C           -2.275977425747     0.796243684660    -0.386627588894    12.000000000000
         C           -3.219628625747    -0.319051215340    -0.845041888894    12.000000000000
         C           -3.320174425747    -1.460084315340     0.177995411106    12.000000000000
         C           -1.924059425747    -2.010914315340     0.461018411106    12.000000000000
         C           -0.999140425747    -0.892617315340     0.923674411106    12.000000000000
         C           -2.798817425747     1.657327684660     0.762493411106    12.000000000000
         C            0.143037574253     0.956416684660    -0.307021588894    12.000000000000
         C            1.480892574253     0.310878684660    -0.114668588894    12.000000000000
         C            1.772953574253    -0.951715315340    -0.648775588894    12.000000000000
         C            2.491789574253     1.055061684660     0.504867411106    12.000000000000
         C            3.062042574253    -1.474577315340    -0.537193588894    12.000000000000
         C            3.774054574253     0.521471684660     0.629573411106    12.000000000000
         C            4.061772574253    -0.743598315340     0.109430411106    12.000000000000
         H           -2.084752425747     1.459345684660    -1.234261588894     1.007825032230
         H           -2.886360425747    -0.706158315340    -1.788347588894     1.007825032230
         H           -4.228228425747     0.125676684660    -1.000749588894     1.007825032230
         H           -3.974076425747    -2.250436315340    -0.208235588894     1.007825032230
         H           -3.770892425747    -1.112677315340     1.116299411106     1.007825032230
         H           -1.959823425747    -2.793914315340     1.228267411106     1.007825032230
         H           -1.510264425747    -2.461330315340    -0.450084588894     1.007825032230
         H           -1.352445425747    -0.502626315340     1.890537411106     1.007825032230
         H            0.017046574253    -1.255245315340     1.076656411106     1.007825032230
         H           -3.738974425747     2.137990684660     0.473031411106     1.007825032230
         H           -2.984999425747     1.075322684660     1.668938411106     1.007825032230
         H           -2.068113425747     2.437898684660     0.987606411106     1.007825032230
         H            0.995160574253    -1.508701315340    -1.167685588894     1.007825032230
         H            2.260852574253     2.050963684660     0.874625411106     1.007825032230
         H            3.289042574253    -2.449575315340    -0.962202588894     1.007825032230
         H            4.554134574253     1.096824684660     1.122510411106     1.007825032230
         H            5.064443574253    -1.154592315340     0.199713411106     1.007825032230

  Basis Set: AUG-CC-PVTZ
    Blend: AUG-CC-PVTZ
  Basis Set: (AUG-CC-PVTZ AUX)
    Blend: AUG-CC-PVTZ-JKFIT
	 Reference Energy          =    -631.7283841665077944 [Eh]
	 Singles Energy            =      -0.0000000000000000 [Eh]
	 Same-Spin Energy          =      -0.6886224266896601 [Eh]
	 Opposite-Spin Energy      =      -2.2116263553029816 [Eh]
	 Correlation Energy        =      -2.9002487819926417 [Eh]
	 Total Energy              =    -634.6286329485004671 [Eh]

	 ================> DF-SCS-MP2 Energies <==================
	-----------------------------------------------------------
	 SCS Same-Spin Scale       =       0.3333333333333333 [-]
	 SCS Opposite-Spin Scale   =       1.2000000000000000 [-]
	 SCS Same-Spin Energy      =      -0.2295408088965534 [Eh]
	 SCS Opposite-Spin Energy  =      -2.6539516263635776 [Eh]
	 SCS Correlation Energy    =      -2.8834924352601310 [Eh]
	 SCS Total Energy          =    -634.6118766017679036 [Eh]
	-----------------------------------------------------------

  Dipole Moment: [D]
     X:    -0.8329      Y:    -3.1276      Z:     1.4571     Total:     3.5495

*** Psi4 exiting successfully. Buy a developer a beer!
