                               Psi4 1.3.2 release

  ==> Input File <==

--------------------------------------------------------------------------
#psi4
#
memory 32 gb

molecule  {
0 1
  O        0.1371160     2.1442200    -0.7498900
  N       -0.9079200     0.2138270    -0.0832910
  C       -2.2101840     0.8219870    -0.4048790
  C       -3.1358669    -0.3006390    -0.8816659
  C       -3.2543810    -1.4343410     0.1597440
  C       -1.8582660    -1.9851710     0.4427670
  C       -0.9333470    -0.8668740     0.9054230
  C       -2.7330240     1.6830710     0.7442420
  C        0.2088310     0.9821600    -0.3252730
  C        1.5466860     0.3366220    -0.1329200
  C        1.8387470    -0.9259720    -0.6670270
  C        2.5575830     1.0808050     0.4866160
  C        3.1278360    -1.4488340    -0.5554450
  C        3.8398480     0.5472150     0.6113220
  C        4.1275660    -0.7178550     0.0911790
  H       -2.0189590     1.4850890    -1.2525130
  H       -2.8205670    -0.6804150    -1.8065990
  H       -4.1624350     0.1514200    -1.0190010
  H       -3.9082830    -2.2246930    -0.2264870
  H       -3.7050990    -1.0869340     1.0980480
  H       -1.8940300    -2.7681710     1.2100160
  H       -1.4444710    -2.4355870    -0.4683360
  H       -1.2866520    -0.4768830     1.8722860
  H        0.0828400    -1.2295020     1.0584050
  H       -3.6731810     2.1637340     0.4547800
  H       -2.9192060     1.1010660     1.6506870
  H       -2.0023200     2.4636420     0.9693550
  H        1.0609540    -1.4829580    -1.1859370
  H        2.3266460     2.0767070     0.8563740
  H        3.3548360    -2.4238320    -0.9804540
  H        4.6199280     1.1225680     1.1042590
  H        5.1302370    -1.1288490     0.1814620
units angstrom
no_reorient  #important for SAPT in psi4, default
symmetry c1  #important for SAPT in psi4, default
}

set PROPERTIES_ORIGIN ["COM"]
properties('MP2/aug-cc-pvtz', properties = ['dipole'])
--------------------------------------------------------------------------

    Molecular point group: c1
  Charge       = 0
  Multiplicity = 1
  Basis Set: AUG-CC-PVTZ
    Blend: AUG-CC-PVTZ
  Basis Set: (AUG-CC-PVTZ AUX)
    Blend: AUG-CC-PVTZ-JKFIT

    Orbital Energies [Eh]
    ---------------------

    Doubly Occupied:

       1A    -20.514081     2A    -15.578447     3A    -11.348622
       4A    -11.264813     5A    -11.257638     6A    -11.250493
       7A    -11.249282     8A    -11.247406     9A    -11.245298
      10A    -11.245046    11A    -11.243032    12A    -11.228823
      13A    -11.226736    14A    -11.222465    15A    -11.211906
      16A     -1.368278    17A     -1.246335    18A     -1.160711
      19A     -1.083295    20A     -1.052207    21A     -1.030352
      22A     -1.022921    23A     -0.959139    24A     -0.898372
      25A     -0.864911    26A     -0.837033    27A     -0.832655
      28A     -0.787377    29A     -0.730636    30A     -0.717755
      31A     -0.681659    32A     -0.655080    33A     -0.638810
      34A     -0.629725    35A     -0.624503    36A     -0.605836
      37A     -0.600308    38A     -0.593683    39A     -0.585003
      40A     -0.575950    41A     -0.561634    42A     -0.543807
      43A     -0.526215    44A     -0.518559    45A     -0.506953
      46A     -0.502534    47A     -0.497369    48A     -0.492956
      49A     -0.477465    50A     -0.457323    51A     -0.448037
      52A     -0.420392    53A     -0.368035    54A     -0.344430
      55A     -0.341687

  @DF-RHF Final Energy:  -631.72587603588636

   => Energetics <=

    Nuclear Repulsion Energy =            998.7474258137174274
    One-Electron Energy =               -2840.6985663912510063
    Two-Electron Energy =                1210.2252645416472205
    Total Energy =                       -631.7258760358863583
  Basis Set: (AUG-CC-PVTZ AUX)
    Blend: AUG-CC-PVTZ-RI
    Molecular point group: c1

    Geometry (in Angstrom), charge = 0, multiplicity = 1:

       Center              X                  Y                   Z               Mass
    ------------   -----------------  -----------------  -----------------  -----------------
         O            0.070261093804     2.118909770668    -0.730553224353    15.994914619570
         N           -0.974774906196     0.188516770668    -0.063954224353    14.003074004430
         C           -2.277038906196     0.796676770668    -0.385542224353    12.000000000000
         C           -3.202721806196    -0.325949229332    -0.862329124353    12.000000000000
         C           -3.321235906196    -1.459651229332     0.179080775647    12.000000000000
         C           -1.925120906196    -2.010481229332     0.462103775647    12.000000000000
         C           -1.000201906196    -0.892184229332     0.924759775647    12.000000000000
         C           -2.799878906196     1.657760770668     0.763578775647    12.000000000000
         C            0.141976093804     0.956849770668    -0.305936224353    12.000000000000
         C            1.479831093804     0.311311770668    -0.113583224353    12.000000000000
         C            1.771892093804    -0.951282229332    -0.647690224353    12.000000000000
         C            2.490728093804     1.055494770668     0.505952775647    12.000000000000
         C            3.060981093804    -1.474144229332    -0.536108224353    12.000000000000
         C            3.772993093804     0.521904770668     0.630658775647    12.000000000000
         C            4.060711093804    -0.743165229332     0.110515775647    12.000000000000
         H           -2.085813906196     1.459778770668    -1.233176224353     1.007825032230
         H           -2.887421906196    -0.705725229332    -1.787262224353     1.007825032230
         H           -4.229289906196     0.126109770668    -0.999664224353     1.007825032230
         H           -3.975137906196    -2.250003229332    -0.207150224353     1.007825032230
         H           -3.771953906196    -1.112244229332     1.117384775647     1.007825032230
         H           -1.960884906196    -2.793481229332     1.229352775647     1.007825032230
         H           -1.511325906196    -2.460897229332    -0.448999224353     1.007825032230
         H           -1.353506906196    -0.502193229332     1.891622775647     1.007825032230
         H            0.015985093804    -1.254812229332     1.077741775647     1.007825032230
         H           -3.740035906196     2.138423770668     0.474116775647     1.007825032230
         H           -2.986060906196     1.075755770668     1.670023775647     1.007825032230
         H           -2.069174906196     2.438331770668     0.988691775647     1.007825032230
         H            0.994099093804    -1.508268229332    -1.166600224353     1.007825032230
         H            2.259791093804     2.051396770668     0.875710775647     1.007825032230
         H            3.287981093804    -2.449142229332    -0.961117224353     1.007825032230
         H            4.553073093804     1.097257770668     1.123595775647     1.007825032230
         H            5.063382093804    -1.154159229332     0.200798775647     1.007825032230

  Basis Set: AUG-CC-PVTZ
    Blend: AUG-CC-PVTZ
  Basis Set: (AUG-CC-PVTZ AUX)
    Blend: AUG-CC-PVTZ-JKFIT
	 Reference Energy          =    -631.7258760358863583 [Eh]
	 Singles Energy            =      -0.0000000000000000 [Eh]
	 Same-Spin Energy          =      -0.6886448659593492 [Eh]
	 Opposite-Spin Energy      =      -2.2117459817878804 [Eh]
	 Correlation Energy        =      -2.9003908477472296 [Eh]
	 Total Energy              =    -634.6262668836335479 [Eh]

	 ================> DF-SCS-MP2 Energies <==================
	-----------------------------------------------------------
	 SCS Same-Spin Scale       =       0.3333333333333333 [-]
	 SCS Opposite-Spin Scale   =       1.2000000000000000 [-]
	 SCS Same-Spin Energy      =      -0.2295482886531164 [Eh]
	 SCS Opposite-Spin Energy  =      -2.6540951781454565 [Eh]
	 SCS Correlation Energy    =      -2.8836434667985729 [Eh]
	 SCS Total Energy          =    -634.6095195026849751 [Eh]
	-----------------------------------------------------------

  Dipole Moment: [D]
     X:    -0.8308      Y:    -3.1255      Z:     1.4538     Total:     3.5458

*** Psi4 exiting successfully. Buy a developer a beer!
