                               Psi4 1.3.2 release

  ==> Input File <==

--------------------------------------------------------------------------
#psi4
#
memory 32 gb

molecule  {
0 1
  N        1.4447430     0.9271060    -0.5600120
  N       -0.8646290     2.1728000     0.5033790
  C       -0.5636592    -0.1461198    -0.0471841
  C        0.8343400    -0.1560850    -0.0228830
  C       -1.4414270     0.9434540     0.1762700
  C       -1.2729090    -1.4294320    -0.3272730
  C       -2.8381000     0.7953410     0.1919050
  C        1.5703020    -1.2114420     0.5410850
  C       -2.6593290    -1.5570310    -0.3269880
  C       -3.4429950    -0.4315550    -0.0645950
  C        2.9613910    -1.1706130     0.5101660
  C        3.5885550    -0.0650650    -0.0636080
  C        2.7882770     0.9583460    -0.5692770
  H       -0.6539860    -2.2940070    -0.5598860
  H       -3.4538380     1.6721500     0.3887520
  H        1.0497850    -2.0407580     1.0110860
  H       -3.1218920    -2.5149200    -0.5495680
  H       -4.5281350    -0.5063600    -0.0566640
  H        3.5458790    -1.9798730     0.9414670
  H        0.0235730     2.3183180     0.0298570
  H       -1.4980030     2.9543290     0.3690670
  H        4.6711930     0.0129590    -0.1060480
  H        3.2359550     1.8482630    -1.0089550
units angstrom
no_reorient  #important for SAPT in psi4, default
symmetry c1  #important for SAPT in psi4, default
}

set PROPERTIES_ORIGIN ["COM"]
properties('MP2/aug-cc-pvtz', properties = ['dipole'])
--------------------------------------------------------------------------

    Molecular point group: c1
  Charge       = 0
  Multiplicity = 1
  Basis Set: AUG-CC-PVTZ
    Blend: AUG-CC-PVTZ
  Basis Set: (AUG-CC-PVTZ AUX)
    Blend: AUG-CC-PVTZ-JKFIT

    Orbital Energies [Eh]
    ---------------------

    Doubly Occupied:

       1A    -15.566474     2A    -15.548725     3A    -11.284663
       4A    -11.283315     5A    -11.280228     6A    -11.263035
       7A    -11.248745     8A    -11.242183     9A    -11.241894
      10A    -11.241536    11A    -11.234985    12A    -11.226874
      13A    -11.223572    14A     -1.264561    15A     -1.213710
      16A     -1.122006    17A     -1.088767    18A     -1.068901
      19A     -0.992219    20A     -0.980214    21A     -0.879783
      22A     -0.865336    23A     -0.817428    24A     -0.795533
      25A     -0.721132    26A     -0.690402    27A     -0.686018
      28A     -0.667135    29A     -0.653127    30A     -0.627094
      31A     -0.599845    32A     -0.594064    33A     -0.579380
      34A     -0.571671    35A     -0.551505    36A     -0.536263
      37A     -0.517874    38A     -0.505862    39A     -0.489696
      40A     -0.442836    41A     -0.422344    42A     -0.389392
      43A     -0.369954    44A     -0.314092    45A     -0.284349

  @DF-RHF Final Energy:  -531.43871886514069

   => Energetics <=

    Nuclear Repulsion Energy =            714.9160455206446159
    One-Electron Energy =               -2138.3320864743400307
    Two-Electron Energy =                 891.9773220885546152
    Total Energy =                       -531.4387188651406859
  Basis Set: (AUG-CC-PVTZ AUX)
    Blend: AUG-CC-PVTZ-RI
    Molecular point group: c1

    Geometry (in Angstrom), charge = 0, multiplicity = 1:

       Center              X                  Y                   Z               Mass
    ------------   -----------------  -----------------  -----------------  -----------------
         N            1.434856427386     0.919864030365    -0.557901749097    14.003074004430
         N           -0.874515572614     2.165558030365     0.505489250903    14.003074004430
         C           -0.573545772614    -0.153361769635    -0.045073849097    12.000000000000
         C            0.824453427386    -0.163326969635    -0.020772749097    12.000000000000
         C           -1.451313572614     0.936212030365     0.178380250903    12.000000000000
         C           -1.282795572614    -1.436673969635    -0.325162749097    12.000000000000
         C           -2.847986572614     0.788099030365     0.194015250903    12.000000000000
         C            1.560415427386    -1.218683969635     0.543195250903    12.000000000000
         C           -2.669215572614    -1.564272969635    -0.324877749097    12.000000000000
         C           -3.452881572614    -0.438796969635    -0.062484749097    12.000000000000
         C            2.951504427386    -1.177854969635     0.512276250903    12.000000000000
         C            3.578668427386    -0.072306969635    -0.061497749097    12.000000000000
         C            2.778390427386     0.951104030365    -0.567166749097    12.000000000000
         H           -0.663872572614    -2.301248969635    -0.557775749097     1.007825032230
         H           -3.463724572614     1.664908030365     0.390862250903     1.007825032230
         H            1.039898427386    -2.047999969635     1.013196250903     1.007825032230
         H           -3.131778572614    -2.522161969635    -0.547457749097     1.007825032230
         H           -4.538021572614    -0.513601969635    -0.054553749097     1.007825032230
         H            3.535992427386    -1.987114969635     0.943577250903     1.007825032230
         H            0.013686427386     2.311076030365     0.031967250903     1.007825032230
         H           -1.507889572614     2.947087030365     0.371177250903     1.007825032230
         H            4.661306427386     0.005717030365    -0.103937749097     1.007825032230
         H            3.226068427386     1.841021030365    -1.006844749097     1.007825032230

  Basis Set: AUG-CC-PVTZ
    Blend: AUG-CC-PVTZ
  Basis Set: (AUG-CC-PVTZ AUX)
    Blend: AUG-CC-PVTZ-JKFIT
	 Reference Energy          =    -531.4387188651406859 [Eh]
	 Singles Energy            =      -0.0000000000000000 [Eh]
	 Same-Spin Energy          =      -0.5977974514983951 [Eh]
	 Opposite-Spin Energy      =      -1.8232186775148802 [Eh]
	 Correlation Energy        =      -2.4210161290132755 [Eh]
	 Total Energy              =    -533.8597349941539960 [Eh]

	 ================> DF-SCS-MP2 Energies <==================
	-----------------------------------------------------------
	 SCS Same-Spin Scale       =       0.3333333333333333 [-]
	 SCS Opposite-Spin Scale   =       1.2000000000000000 [-]
	 SCS Same-Spin Energy      =      -0.1992658171661317 [Eh]
	 SCS Opposite-Spin Energy  =      -2.1878624130178563 [Eh]
	 SCS Correlation Energy    =      -2.3871282301839880 [Eh]
	 SCS Total Energy          =    -533.8258470953246615 [Eh]
	-----------------------------------------------------------

  Dipole Moment: [D]
     X:     1.4083      Y:    -0.4384      Z:     0.0231     Total:     1.4751

*** Psi4 exiting successfully. Buy a developer a beer!
