                               Psi4 1.3.2 release

  ==> Input File <==

--------------------------------------------------------------------------
#psi4
#
memory 32 gb

molecule  {
0 1
  N        1.4447430     0.9271060    -0.5600120
  N       -0.7349433     2.1094995     0.4799252
  C       -0.6433280    -0.2041590    -0.0552500
  C        0.8343400    -0.1560850    -0.0228830
  C       -1.4414270     0.9434540     0.1762700
  C       -1.2729090    -1.4294320    -0.3272730
  C       -2.8381000     0.7953410     0.1919050
  C        1.5703020    -1.2114420     0.5410850
  C       -2.6593290    -1.5570310    -0.3269880
  C       -3.4429950    -0.4315550    -0.0645950
  C        2.9613910    -1.1706130     0.5101660
  C        3.5885550    -0.0650650    -0.0636080
  C        2.7882770     0.9583460    -0.5692770
  H       -0.6539860    -2.2940070    -0.5598860
  H       -3.4538380     1.6721500     0.3887520
  H        1.0497850    -2.0407580     1.0110860
  H       -3.1218920    -2.5149200    -0.5495680
  H       -4.5281350    -0.5063600    -0.0566640
  H        3.5458790    -1.9798730     0.9414670
  H        0.0235730     2.3183180     0.0298570
  H       -1.4980030     2.9543290     0.3690670
  H        4.6711930     0.0129590    -0.1060480
  H        3.2359550     1.8482630    -1.0089550
units angstrom
no_reorient  #important for SAPT in psi4, default
symmetry c1  #important for SAPT in psi4, default
}

set PROPERTIES_ORIGIN ["COM"]
properties('MP2/aug-cc-pvtz', properties = ['dipole'])
--------------------------------------------------------------------------

    Molecular point group: c1
  Charge       = 0
  Multiplicity = 1
  Basis Set: AUG-CC-PVTZ
    Blend: AUG-CC-PVTZ
  Basis Set: (AUG-CC-PVTZ AUX)
    Blend: AUG-CC-PVTZ-JKFIT

    Orbital Energies [Eh]
    ---------------------

    Doubly Occupied:

       1A    -15.566992     2A    -15.553825     3A    -11.288820
       4A    -11.282651     5A    -11.280080     6A    -11.262473
       7A    -11.242117     8A    -11.241623     9A    -11.240125
      10A    -11.238584    11A    -11.232921    12A    -11.228210
      13A    -11.222448    14A     -1.262652    15A     -1.216550
      16A     -1.129611    17A     -1.087950    18A     -1.061063
      19A     -0.999491    20A     -0.983093    21A     -0.872600
      22A     -0.863091    23A     -0.816276    24A     -0.805920
      25A     -0.722201    26A     -0.704691    27A     -0.673752
      28A     -0.662475    29A     -0.652930    30A     -0.628589
      31A     -0.602056    32A     -0.590364    33A     -0.576473
      34A     -0.564682    35A     -0.550631    36A     -0.537296
      37A     -0.519678    38A     -0.503050    39A     -0.490455
      40A     -0.446947    41A     -0.420087    42A     -0.387626
      43A     -0.368036    44A     -0.320057    45A     -0.288557

  @DF-RHF Final Energy:  -531.42335810960253

   => Energetics <=

    Nuclear Repulsion Energy =            716.1961507421846136
    One-Electron Energy =               -2140.8594167172259404
    Two-Electron Energy =                 893.2399078654386813
    Total Energy =                       -531.4233581096025318
  Basis Set: (AUG-CC-PVTZ AUX)
    Blend: AUG-CC-PVTZ-RI
    Molecular point group: c1

    Geometry (in Angstrom), charge = 0, multiplicity = 1:

       Center              X                  Y                   Z               Mass
    ------------   -----------------  -----------------  -----------------  -----------------
         N            1.429800273719     0.929170421790    -0.555401719104    14.003074004430
         N           -0.749886026281     2.111563921790     0.484535480896    14.003074004430
         C           -0.658270726281    -0.202094578210    -0.050639719104    12.000000000000
         C            0.819397273719    -0.154020578210    -0.018272719104    12.000000000000
         C           -1.456369726281     0.945518421790     0.180880280896    12.000000000000
         C           -1.287851726281    -1.427367578210    -0.322662719104    12.000000000000
         C           -2.853042726281     0.797405421790     0.196515280896    12.000000000000
         C            1.555359273719    -1.209377578210     0.545695280896    12.000000000000
         C           -2.674271726281    -1.554966578210    -0.322377719104    12.000000000000
         C           -3.457937726281    -0.429490578210    -0.059984719104    12.000000000000
         C            2.946448273719    -1.168548578210     0.514776280896    12.000000000000
         C            3.573612273719    -0.063000578210    -0.058997719104    12.000000000000
         C            2.773334273719     0.960410421790    -0.564666719104    12.000000000000
         H           -0.668928726281    -2.291942578210    -0.555275719104     1.007825032230
         H           -3.468780726281     1.674214421790     0.393362280896     1.007825032230
         H            1.034842273719    -2.038693578210     1.015696280896     1.007825032230
         H           -3.136834726281    -2.512855578210    -0.544957719104     1.007825032230
         H           -4.543077726281    -0.504295578210    -0.052053719104     1.007825032230
         H            3.530936273719    -1.977808578210     0.946077280896     1.007825032230
         H            0.008630273719     2.320382421790     0.034467280896     1.007825032230
         H           -1.512945726281     2.956393421790     0.373677280896     1.007825032230
         H            4.656250273719     0.015023421790    -0.101437719104     1.007825032230
         H            3.221012273719     1.850327421790    -1.004344719104     1.007825032230

  Basis Set: AUG-CC-PVTZ
    Blend: AUG-CC-PVTZ
  Basis Set: (AUG-CC-PVTZ AUX)
    Blend: AUG-CC-PVTZ-JKFIT
	 Reference Energy          =    -531.4233581096025318 [Eh]
	 Singles Energy            =      -0.0000000000000000 [Eh]
	 Same-Spin Energy          =      -0.5970681373431472 [Eh]
	 Opposite-Spin Energy      =      -1.8225984428789670 [Eh]
	 Correlation Energy        =      -2.4196665802221142 [Eh]
	 Total Energy              =    -533.8430246898246878 [Eh]

	 ================> DF-SCS-MP2 Energies <==================
	-----------------------------------------------------------
	 SCS Same-Spin Scale       =       0.3333333333333333 [-]
	 SCS Opposite-Spin Scale   =       1.2000000000000000 [-]
	 SCS Same-Spin Energy      =      -0.1990227124477157 [Eh]
	 SCS Opposite-Spin Energy  =      -2.1871181314547603 [Eh]
	 SCS Correlation Energy    =      -2.3861408439024760 [Eh]
	 SCS Total Energy          =    -533.8094989535049990 [Eh]
	-----------------------------------------------------------

  Dipole Moment: [D]
     X:     1.3415      Y:    -0.4234      Z:     0.0275     Total:     1.4070

*** Psi4 exiting successfully. Buy a developer a beer!
