                               Psi4 1.3.2 release

  ==> Input File <==

--------------------------------------------------------------------------
#psi4
#
memory 32 gb

molecule  {
0 1
  N        1.4447430     0.9271060    -0.5600120
  N       -0.8646290     2.1728000     0.5033790
  C       -0.6230308    -0.1901628    -0.0533378
  C        0.8343400    -0.1560850    -0.0228830
  C       -1.4414270     0.9434540     0.1762700
  C       -1.2729090    -1.4294320    -0.3272730
  C       -2.8381000     0.7953410     0.1919050
  C        1.5703020    -1.2114420     0.5410850
  C       -2.6593290    -1.5570310    -0.3269880
  C       -3.4429950    -0.4315550    -0.0645950
  C        2.9613910    -1.1706130     0.5101660
  C        3.5885550    -0.0650650    -0.0636080
  C        2.7882770     0.9583460    -0.5692770
  H       -0.6539860    -2.2940070    -0.5598860
  H       -3.4538380     1.6721500     0.3887520
  H        1.0497850    -2.0407580     1.0110860
  H       -3.1218920    -2.5149200    -0.5495680
  H       -4.5281350    -0.5063600    -0.0566640
  H        3.5458790    -1.9798730     0.9414670
  H        0.0235730     2.3183180     0.0298570
  H       -1.4980030     2.9543290     0.3690670
  H        4.6711930     0.0129590    -0.1060480
  H        3.2359550     1.8482630    -1.0089550
units angstrom
no_reorient  #important for SAPT in psi4, default
symmetry c1  #important for SAPT in psi4, default
}

set PROPERTIES_ORIGIN ["COM"]
properties('MP2/aug-cc-pvtz', properties = ['dipole'])
--------------------------------------------------------------------------

    Molecular point group: c1
  Charge       = 0
  Multiplicity = 1
  Basis Set: AUG-CC-PVTZ
    Blend: AUG-CC-PVTZ
  Basis Set: (AUG-CC-PVTZ AUX)
    Blend: AUG-CC-PVTZ-JKFIT

    Orbital Energies [Eh]
    ---------------------

    Doubly Occupied:

       1A    -15.568339     2A    -15.550431     3A    -11.288882
       4A    -11.281370     5A    -11.281168     6A    -11.263422
       7A    -11.242490     8A    -11.242025     9A    -11.241677
      10A    -11.239144    11A    -11.234694    12A    -11.224640
      13A    -11.221776    14A     -1.263004    15A     -1.213860
      16A     -1.126161    17A     -1.088971    18A     -1.063181
      19A     -0.996196    20A     -0.980661    21A     -0.873594
      22A     -0.864784    23A     -0.816915    24A     -0.799484
      25A     -0.719214    26A     -0.690555    27A     -0.685192
      28A     -0.664398    29A     -0.653334    30A     -0.627222
      31A     -0.596662    32A     -0.592798    33A     -0.583652
      34A     -0.574317    35A     -0.550886    36A     -0.536577
      37A     -0.519496    38A     -0.500359    39A     -0.495733
      40A     -0.444537    41A     -0.421430    42A     -0.389137
      43A     -0.369002    44A     -0.317615    45A     -0.286328

  @DF-RHF Final Energy:  -531.45207780176122

   => Energetics <=

    Nuclear Repulsion Energy =            714.6926734103691388
    One-Electron Energy =               -2137.9188737301874426
    Two-Electron Energy =                 891.7741225180571973
    Total Energy =                       -531.4520778017612201
  Basis Set: (AUG-CC-PVTZ AUX)
    Blend: AUG-CC-PVTZ-RI
    Molecular point group: c1

    Geometry (in Angstrom), charge = 0, multiplicity = 1:

       Center              X                  Y                   Z               Mass
    ------------   -----------------  -----------------  -----------------  -----------------
         N            1.439045284254     0.922971405323    -0.557467585818    14.003074004430
         N           -0.870326715746     2.168665405323     0.505923414182    14.003074004430
         C           -0.628728515746    -0.194297394677    -0.050793385818    12.000000000000
         C            0.828642284254    -0.160219594677    -0.020338585818    12.000000000000
         C           -1.447124715746     0.939319405323     0.178814414182    12.000000000000
         C           -1.278606715746    -1.433566594677    -0.324728585818    12.000000000000
         C           -2.843797715746     0.791206405323     0.194449414182    12.000000000000
         C            1.564604284254    -1.215576594677     0.543629414182    12.000000000000
         C           -2.665026715746    -1.561165594677    -0.324443585818    12.000000000000
         C           -3.448692715746    -0.435689594677    -0.062050585818    12.000000000000
         C            2.955693284254    -1.174747594677     0.512710414182    12.000000000000
         C            3.582857284254    -0.069199594677    -0.061063585818    12.000000000000
         C            2.782579284254     0.954211405323    -0.566732585818    12.000000000000
         H           -0.659683715746    -2.298141594677    -0.557341585818     1.007825032230
         H           -3.459535715746     1.668015405323     0.391296414182     1.007825032230
         H            1.044087284254    -2.044892594677     1.013630414182     1.007825032230
         H           -3.127589715746    -2.519054594677    -0.547023585818     1.007825032230
         H           -4.533832715746    -0.510494594677    -0.054119585818     1.007825032230
         H            3.540181284254    -1.984007594677     0.944011414182     1.007825032230
         H            0.017875284254     2.314183405323     0.032401414182     1.007825032230
         H           -1.503700715746     2.950194405323     0.371611414182     1.007825032230
         H            4.665495284254     0.008824405323    -0.103503585818     1.007825032230
         H            3.230257284254     1.844128405323    -1.006410585818     1.007825032230

  Basis Set: AUG-CC-PVTZ
    Blend: AUG-CC-PVTZ
  Basis Set: (AUG-CC-PVTZ AUX)
    Blend: AUG-CC-PVTZ-JKFIT
	 Reference Energy          =    -531.4520778017612201 [Eh]
	 Singles Energy            =      -0.0000000000000000 [Eh]
	 Same-Spin Energy          =      -0.5967668178759394 [Eh]
	 Opposite-Spin Energy      =      -1.8212355433831449 [Eh]
	 Correlation Energy        =      -2.4180023612590844 [Eh]
	 Total Energy              =    -533.8700801630202477 [Eh]

	 ================> DF-SCS-MP2 Energies <==================
	-----------------------------------------------------------
	 SCS Same-Spin Scale       =       0.3333333333333333 [-]
	 SCS Opposite-Spin Scale   =       1.2000000000000000 [-]
	 SCS Same-Spin Energy      =      -0.1989222726253131 [Eh]
	 SCS Opposite-Spin Energy  =      -2.1854826520597737 [Eh]
	 SCS Correlation Energy    =      -2.3844049246850867 [Eh]
	 SCS Total Energy          =    -533.8364827264463202 [Eh]
	-----------------------------------------------------------

  Dipole Moment: [D]
     X:     1.4991      Y:    -0.4249      Z:     0.0164     Total:     1.5582

*** Psi4 exiting successfully. Buy a developer a beer!
