                               Psi4 1.4a3.dev225

  ==> Input File <==

--------------------------------------------------------------------------
#psi4
#
memory 32 gb

molecule  {
0 1
  N        1.4447430     0.9271060    -0.5600120
  N       -0.8646290     2.1728000     0.5033790
  C       -0.6433280    -0.2041590    -0.0552500
  C        0.8433536    -0.1400899    -0.0308146
  C       -1.4414270     0.9434540     0.1762700
  C       -1.2729090    -1.4294320    -0.3272730
  C       -2.8381000     0.7953410     0.1919050
  C        1.5703020    -1.2114420     0.5410850
  C       -2.6593290    -1.5570310    -0.3269880
  C       -3.4429950    -0.4315550    -0.0645950
  C        2.9613910    -1.1706130     0.5101660
  C        3.5885550    -0.0650650    -0.0636080
  C        2.7882770     0.9583460    -0.5692770
  H       -0.6539860    -2.2940070    -0.5598860
  H       -3.4538380     1.6721500     0.3887520
  H        1.0497850    -2.0407580     1.0110860
  H       -3.1218920    -2.5149200    -0.5495680
  H       -4.5281350    -0.5063600    -0.0566640
  H        3.5458790    -1.9798730     0.9414670
  H        0.0235730     2.3183180     0.0298570
  H       -1.4980030     2.9543290     0.3690670
  H        4.6711930     0.0129590    -0.1060480
  H        3.2359550     1.8482630    -1.0089550
units angstrom
no_reorient  #important for SAPT in psi4, default
symmetry c1  #important for SAPT in psi4, default
}

set PROPERTIES_ORIGIN ["COM"]
properties('MP2/aug-cc-pvtz', properties = ['dipole'])
--------------------------------------------------------------------------

    Molecular point group: c1
  Charge       = 0
  Multiplicity = 1
  Basis Set: AUG-CC-PVTZ
    Blend: AUG-CC-PVTZ
  Basis Set: (AUG-CC-PVTZ AUX)
    Blend: AUG-CC-PVTZ-JKFIT

    Orbital Energies [Eh]
    ---------------------

    Doubly Occupied:

       1A    -15.568024     2A    -15.551043     3A    -11.290325
       4A    -11.281471     5A    -11.280329     6A    -11.263102
       7A    -11.243018     8A    -11.242861     9A    -11.239113
      10A    -11.237890    11A    -11.234736    12A    -11.223719
      13A    -11.221164    14A     -1.267536    15A     -1.214188
      16A     -1.127414    17A     -1.090124    18A     -1.059702
      19A     -0.997628    20A     -0.980331    21A     -0.871856
      22A     -0.864200    23A     -0.817448    24A     -0.800411
      25A     -0.718682    26A     -0.691252    27A     -0.684674
      28A     -0.662639    29A     -0.654964    30A     -0.626955
      31A     -0.594821    32A     -0.591723    33A     -0.586018
      34A     -0.574624    35A     -0.552407    36A     -0.536569
      37A     -0.520910    38A     -0.501859    39A     -0.493595
      40A     -0.445093    41A     -0.420212    42A     -0.391140
      43A     -0.366796    44A     -0.319217    45A     -0.286771

  @DF-RHF Final Energy:  -531.45394352440758

   => Energetics <=

    Nuclear Repulsion Energy =            714.7046485091083241
    One-Electron Energy =               -2137.9400786254136619
    Two-Electron Energy =                 891.7814865918978740
    Total Energy =                       -531.4539435244075776
  Basis Set: (AUG-CC-PVTZ AUX)
    Blend: AUG-CC-PVTZ-RI
    Molecular point group: c1

    Geometry (in Angstrom), charge = 0, multiplicity = 1:

       Center              X                  Y                   Z               Mass
    ------------   -----------------  -----------------  -----------------  -----------------
         N            1.439841378436     0.922830376514    -0.556773074146    14.003074004430
         N           -0.869530621564     2.168524376514     0.506617925854    14.003074004430
         C           -0.648229621564    -0.208434623486    -0.052011074146    12.000000000000
         C            0.838451978436    -0.144365523486    -0.027575674146    12.000000000000
         C           -1.446328621564     0.939178376514     0.179508925854    12.000000000000
         C           -1.277810621564    -1.433707623486    -0.324034074146    12.000000000000
         C           -2.843001621564     0.791065376514     0.195143925854    12.000000000000
         C            1.565400378436    -1.215717623486     0.544323925854    12.000000000000
         C           -2.664230621564    -1.561306623486    -0.323749074146    12.000000000000
         C           -3.447896621564    -0.435830623486    -0.061356074146    12.000000000000
         C            2.956489378436    -1.174888623486     0.513404925854    12.000000000000
         C            3.583653378436    -0.069340623486    -0.060369074146    12.000000000000
         C            2.783375378436     0.954070376514    -0.566038074146    12.000000000000
         H           -0.658887621564    -2.298282623486    -0.556647074146     1.007825032230
         H           -3.458739621564     1.667874376514     0.391990925854     1.007825032230
         H            1.044883378436    -2.045033623486     1.014324925854     1.007825032230
         H           -3.126793621564    -2.519195623486    -0.546329074146     1.007825032230
         H           -4.533036621564    -0.510635623486    -0.053425074146     1.007825032230
         H            3.540977378436    -1.984148623486     0.944705925854     1.007825032230
         H            0.018671378436     2.314042376514     0.033095925854     1.007825032230
         H           -1.502904621564     2.950053376514     0.372305925854     1.007825032230
         H            4.666291378436     0.008683376514    -0.102809074146     1.007825032230
         H            3.231053378436     1.843987376514    -1.005716074146     1.007825032230

  Basis Set: AUG-CC-PVTZ
    Blend: AUG-CC-PVTZ
  Basis Set: (AUG-CC-PVTZ AUX)
    Blend: AUG-CC-PVTZ-JKFIT
	 Reference Energy          =    -531.4539435244075776 [Eh]
	 Singles Energy            =      -0.0000000000000000 [Eh]
	 Same-Spin Energy          =      -0.5962204035230473 [Eh]
	 Opposite-Spin Energy      =      -1.8202452509770977 [Eh]
	 Correlation Energy        =      -2.4164656545001448 [Eh]
	 Total Energy              =    -533.8704091789077211 [Eh]

	 ================> DF-SCS-MP2 Energies <==================
	-----------------------------------------------------------
	 SCS Same-Spin Scale       =       0.3333333333333333 [-]
	 SCS Opposite-Spin Scale   =       1.2000000000000000 [-]
	 SCS Same-Spin Energy      =      -0.1987401345076824 [Eh]
	 SCS Opposite-Spin Energy  =      -2.1842943011725171 [Eh]
	 SCS Correlation Energy    =      -2.3830344356801993 [Eh]
	 SCS Total Energy          =    -533.8369779600877791 [Eh]
	-----------------------------------------------------------

  Dipole Moment: [D]
     X:     1.5512      Y:    -0.4163      Z:     0.0088     Total:     1.6061

*** Psi4 exiting successfully. Buy a developer a beer!
