                               Psi4 1.3.2 release

  ==> Input File <==

--------------------------------------------------------------------------
#psi4
#
memory 32 gb

molecule  {
0 1
  N        1.4447430     0.9271060    -0.5600120
  N       -0.8868972     2.1820572     0.5069459
  C       -0.6433280    -0.2041590    -0.0552500
  C        0.8343400    -0.1560850    -0.0228830
  C       -1.4414270     0.9434540     0.1762700
  C       -1.2729090    -1.4294320    -0.3272730
  C       -2.8381000     0.7953410     0.1919050
  C        1.5703020    -1.2114420     0.5410850
  C       -2.6593290    -1.5570310    -0.3269880
  C       -3.4429950    -0.4315550    -0.0645950
  C        2.9613910    -1.1706130     0.5101660
  C        3.5885550    -0.0650650    -0.0636080
  C        2.7882770     0.9583460    -0.5692770
  H       -0.6539860    -2.2940070    -0.5598860
  H       -3.4538380     1.6721500     0.3887520
  H        1.0497850    -2.0407580     1.0110860
  H       -3.1218920    -2.5149200    -0.5495680
  H       -4.5281350    -0.5063600    -0.0566640
  H        3.5458790    -1.9798730     0.9414670
  H        0.0235730     2.3183180     0.0298570
  H       -1.4980030     2.9543290     0.3690670
  H        4.6711930     0.0129590    -0.1060480
  H        3.2359550     1.8482630    -1.0089550
units angstrom
no_reorient  #important for SAPT in psi4, default
symmetry c1  #important for SAPT in psi4, default
}

set PROPERTIES_ORIGIN ["COM"]
properties('MP2/aug-cc-pvtz', properties = ['dipole'])
--------------------------------------------------------------------------

    Molecular point group: c1
  Charge       = 0
  Multiplicity = 1
  Basis Set: AUG-CC-PVTZ
    Blend: AUG-CC-PVTZ
  Basis Set: (AUG-CC-PVTZ AUX)
    Blend: AUG-CC-PVTZ-JKFIT

    Orbital Energies [Eh]
    ---------------------

    Doubly Occupied:

       1A    -15.569225     2A    -15.550508     3A    -11.290334
       4A    -11.281670     5A    -11.280929     6A    -11.263704
       7A    -11.242859     8A    -11.242124     9A    -11.239327
      10A    -11.237905    11A    -11.234978    12A    -11.223365
      13A    -11.221134    14A     -1.262658    15A     -1.214146
      16A     -1.127982    17A     -1.089230    18A     -1.061500
      19A     -0.997653    20A     -0.980753    21A     -0.871513
      22A     -0.864870    23A     -0.817561    24A     -0.800338
      25A     -0.718982    26A     -0.688615    27A     -0.687911
      28A     -0.664189    29A     -0.651993    30A     -0.627582
      31A     -0.595320    32A     -0.591892    33A     -0.587196
      34A     -0.573969    35A     -0.550783    36A     -0.536551
      37A     -0.520211    38A     -0.501265    39A     -0.493882
      40A     -0.445073    41A     -0.420964    42A     -0.389266
      43A     -0.368825    44A     -0.319047    45A     -0.286467

  @DF-RHF Final Energy:  -531.45276554479960

   => Energetics <=

    Nuclear Repulsion Energy =            714.4177420697346861
    One-Electron Energy =               -2137.3685167329654178
    Two-Electron Energy =                 891.4980091184311277
    Total Energy =                       -531.4527655447996040
  Basis Set: (AUG-CC-PVTZ AUX)
    Blend: AUG-CC-PVTZ-RI
    Molecular point group: c1

    Geometry (in Angstrom), charge = 0, multiplicity = 1:

       Center              X                  Y                   Z               Mass
    ------------   -----------------  -----------------  -----------------  -----------------
         N            1.442310661078     0.923196735475    -0.557626337385    14.003074004430
         N           -0.889329538922     2.178147935475     0.509331562615    14.003074004430
         C           -0.645760338922    -0.208068264525    -0.052864337385    12.000000000000
         C            0.831907661078    -0.159994264525    -0.020497337385    12.000000000000
         C           -1.443859338922     0.939544735475     0.178655662615    12.000000000000
         C           -1.275341338922    -1.433341264525    -0.324887337385    12.000000000000
         C           -2.840532338922     0.791431735475     0.194290662615    12.000000000000
         C            1.567869661078    -1.215351264525     0.543470662615    12.000000000000
         C           -2.661761338922    -1.560940264525    -0.324602337385    12.000000000000
         C           -3.445427338922    -0.435464264525    -0.062209337385    12.000000000000
         C            2.958958661078    -1.174522264525     0.512551662615    12.000000000000
         C            3.586122661078    -0.068974264525    -0.061222337385    12.000000000000
         C            2.785844661078     0.954436735475    -0.566891337385    12.000000000000
         H           -0.656418338922    -2.297916264525    -0.557500337385     1.007825032230
         H           -3.456270338922     1.668240735475     0.391137662615     1.007825032230
         H            1.047352661078    -2.044667264525     1.013471662615     1.007825032230
         H           -3.124324338922    -2.518829264525    -0.547182337385     1.007825032230
         H           -4.530567338922    -0.510269264525    -0.054278337385     1.007825032230
         H            3.543446661078    -1.983782264525     0.943852662615     1.007825032230
         H            0.021140661078     2.314408735475     0.032242662615     1.007825032230
         H           -1.500435338922     2.950419735475     0.371452662615     1.007825032230
         H            4.668760661078     0.009049735475    -0.103662337385     1.007825032230
         H            3.233522661078     1.844353735475    -1.006569337385     1.007825032230

  Basis Set: AUG-CC-PVTZ
    Blend: AUG-CC-PVTZ
  Basis Set: (AUG-CC-PVTZ AUX)
    Blend: AUG-CC-PVTZ-JKFIT
	 Reference Energy          =    -531.4527655447996040 [Eh]
	 Singles Energy            =      -0.0000000000000000 [Eh]
	 Same-Spin Energy          =      -0.5965102188787674 [Eh]
	 Opposite-Spin Energy      =      -1.8207537650019567 [Eh]
	 Correlation Energy        =      -2.4172639838807242 [Eh]
	 Total Energy              =    -533.8700295286803339 [Eh]

	 ================> DF-SCS-MP2 Energies <==================
	-----------------------------------------------------------
	 SCS Same-Spin Scale       =       0.3333333333333333 [-]
	 SCS Opposite-Spin Scale   =       1.2000000000000000 [-]
	 SCS Same-Spin Energy      =      -0.1988367396262558 [Eh]
	 SCS Opposite-Spin Energy  =      -2.1849045180023481 [Eh]
	 SCS Correlation Energy    =      -2.3837412576286039 [Eh]
	 SCS Total Energy          =    -533.8365068024281754 [Eh]
	-----------------------------------------------------------

  Dipole Moment: [D]
     X:     1.5595      Y:    -0.4311      Z:     0.0087     Total:     1.6180

*** Psi4 exiting successfully. Buy a developer a beer!
