                               Psi4 1.3.2 release

  ==> Input File <==

--------------------------------------------------------------------------
#psi4
#
memory 32 gb

molecule  {
0 1
  N        1.4447430     0.9271060    -0.5600120
  N       -0.8646290     2.1728000     0.5033790
  C       -0.6433280    -0.2041590    -0.0552500
  C        0.8343400    -0.1560850    -0.0228830
  C       -1.3578327     0.9948331     0.1886354
  C       -1.2729090    -1.4294320    -0.3272730
  C       -2.8381000     0.7953410     0.1919050
  C        1.5703020    -1.2114420     0.5410850
  C       -2.6593290    -1.5570310    -0.3269880
  C       -3.4429950    -0.4315550    -0.0645950
  C        2.9613910    -1.1706130     0.5101660
  C        3.5885550    -0.0650650    -0.0636080
  C        2.7882770     0.9583460    -0.5692770
  H       -0.6539860    -2.2940070    -0.5598860
  H       -3.4538380     1.6721500     0.3887520
  H        1.0497850    -2.0407580     1.0110860
  H       -3.1218920    -2.5149200    -0.5495680
  H       -4.5281350    -0.5063600    -0.0566640
  H        3.5458790    -1.9798730     0.9414670
  H        0.0235730     2.3183180     0.0298570
  H       -1.4980030     2.9543290     0.3690670
  H        4.6711930     0.0129590    -0.1060480
  H        3.2359550     1.8482630    -1.0089550
units angstrom
no_reorient  #important for SAPT in psi4, default
symmetry c1  #important for SAPT in psi4, default
}

set PROPERTIES_ORIGIN ["COM"]
properties('MP2/aug-cc-pvtz', properties = ['dipole'])
--------------------------------------------------------------------------

    Molecular point group: c1
  Charge       = 0
  Multiplicity = 1
  Basis Set: AUG-CC-PVTZ
    Blend: AUG-CC-PVTZ
  Basis Set: (AUG-CC-PVTZ AUX)
    Blend: AUG-CC-PVTZ-JKFIT

    Orbital Energies [Eh]
    ---------------------

    Doubly Occupied:

       1A    -15.567672     2A    -15.562610     3A    -11.289568
       4A    -11.286876     5A    -11.280894     6A    -11.262302
       7A    -11.240877     8A    -11.239307     9A    -11.237942
      10A    -11.235769    11A    -11.229675    12A    -11.228569
      13A    -11.216229    14A     -1.266465    15A     -1.242582
      16A     -1.125827    17A     -1.087752    18A     -1.058256
      19A     -0.991682    20A     -0.973732    21A     -0.867368
      22A     -0.863256    23A     -0.819513    24A     -0.797855
      25A     -0.717388    26A     -0.699685    27A     -0.697415
      28A     -0.663946    29A     -0.656159    30A     -0.634215
      31A     -0.596242    32A     -0.588555    33A     -0.579306
      34A     -0.573685    35A     -0.550000    36A     -0.537960
      37A     -0.523785    38A     -0.505150    39A     -0.480694
      40A     -0.452642    41A     -0.418869    42A     -0.388256
      43A     -0.367344    44A     -0.315891    45A     -0.276274

  @DF-RHF Final Energy:  -531.44000887820482

   => Energetics <=

    Nuclear Repulsion Energy =            714.7944986015111226
    One-Electron Energy =               -2138.0769324519415022
    Two-Electron Energy =                 891.8424249722255581
    Total Energy =                       -531.4400088782048215
  Basis Set: (AUG-CC-PVTZ AUX)
    Blend: AUG-CC-PVTZ-RI
    Molecular point group: c1

    Geometry (in Angstrom), charge = 0, multiplicity = 1:

       Center              X                  Y                   Z               Mass
    ------------   -----------------  -----------------  -----------------  -----------------
         N            1.434579470767     0.920333921789    -0.558205092616    14.003074004430
         N           -0.874792529233     2.166027921789     0.505185907384    14.003074004430
         C           -0.653491529233    -0.210931078211    -0.053443092616    12.000000000000
         C            0.824176470767    -0.162857078211    -0.021076092616    12.000000000000
         C           -1.367996229233     0.988061021789     0.190442307384    12.000000000000
         C           -1.283072529233    -1.436204078211    -0.325466092616    12.000000000000
         C           -2.848263529233     0.788568921789     0.193711907384    12.000000000000
         C            1.560138470767    -1.218214078211     0.542891907384    12.000000000000
         C           -2.669492529233    -1.563803078211    -0.325181092616    12.000000000000
         C           -3.453158529233    -0.438327078211    -0.062788092616    12.000000000000
         C            2.951227470767    -1.177385078211     0.511972907384    12.000000000000
         C            3.578391470767    -0.071837078211    -0.061801092616    12.000000000000
         C            2.778113470767     0.951573921789    -0.567470092616    12.000000000000
         H           -0.664149529233    -2.300779078211    -0.558079092616     1.007825032230
         H           -3.464001529233     1.665377921789     0.390558907384     1.007825032230
         H            1.039621470767    -2.047530078211     1.012892907384     1.007825032230
         H           -3.132055529233    -2.521692078211    -0.547761092616     1.007825032230
         H           -4.538298529233    -0.513132078211    -0.054857092616     1.007825032230
         H            3.535715470767    -1.986645078211     0.943273907384     1.007825032230
         H            0.013409470767     2.311545921789     0.031663907384     1.007825032230
         H           -1.508166529233     2.947556921789     0.370873907384     1.007825032230
         H            4.661029470767     0.006186921789    -0.104241092616     1.007825032230
         H            3.225791470767     1.841490921789    -1.007148092616     1.007825032230

  Basis Set: AUG-CC-PVTZ
    Blend: AUG-CC-PVTZ
  Basis Set: (AUG-CC-PVTZ AUX)
    Blend: AUG-CC-PVTZ-JKFIT
	 Reference Energy          =    -531.4400088782048215 [Eh]
	 Singles Energy            =      -0.0000000000000000 [Eh]
	 Same-Spin Energy          =      -0.5971207663498315 [Eh]
	 Opposite-Spin Energy      =      -1.8216316621711028 [Eh]
	 Correlation Energy        =      -2.4187524285209343 [Eh]
	 Total Energy              =    -533.8587613067257962 [Eh]

	 ================> DF-SCS-MP2 Energies <==================
	-----------------------------------------------------------
	 SCS Same-Spin Scale       =       0.3333333333333333 [-]
	 SCS Opposite-Spin Scale   =       1.2000000000000000 [-]
	 SCS Same-Spin Energy      =      -0.1990402554499438 [Eh]
	 SCS Opposite-Spin Energy  =      -2.1859579946053231 [Eh]
	 SCS Correlation Energy    =      -2.3849982500552671 [Eh]
	 SCS Total Energy          =    -533.8250071282600402 [Eh]
	-----------------------------------------------------------

  Dipole Moment: [D]
     X:     1.6321      Y:     0.0943      Z:     0.1490     Total:     1.6416

*** Psi4 exiting successfully. Buy a developer a beer!
