                               Psi4 1.3.2 release

  ==> Input File <==

--------------------------------------------------------------------------
#psi4
#
memory 32 gb

molecule  {
0 1
  N        1.4447430     0.9271060    -0.5600120
  N       -0.8646290     2.1728000     0.5033790
  C       -0.6433280    -0.2041590    -0.0552500
  C        0.8350528    -0.1813252    -0.0282276
  C       -1.4414270     0.9434540     0.1762700
  C       -1.2729090    -1.4294320    -0.3272730
  C       -2.8381000     0.7953410     0.1919050
  C        1.5703020    -1.2114420     0.5410850
  C       -2.6593290    -1.5570310    -0.3269880
  C       -3.4429950    -0.4315550    -0.0645950
  C        2.9613910    -1.1706130     0.5101660
  C        3.5885550    -0.0650650    -0.0636080
  C        2.7882770     0.9583460    -0.5692770
  H       -0.6539860    -2.2940070    -0.5598860
  H       -3.4538380     1.6721500     0.3887520
  H        1.0497850    -2.0407580     1.0110860
  H       -3.1218920    -2.5149200    -0.5495680
  H       -4.5281350    -0.5063600    -0.0566640
  H        3.5458790    -1.9798730     0.9414670
  H        0.0235730     2.3183180     0.0298570
  H       -1.4980030     2.9543290     0.3690670
  H        4.6711930     0.0129590    -0.1060480
  H        3.2359550     1.8482630    -1.0089550
units angstrom
no_reorient  #important for SAPT in psi4, default
symmetry c1  #important for SAPT in psi4, default
}

set PROPERTIES_ORIGIN ["COM"]
properties('MP2/aug-cc-pvtz', properties = ['dipole'])
--------------------------------------------------------------------------

    Molecular point group: c1
  Charge       = 0
  Multiplicity = 1
  Basis Set: AUG-CC-PVTZ
    Blend: AUG-CC-PVTZ
  Basis Set: (AUG-CC-PVTZ AUX)
    Blend: AUG-CC-PVTZ-JKFIT

    Orbital Energies [Eh]
    ---------------------

    Doubly Occupied:

       1A    -15.569841     2A    -15.550739     3A    -11.289317
       4A    -11.281652     5A    -11.281166     6A    -11.264237
       7A    -11.242829     8A    -11.240558     9A    -11.238611
      10A    -11.238026    11A    -11.234606    12A    -11.223957
      13A    -11.220906    14A     -1.258935    15A     -1.213504
      16A     -1.127920    17A     -1.088806    18A     -1.062586
      19A     -0.998019    20A     -0.980648    21A     -0.870916
      22A     -0.865263    23A     -0.816304    24A     -0.800896
      25A     -0.718858    26A     -0.689726    27A     -0.684964
      28A     -0.664168    29A     -0.651894    30A     -0.627616
      31A     -0.596256    32A     -0.592760    33A     -0.586067
      34A     -0.573740    35A     -0.549730    36A     -0.536519
      37A     -0.519437    38A     -0.500154    39A     -0.493299
      40A     -0.445065    41A     -0.422518    42A     -0.386960
      43A     -0.370912    44A     -0.319216    45A     -0.286520

  @DF-RHF Final Energy:  -531.45233868342996

   => Energetics <=

    Nuclear Repulsion Energy =            714.5459894827621383
    One-Electron Energy =               -2137.6434153742384296
    Two-Electron Energy =                 891.6450872080462204
    Total Energy =                       -531.4523386834299572
  Basis Set: (AUG-CC-PVTZ AUX)
    Blend: AUG-CC-PVTZ-RI
    Molecular point group: c1

    Geometry (in Angstrom), charge = 0, multiplicity = 1:

       Center              X                  Y                   Z               Mass
    ------------   -----------------  -----------------  -----------------  -----------------
         N            1.440427026508     0.925739659229    -0.556955595296    14.003074004430
         N           -0.868944973492     2.171433659229     0.506435404704    14.003074004430
         C           -0.647643973492    -0.205525340771    -0.052193595296    12.000000000000
         C            0.830736826508    -0.182691540771    -0.025171195296    12.000000000000
         C           -1.445742973492     0.942087659229     0.179326404704    12.000000000000
         C           -1.277224973492    -1.430798340771    -0.324216595296    12.000000000000
         C           -2.842415973492     0.793974659229     0.194961404704    12.000000000000
         C            1.565986026508    -1.212808340771     0.544141404704    12.000000000000
         C           -2.663644973492    -1.558397340771    -0.323931595296    12.000000000000
         C           -3.447310973492    -0.432921340771    -0.061538595296    12.000000000000
         C            2.957075026508    -1.171979340771     0.513222404704    12.000000000000
         C            3.584239026508    -0.066431340771    -0.060551595296    12.000000000000
         C            2.783961026508     0.956979659229    -0.566220595296    12.000000000000
         H           -0.658301973492    -2.295373340771    -0.556829595296     1.007825032230
         H           -3.458153973492     1.670783659229     0.391808404704     1.007825032230
         H            1.045469026508    -2.042124340771     1.014142404704     1.007825032230
         H           -3.126207973492    -2.516286340771    -0.546511595296     1.007825032230
         H           -4.532450973492    -0.507726340771    -0.053607595296     1.007825032230
         H            3.541563026508    -1.981239340771     0.944523404704     1.007825032230
         H            0.019257026508     2.316951659229     0.032913404704     1.007825032230
         H           -1.502318973492     2.952962659229     0.372123404704     1.007825032230
         H            4.666877026508     0.011592659229    -0.102991595296     1.007825032230
         H            3.231639026508     1.846896659229    -1.005898595296     1.007825032230

  Basis Set: AUG-CC-PVTZ
    Blend: AUG-CC-PVTZ
  Basis Set: (AUG-CC-PVTZ AUX)
    Blend: AUG-CC-PVTZ-JKFIT
	 Reference Energy          =    -531.4523386834299572 [Eh]
	 Singles Energy            =      -0.0000000000000000 [Eh]
	 Same-Spin Energy          =      -0.5966413050629262 [Eh]
	 Opposite-Spin Energy      =      -1.8211406220934578 [Eh]
	 Correlation Energy        =      -2.4177819271563843 [Eh]
	 Total Energy              =    -533.8701206105863548 [Eh]

	 ================> DF-SCS-MP2 Energies <==================
	-----------------------------------------------------------
	 SCS Same-Spin Scale       =       0.3333333333333333 [-]
	 SCS Opposite-Spin Scale   =       1.2000000000000000 [-]
	 SCS Same-Spin Energy      =      -0.1988804350209754 [Eh]
	 SCS Opposite-Spin Energy  =      -2.1853687465121494 [Eh]
	 SCS Correlation Energy    =      -2.3842491815331250 [Eh]
	 SCS Total Energy          =    -533.8365878649631213 [Eh]
	-----------------------------------------------------------

  Dipole Moment: [D]
     X:     1.5428      Y:    -0.4245      Z:     0.0151     Total:     1.6002

*** Psi4 exiting successfully. Buy a developer a beer!
