                               Psi4 1.3.2 release

  ==> Input File <==

--------------------------------------------------------------------------
#psi4
#
memory 32 gb

molecule  {
0 1
  N        1.4447430     0.9271060    -0.5600120
  N       -0.8646290     2.1728000     0.5033790
  C       -0.6416957    -0.1121046    -0.1019136
  C        0.8343400    -0.1560850    -0.0228830
  C       -1.4414270     0.9434540     0.1762700
  C       -1.2729090    -1.4294320    -0.3272730
  C       -2.8381000     0.7953410     0.1919050
  C        1.5703020    -1.2114420     0.5410850
  C       -2.6593290    -1.5570310    -0.3269880
  C       -3.4429950    -0.4315550    -0.0645950
  C        2.9613910    -1.1706130     0.5101660
  C        3.5885550    -0.0650650    -0.0636080
  C        2.7882770     0.9583460    -0.5692770
  H       -0.6539860    -2.2940070    -0.5598860
  H       -3.4538380     1.6721500     0.3887520
  H        1.0497850    -2.0407580     1.0110860
  H       -3.1218920    -2.5149200    -0.5495680
  H       -4.5281350    -0.5063600    -0.0566640
  H        3.5458790    -1.9798730     0.9414670
  H        0.0235730     2.3183180     0.0298570
  H       -1.4980030     2.9543290     0.3690670
  H        4.6711930     0.0129590    -0.1060480
  H        3.2359550     1.8482630    -1.0089550
units angstrom
no_reorient  #important for SAPT in psi4, default
symmetry c1  #important for SAPT in psi4, default
}

set PROPERTIES_ORIGIN ["COM"]
properties('MP2/aug-cc-pvtz', properties = ['dipole'])
--------------------------------------------------------------------------

    Molecular point group: c1
  Charge       = 0
  Multiplicity = 1
  Basis Set: AUG-CC-PVTZ
    Blend: AUG-CC-PVTZ
  Basis Set: (AUG-CC-PVTZ AUX)
    Blend: AUG-CC-PVTZ-JKFIT

    Orbital Energies [Eh]
    ---------------------

    Doubly Occupied:

       1A    -15.566866     2A    -15.546749     3A    -11.290306
       4A    -11.280181     5A    -11.272767     6A    -11.264105
       7A    -11.245286     8A    -11.243634     9A    -11.242438
      10A    -11.239314    11A    -11.232831    12A    -11.227179
      13A    -11.223610    14A     -1.262775    15A     -1.215474
      16A     -1.123467    17A     -1.089301    18A     -1.059832
      19A     -0.992426    20A     -0.987356    21A     -0.872850
      22A     -0.864003    23A     -0.824015    24A     -0.794863
      25A     -0.718148    26A     -0.688116    27A     -0.685947
      28A     -0.664865    29A     -0.650531    30A     -0.628585
      31A     -0.599164    32A     -0.593434    33A     -0.582404
      34A     -0.571147    35A     -0.551162    36A     -0.537054
      37A     -0.519637    38A     -0.502314    39A     -0.491420
      40A     -0.441304    41A     -0.421637    42A     -0.388641
      43A     -0.366372    44A     -0.315088    45A     -0.293002

  @DF-RHF Final Energy:  -531.44396744949211

   => Energetics <=

    Nuclear Repulsion Energy =            714.8572173695537231
    One-Electron Energy =               -2138.2591687927820203
    Two-Electron Energy =                 891.9579839737360771
    Total Energy =                       -531.4439674494921064
  Basis Set: (AUG-CC-PVTZ AUX)
    Blend: AUG-CC-PVTZ-RI
    Molecular point group: c1

    Geometry (in Angstrom), charge = 0, multiplicity = 1:

       Center              X                  Y                   Z               Mass
    ------------   -----------------  -----------------  -----------------  -----------------
         N            1.440362152833     0.917464148871    -0.554040407278    14.003074004430
         N           -0.869009847167     2.163158148871     0.509350592722    14.003074004430
         C           -0.646076547167    -0.121746451129    -0.095942007278    12.000000000000
         C            0.829959152833    -0.165726851129    -0.016911407278    12.000000000000
         C           -1.445807847167     0.933812148871     0.182241592722    12.000000000000
         C           -1.277289847167    -1.439073851129    -0.321301407278    12.000000000000
         C           -2.842480847167     0.785699148871     0.197876592722    12.000000000000
         C            1.565921152833    -1.221083851129     0.547056592722    12.000000000000
         C           -2.663709847167    -1.566672851129    -0.321016407278    12.000000000000
         C           -3.447375847167    -0.441196851129    -0.058623407278    12.000000000000
         C            2.957010152833    -1.180254851129     0.516137592722    12.000000000000
         C            3.584174152833    -0.074706851129    -0.057636407278    12.000000000000
         C            2.783896152833     0.948704148871    -0.563305407278    12.000000000000
         H           -0.658366847167    -2.303648851129    -0.553914407278     1.007825032230
         H           -3.458218847167     1.662508148871     0.394723592722     1.007825032230
         H            1.045404152833    -2.050399851129     1.017057592722     1.007825032230
         H           -3.126272847167    -2.524561851129    -0.543596407278     1.007825032230
         H           -4.532515847167    -0.516001851129    -0.050692407278     1.007825032230
         H            3.541498152833    -1.989514851129     0.947438592722     1.007825032230
         H            0.019192152833     2.308676148871     0.035828592722     1.007825032230
         H           -1.502383847167     2.944687148871     0.375038592722     1.007825032230
         H            4.666812152833     0.003317148871    -0.100076407278     1.007825032230
         H            3.231574152833     1.838621148871    -1.002983407278     1.007825032230

  Basis Set: AUG-CC-PVTZ
    Blend: AUG-CC-PVTZ
  Basis Set: (AUG-CC-PVTZ AUX)
    Blend: AUG-CC-PVTZ-JKFIT
	 Reference Energy          =    -531.4439674494921064 [Eh]
	 Singles Energy            =      -0.0000000000000000 [Eh]
	 Same-Spin Energy          =      -0.5964601964380178 [Eh]
	 Opposite-Spin Energy      =      -1.8215324739700274 [Eh]
	 Correlation Energy        =      -2.4179926704080454 [Eh]
	 Total Energy              =    -533.8619601199001181 [Eh]

	 ================> DF-SCS-MP2 Energies <==================
	-----------------------------------------------------------
	 SCS Same-Spin Scale       =       0.3333333333333333 [-]
	 SCS Opposite-Spin Scale   =       1.2000000000000000 [-]
	 SCS Same-Spin Energy      =      -0.1988200654793393 [Eh]
	 SCS Opposite-Spin Energy  =      -2.1858389687640329 [Eh]
	 SCS Correlation Energy    =      -2.3846590342433722 [Eh]
	 SCS Total Energy          =    -533.8286264837354338 [Eh]
	-----------------------------------------------------------

  Dipole Moment: [D]
     X:     1.4416      Y:    -0.5229      Z:     0.0078     Total:     1.5335

*** Psi4 exiting successfully. Buy a developer a beer!
