                               Psi4 1.3.2 release

  ==> Input File <==

--------------------------------------------------------------------------
#psi4
#
memory 32 gb

molecule  {
0 1
  N        1.4447430     0.9271060    -0.5600120
  N       -0.8646290     2.1728000     0.5033790
  C       -0.5254050    -0.1150909    -0.0427403
  C        0.8343400    -0.1560850    -0.0228830
  C       -1.4414270     0.9434540     0.1762700
  C       -1.2729090    -1.4294320    -0.3272730
  C       -2.8381000     0.7953410     0.1919050
  C        1.5703020    -1.2114420     0.5410850
  C       -2.6593290    -1.5570310    -0.3269880
  C       -3.4429950    -0.4315550    -0.0645950
  C        2.9613910    -1.1706130     0.5101660
  C        3.5885550    -0.0650650    -0.0636080
  C        2.7882770     0.9583460    -0.5692770
  H       -0.6539860    -2.2940070    -0.5598860
  H       -3.4538380     1.6721500     0.3887520
  H        1.0497850    -2.0407580     1.0110860
  H       -3.1218920    -2.5149200    -0.5495680
  H       -4.5281350    -0.5063600    -0.0566640
  H        3.5458790    -1.9798730     0.9414670
  H        0.0235730     2.3183180     0.0298570
  H       -1.4980030     2.9543290     0.3690670
  H        4.6711930     0.0129590    -0.1060480
  H        3.2359550     1.8482630    -1.0089550
units angstrom
no_reorient  #important for SAPT in psi4, default
symmetry c1  #important for SAPT in psi4, default
}

set PROPERTIES_ORIGIN ["COM"]
properties('MP2/aug-cc-pvtz', properties = ['dipole'])
--------------------------------------------------------------------------

    Molecular point group: c1
  Charge       = 0
  Multiplicity = 1
  Basis Set: AUG-CC-PVTZ
    Blend: AUG-CC-PVTZ
  Basis Set: (AUG-CC-PVTZ AUX)
    Blend: AUG-CC-PVTZ-JKFIT

    Orbital Energies [Eh]
    ---------------------

    Doubly Occupied:

       1A    -15.565003     2A    -15.547766     3A    -11.285069
       4A    -11.281466     5A    -11.279456     6A    -11.262655
       7A    -11.252911     8A    -11.244356     9A    -11.241655
      10A    -11.240680    11A    -11.235211    12A    -11.228497
      13A    -11.224836    14A     -1.265818    15A     -1.213849
      16A     -1.120079    17A     -1.088677    18A     -1.072842
      19A     -0.990525    20A     -0.979333    21A     -0.883926
      22A     -0.865573    23A     -0.818162    24A     -0.792958
      25A     -0.722982    26A     -0.690347    27A     -0.686687
      28A     -0.668657    29A     -0.652885    30A     -0.626858
      31A     -0.601716    32A     -0.594922    33A     -0.578741
      34A     -0.568715    35A     -0.552024    36A     -0.535945
      37A     -0.517179    38A     -0.509964    39A     -0.482430
      40A     -0.442018    41A     -0.422593    42A     -0.389411
      43A     -0.370454    44A     -0.312781    45A     -0.282116

  @DF-RHF Final Energy:  -531.42256673823681

   => Energetics <=

    Nuclear Repulsion Energy =            715.1108372638354922
    One-Electron Energy =               -2138.6853567478378864
    Two-Electron Energy =                 892.1519527457655840
    Total Energy =                       -531.4225667382368101
  Basis Set: (AUG-CC-PVTZ AUX)
    Blend: AUG-CC-PVTZ-RI
    Molecular point group: c1

    Geometry (in Angstrom), charge = 0, multiplicity = 1:

       Center              X                  Y                   Z               Mass
    ------------   -----------------  -----------------  -----------------  -----------------
         N            1.432157470842     0.917674841918    -0.558215273444    14.003074004430
         N           -0.877214529158     2.163368841918     0.505175726556    14.003074004430
         C           -0.537990529158    -0.124522058082    -0.040943573444    12.000000000000
         C            0.821754470842    -0.165516158082    -0.021086273444    12.000000000000
         C           -1.454012529158     0.934022841918     0.178066726556    12.000000000000
         C           -1.285494529158    -1.438863158082    -0.325476273444    12.000000000000
         C           -2.850685529158     0.785909841918     0.193701726556    12.000000000000
         C            1.557716470842    -1.220873158082     0.542881726556    12.000000000000
         C           -2.671914529158    -1.566462158082    -0.325191273444    12.000000000000
         C           -3.455580529158    -0.440986158082    -0.062798273444    12.000000000000
         C            2.948805470842    -1.180044158082     0.511962726556    12.000000000000
         C            3.575969470842    -0.074496158082    -0.061811273444    12.000000000000
         C            2.775691470842     0.948914841918    -0.567480273444    12.000000000000
         H           -0.666571529158    -2.303438158082    -0.558089273444     1.007825032230
         H           -3.466423529158     1.662718841918     0.390548726556     1.007825032230
         H            1.037199470842    -2.050189158082     1.012882726556     1.007825032230
         H           -3.134477529158    -2.524351158082    -0.547771273444     1.007825032230
         H           -4.540720529158    -0.515791158082    -0.054867273444     1.007825032230
         H            3.533293470842    -1.989304158082     0.943263726556     1.007825032230
         H            0.010987470842     2.308886841918     0.031653726556     1.007825032230
         H           -1.510588529158     2.944897841918     0.370863726556     1.007825032230
         H            4.658607470842     0.003527841918    -0.104251273444     1.007825032230
         H            3.223369470842     1.838831841918    -1.007158273444     1.007825032230

  Basis Set: AUG-CC-PVTZ
    Blend: AUG-CC-PVTZ
  Basis Set: (AUG-CC-PVTZ AUX)
    Blend: AUG-CC-PVTZ-JKFIT
	 Reference Energy          =    -531.4225667382368101 [Eh]
	 Singles Energy            =      -0.0000000000000000 [Eh]
	 Same-Spin Energy          =      -0.5986942402971245 [Eh]
	 Opposite-Spin Energy      =      -1.8250098848614194 [Eh]
	 Correlation Energy        =      -2.4237041251585438 [Eh]
	 Total Energy              =    -533.8462708633953753 [Eh]

	 ================> DF-SCS-MP2 Energies <==================
	-----------------------------------------------------------
	 SCS Same-Spin Scale       =       0.3333333333333333 [-]
	 SCS Opposite-Spin Scale   =       1.2000000000000000 [-]
	 SCS Same-Spin Energy      =      -0.1995647467657082 [Eh]
	 SCS Opposite-Spin Energy  =      -2.1900118618337032 [Eh]
	 SCS Correlation Energy    =      -2.3895766085994112 [Eh]
	 SCS Total Energy          =    -533.8121433468362511 [Eh]
	-----------------------------------------------------------

  Dipole Moment: [D]
     X:     1.3462      Y:    -0.4472      Z:     0.0268     Total:     1.4188

*** Psi4 exiting successfully. Buy a developer a beer!
