                               Psi4 1.3.2 release

  ==> Input File <==

--------------------------------------------------------------------------
#psi4
#
memory 32 gb

molecule  {
0 1
  N        1.4447430     0.9271060    -0.5600120
  N       -0.8646290     2.1728000     0.5033790
  C       -0.6433280    -0.2041590    -0.0552500
  C        0.8553351    -0.1449943    -0.0289939
  C       -1.4414270     0.9434540     0.1762700
  C       -1.2729090    -1.4294320    -0.3272730
  C       -2.8381000     0.7953410     0.1919050
  C        1.5703020    -1.2114420     0.5410850
  C       -2.6593290    -1.5570310    -0.3269880
  C       -3.4429950    -0.4315550    -0.0645950
  C        2.9613910    -1.1706130     0.5101660
  C        3.5885550    -0.0650650    -0.0636080
  C        2.7882770     0.9583460    -0.5692770
  H       -0.6539860    -2.2940070    -0.5598860
  H       -3.4538380     1.6721500     0.3887520
  H        1.0497850    -2.0407580     1.0110860
  H       -3.1218920    -2.5149200    -0.5495680
  H       -4.5281350    -0.5063600    -0.0566640
  H        3.5458790    -1.9798730     0.9414670
  H        0.0235730     2.3183180     0.0298570
  H       -1.4980030     2.9543290     0.3690670
  H        4.6711930     0.0129590    -0.1060480
  H        3.2359550     1.8482630    -1.0089550
units angstrom
no_reorient  #important for SAPT in psi4, default
symmetry c1  #important for SAPT in psi4, default
}

set PROPERTIES_ORIGIN ["COM"]
properties('MP2/aug-cc-pvtz', properties = ['dipole'])
--------------------------------------------------------------------------

    Molecular point group: c1
  Charge       = 0
  Multiplicity = 1
  Basis Set: AUG-CC-PVTZ
    Blend: AUG-CC-PVTZ
  Basis Set: (AUG-CC-PVTZ AUX)
    Blend: AUG-CC-PVTZ-JKFIT

    Orbital Energies [Eh]
    ---------------------

    Doubly Occupied:

       1A    -15.568488     2A    -15.550598     3A    -11.289693
       4A    -11.281963     5A    -11.279743     6A    -11.263744
       7A    -11.243218     8A    -11.242315     9A    -11.238411
      10A    -11.237252    11A    -11.234921    12A    -11.223309
      13A    -11.220693    14A     -1.268567    15A     -1.213760
      16A     -1.126699    17A     -1.091129    18A     -1.059332
      19A     -0.997629    20A     -0.979885    21A     -0.870985
      22A     -0.865211    23A     -0.817023    24A     -0.800388
      25A     -0.718666    26A     -0.690693    27A     -0.684278
      28A     -0.662587    29A     -0.655178    30A     -0.627211
      31A     -0.594544    32A     -0.591547    33A     -0.585673
      34A     -0.574440    35A     -0.553072    36A     -0.536284
      37A     -0.520634    38A     -0.500996    39A     -0.492670
      40A     -0.444610    41A     -0.421707    42A     -0.391116
      43A     -0.367186    44A     -0.319562    45A     -0.286716

  @DF-RHF Final Energy:  -531.45402649244909

   => Energetics <=

    Nuclear Repulsion Energy =            714.6831884570950706
    One-Electron Energy =               -2137.9057792901548964
    Two-Electron Energy =                 891.7685643406106237
    Total Energy =                       -531.4540264924490884
  Basis Set: (AUG-CC-PVTZ AUX)
    Blend: AUG-CC-PVTZ-RI
    Molecular point group: c1

    Geometry (in Angstrom), charge = 0, multiplicity = 1:

       Center              X                  Y                   Z               Mass
    ------------   -----------------  -----------------  -----------------  -----------------
         N            1.438996045170     0.923176397670    -0.556901530372    14.003074004430
         N           -0.870375954830     2.168870397670     0.506489469628    14.003074004430
         C           -0.649074954830    -0.208088602330    -0.052139530372    12.000000000000
         C            0.849588145170    -0.148923902330    -0.025883430372    12.000000000000
         C           -1.447173954830     0.939524397670     0.179380469628    12.000000000000
         C           -1.278655954830    -1.433361602330    -0.324162530372    12.000000000000
         C           -2.843846954830     0.791411397670     0.195015469628    12.000000000000
         C            1.564555045170    -1.215371602330     0.544195469628    12.000000000000
         C           -2.665075954830    -1.560960602330    -0.323877530372    12.000000000000
         C           -3.448741954830    -0.435484602330    -0.061484530372    12.000000000000
         C            2.955644045170    -1.174542602330     0.513276469628    12.000000000000
         C            3.582808045170    -0.068994602330    -0.060497530372    12.000000000000
         C            2.782530045170     0.954416397670    -0.566166530372    12.000000000000
         H           -0.659732954830    -2.297936602330    -0.556775530372     1.007825032230
         H           -3.459584954830     1.668220397670     0.391862469628     1.007825032230
         H            1.044038045170    -2.044687602330     1.014196469628     1.007825032230
         H           -3.127638954830    -2.518849602330    -0.546457530372     1.007825032230
         H           -4.533881954830    -0.510289602330    -0.053553530372     1.007825032230
         H            3.540132045170    -1.983802602330     0.944577469628     1.007825032230
         H            0.017826045170     2.314388397670     0.032967469628     1.007825032230
         H           -1.503749954830     2.950399397670     0.372177469628     1.007825032230
         H            4.665446045170     0.009029397670    -0.102937530372     1.007825032230
         H            3.230208045170     1.844333397670    -1.005844530372     1.007825032230

  Basis Set: AUG-CC-PVTZ
    Blend: AUG-CC-PVTZ
  Basis Set: (AUG-CC-PVTZ AUX)
    Blend: AUG-CC-PVTZ-JKFIT
	 Reference Energy          =    -531.4540264924490884 [Eh]
	 Singles Energy            =      -0.0000000000000000 [Eh]
	 Same-Spin Energy          =      -0.5960876765736851 [Eh]
	 Opposite-Spin Energy      =      -1.8200560410563469 [Eh]
	 Correlation Energy        =      -2.4161437176300318 [Eh]
	 Total Energy              =    -533.8701702100790953 [Eh]

	 ================> DF-SCS-MP2 Energies <==================
	-----------------------------------------------------------
	 SCS Same-Spin Scale       =       0.3333333333333333 [-]
	 SCS Opposite-Spin Scale   =       1.2000000000000000 [-]
	 SCS Same-Spin Energy      =      -0.1986958921912284 [Eh]
	 SCS Opposite-Spin Energy  =      -2.1840672492676161 [Eh]
	 SCS Correlation Energy    =      -2.3827631414588444 [Eh]
	 SCS Total Energy          =    -533.8367896339079834 [Eh]
	-----------------------------------------------------------

  Dipole Moment: [D]
     X:     1.6125      Y:    -0.4199      Z:     0.0102     Total:     1.6663

*** Psi4 exiting successfully. Buy a developer a beer!
