                               Psi4 1.3.2 release

  ==> Input File <==

--------------------------------------------------------------------------
#psi4
#
memory 32 gb

molecule  {
0 1
  N        1.4447430     0.9271060    -0.5600120
  N       -0.8868799     2.1826931     0.5045256
  C       -0.6433280    -0.2041590    -0.0552500
  C        0.8343400    -0.1560850    -0.0228830
  C       -1.4414270     0.9434540     0.1762700
  C       -1.2729090    -1.4294320    -0.3272730
  C       -2.8381000     0.7953410     0.1919050
  C        1.5703020    -1.2114420     0.5410850
  C       -2.6593290    -1.5570310    -0.3269880
  C       -3.4429950    -0.4315550    -0.0645950
  C        2.9613910    -1.1706130     0.5101660
  C        3.5885550    -0.0650650    -0.0636080
  C        2.7882770     0.9583460    -0.5692770
  H       -0.6539860    -2.2940070    -0.5598860
  H       -3.4538380     1.6721500     0.3887520
  H        1.0497850    -2.0407580     1.0110860
  H       -3.1218920    -2.5149200    -0.5495680
  H       -4.5281350    -0.5063600    -0.0566640
  H        3.5458790    -1.9798730     0.9414670
  H        0.0235730     2.3183180     0.0298570
  H       -1.4980030     2.9543290     0.3690670
  H        4.6711930     0.0129590    -0.1060480
  H        3.2359550     1.8482630    -1.0089550
units angstrom
no_reorient  #important for SAPT in psi4, default
symmetry c1  #important for SAPT in psi4, default
}

set PROPERTIES_ORIGIN ["COM"]
properties('MP2/aug-cc-pvtz', properties = ['dipole'])
--------------------------------------------------------------------------

    Molecular point group: c1
  Charge       = 0
  Multiplicity = 1
  Basis Set: AUG-CC-PVTZ
    Blend: AUG-CC-PVTZ
  Basis Set: (AUG-CC-PVTZ AUX)
    Blend: AUG-CC-PVTZ-JKFIT

    Orbital Energies [Eh]
    ---------------------

    Doubly Occupied:

       1A    -15.569206     2A    -15.550323     3A    -11.290324
       4A    -11.281661     5A    -11.280980     6A    -11.263697
       7A    -11.242850     8A    -11.242115     9A    -11.239318
      10A    -11.237900    11A    -11.234949    12A    -11.223343
      13A    -11.221091    14A     -1.262653    15A     -1.214236
      16A     -1.128018    17A     -1.089222    18A     -1.061487
      19A     -0.997648    20A     -0.980804    21A     -0.871511
      22A     -0.864869    23A     -0.817582    24A     -0.800374
      25A     -0.718990    26A     -0.688859    27A     -0.688007
      28A     -0.664197    29A     -0.652117    30A     -0.627591
      31A     -0.595317    32A     -0.592072    33A     -0.587217
      34A     -0.574028    35A     -0.550791    36A     -0.536511
      37A     -0.520186    38A     -0.501295    39A     -0.493886
      40A     -0.444979    41A     -0.420974    42A     -0.389260
      43A     -0.368820    44A     -0.319027    45A     -0.286386

  @DF-RHF Final Energy:  -531.45286351041625

   => Energetics <=

    Nuclear Repulsion Energy =            714.4255304570017415
    One-Electron Energy =               -2137.3834452577502816
    Two-Electron Energy =                 891.5050512903322897
    Total Energy =                       -531.4528635104162504
  Basis Set: (AUG-CC-PVTZ AUX)
    Blend: AUG-CC-PVTZ-RI
    Molecular point group: c1

    Geometry (in Angstrom), charge = 0, multiplicity = 1:

       Center              X                  Y                   Z               Mass
    ------------   -----------------  -----------------  -----------------  -----------------
         N            1.442309236767     0.923144381732    -0.557427073723    14.003074004430
         N           -0.889313663233     2.178731481732     0.507110526277    14.003074004430
         C           -0.645761763233    -0.208120618268    -0.052665073723    12.000000000000
         C            0.831906236767    -0.160046618268    -0.020298073723    12.000000000000
         C           -1.443860763233     0.939492381732     0.178854926277    12.000000000000
         C           -1.275342763233    -1.433393618268    -0.324688073723    12.000000000000
         C           -2.840533763233     0.791379381732     0.194489926277    12.000000000000
         C            1.567868236767    -1.215403618268     0.543669926277    12.000000000000
         C           -2.661762763233    -1.560992618268    -0.324403073723    12.000000000000
         C           -3.445428763233    -0.435516618268    -0.062010073723    12.000000000000
         C            2.958957236767    -1.174574618268     0.512750926277    12.000000000000
         C            3.586121236767    -0.069026618268    -0.061023073723    12.000000000000
         C            2.785843236767     0.954384381732    -0.566692073723    12.000000000000
         H           -0.656419763233    -2.297968618268    -0.557301073723     1.007825032230
         H           -3.456271763233     1.668188381732     0.391336926277     1.007825032230
         H            1.047351236767    -2.044719618268     1.013670926277     1.007825032230
         H           -3.124325763233    -2.518881618268    -0.546983073723     1.007825032230
         H           -4.530568763233    -0.510321618268    -0.054079073723     1.007825032230
         H            3.543445236767    -1.983834618268     0.944051926277     1.007825032230
         H            0.021139236767     2.314356381732     0.032441926277     1.007825032230
         H           -1.500436763233     2.950367381732     0.371651926277     1.007825032230
         H            4.668759236767     0.008997381732    -0.103463073723     1.007825032230
         H            3.233521236767     1.844301381732    -1.006370073723     1.007825032230

  Basis Set: AUG-CC-PVTZ
    Blend: AUG-CC-PVTZ
  Basis Set: (AUG-CC-PVTZ AUX)
    Blend: AUG-CC-PVTZ-JKFIT
	 Reference Energy          =    -531.4528635104162504 [Eh]
	 Singles Energy            =      -0.0000000000000000 [Eh]
	 Same-Spin Energy          =      -0.5964944193546390 [Eh]
	 Opposite-Spin Energy      =      -1.8207098231563541 [Eh]
	 Correlation Energy        =      -2.4172042425109930 [Eh]
	 Total Energy              =    -533.8700677529272980 [Eh]

	 ================> DF-SCS-MP2 Energies <==================
	-----------------------------------------------------------
	 SCS Same-Spin Scale       =       0.3333333333333333 [-]
	 SCS Opposite-Spin Scale   =       1.2000000000000000 [-]
	 SCS Same-Spin Energy      =      -0.1988314731182130 [Eh]
	 SCS Opposite-Spin Energy  =      -2.1848517877876250 [Eh]
	 SCS Correlation Energy    =      -2.3836832609058378 [Eh]
	 SCS Total Energy          =    -533.8365467713221051 [Eh]
	-----------------------------------------------------------

  Dipole Moment: [D]
     X:     1.5600      Y:    -0.4281      Z:     0.0139     Total:     1.6177

*** Psi4 exiting successfully. Buy a developer a beer!
