                               Psi4 1.3.2 release

  ==> Input File <==

--------------------------------------------------------------------------
#psi4
#
memory 32 gb

molecule  {
0 1
  N        1.4447430     0.9271060    -0.5600120
  N       -0.8646290     2.1728000     0.5033790
  C       -0.6433280    -0.2041590    -0.0552500
  C        0.8135691    -0.1674972    -0.0166003
  C       -1.4414270     0.9434540     0.1762700
  C       -1.2729090    -1.4294320    -0.3272730
  C       -2.8381000     0.7953410     0.1919050
  C        1.5703020    -1.2114420     0.5410850
  C       -2.6593290    -1.5570310    -0.3269880
  C       -3.4429950    -0.4315550    -0.0645950
  C        2.9613910    -1.1706130     0.5101660
  C        3.5885550    -0.0650650    -0.0636080
  C        2.7882770     0.9583460    -0.5692770
  H       -0.6539860    -2.2940070    -0.5598860
  H       -3.4538380     1.6721500     0.3887520
  H        1.0497850    -2.0407580     1.0110860
  H       -3.1218920    -2.5149200    -0.5495680
  H       -4.5281350    -0.5063600    -0.0566640
  H        3.5458790    -1.9798730     0.9414670
  H        0.0235730     2.3183180     0.0298570
  H       -1.4980030     2.9543290     0.3690670
  H        4.6711930     0.0129590    -0.1060480
  H        3.2359550     1.8482630    -1.0089550
units angstrom
no_reorient  #important for SAPT in psi4, default
symmetry c1  #important for SAPT in psi4, default
}

set PROPERTIES_ORIGIN ["COM"]
properties('MP2/aug-cc-pvtz', properties = ['dipole'])
--------------------------------------------------------------------------

    Molecular point group: c1
  Charge       = 0
  Multiplicity = 1
  Basis Set: AUG-CC-PVTZ
    Blend: AUG-CC-PVTZ
  Basis Set: (AUG-CC-PVTZ AUX)
    Blend: AUG-CC-PVTZ-JKFIT

    Orbital Energies [Eh]
    ---------------------

    Doubly Occupied:

       1A    -15.569131     2A    -15.551534     3A    -11.290448
       4A    -11.282090     5A    -11.280857     6A    -11.263242
       7A    -11.242200     8A    -11.241743     9A    -11.239956
      10A    -11.239162    11A    -11.234088    12A    -11.224629
      13A    -11.221776    14A     -1.257017    15A     -1.214108
      16A     -1.129211    17A     -1.086940    18A     -1.063573
      19A     -0.997939    20A     -0.981411    21A     -0.873026
      22A     -0.863222    23A     -0.816871    24A     -0.800882
      25A     -0.719163    26A     -0.690623    27A     -0.685651
      28A     -0.664515    29A     -0.651180    30A     -0.627165
      31A     -0.596711    32A     -0.593249    33A     -0.586780
      34A     -0.574087    35A     -0.548649    36A     -0.536932
      37A     -0.519413    38A     -0.501856    39A     -0.495059
      40A     -0.445868    41A     -0.419585    42A     -0.387010
      43A     -0.370194    44A     -0.318719    45A     -0.286481

  @DF-RHF Final Energy:  -531.45147021924424

   => Energetics <=

    Nuclear Repulsion Energy =            714.6020076276772670
    One-Electron Energy =               -2137.7390673211939429
    Two-Electron Energy =                 891.6855894742724331
    Total Energy =                       -531.4514702192442428
  Basis Set: (AUG-CC-PVTZ AUX)
    Blend: AUG-CC-PVTZ-RI
    Molecular point group: c1

    Geometry (in Angstrom), charge = 0, multiplicity = 1:

       Center              X                  Y                   Z               Mass
    ------------   -----------------  -----------------  -----------------  -----------------
         N            1.441942770471     0.924764049463    -0.557775938616    14.003074004430
         N           -0.867429229529     2.170458049463     0.505615061384    14.003074004430
         C           -0.646128229529    -0.206500950537    -0.053013938616    12.000000000000
         C            0.810768870471    -0.169839150537    -0.014364238616    12.000000000000
         C           -1.444227229529     0.941112049463     0.178506061384    12.000000000000
         C           -1.275709229529    -1.431773950537    -0.325036938616    12.000000000000
         C           -2.840900229529     0.792999049463     0.194141061384    12.000000000000
         C            1.567501770471    -1.213783950537     0.543321061384    12.000000000000
         C           -2.662129229529    -1.559372950537    -0.324751938616    12.000000000000
         C           -3.445795229529    -0.433896950537    -0.062358938616    12.000000000000
         C            2.958590770471    -1.172954950537     0.512402061384    12.000000000000
         C            3.585754770471    -0.067406950537    -0.061371938616    12.000000000000
         C            2.785476770471     0.956004049463    -0.567040938616    12.000000000000
         H           -0.656786229529    -2.296348950537    -0.557649938616     1.007825032230
         H           -3.456638229529     1.669808049463     0.390988061384     1.007825032230
         H            1.046984770471    -2.043099950537     1.013322061384     1.007825032230
         H           -3.124692229529    -2.517261950537    -0.547331938616     1.007825032230
         H           -4.530935229529    -0.508701950537    -0.054427938616     1.007825032230
         H            3.543078770471    -1.982214950537     0.943703061384     1.007825032230
         H            0.020772770471     2.315976049463     0.032093061384     1.007825032230
         H           -1.500803229529     2.951987049463     0.371303061384     1.007825032230
         H            4.668392770471     0.010617049463    -0.103811938616     1.007825032230
         H            3.233154770471     1.845921049463    -1.006718938616     1.007825032230

  Basis Set: AUG-CC-PVTZ
    Blend: AUG-CC-PVTZ
  Basis Set: (AUG-CC-PVTZ AUX)
    Blend: AUG-CC-PVTZ-JKFIT
	 Reference Energy          =    -531.4514702192442428 [Eh]
	 Singles Energy            =      -0.0000000000000000 [Eh]
	 Same-Spin Energy          =      -0.5969750452843314 [Eh]
	 Opposite-Spin Energy      =      -1.8215994961171214 [Eh]
	 Correlation Energy        =      -2.4185745414014530 [Eh]
	 Total Energy              =    -533.8700447606456692 [Eh]

	 ================> DF-SCS-MP2 Energies <==================
	-----------------------------------------------------------
	 SCS Same-Spin Scale       =       0.3333333333333333 [-]
	 SCS Opposite-Spin Scale   =       1.2000000000000000 [-]
	 SCS Same-Spin Energy      =      -0.1989916817614438 [Eh]
	 SCS Opposite-Spin Energy  =      -2.1859193953405454 [Eh]
	 SCS Correlation Energy    =      -2.3849110771019890 [Eh]
	 SCS Total Energy          =    -533.8363812963461896 [Eh]
	-----------------------------------------------------------

  Dipole Moment: [D]
     X:     1.4405      Y:    -0.4198      Z:     0.0174     Total:     1.5005

*** Psi4 exiting successfully. Buy a developer a beer!
