                               Psi4 1.3.2 release

  ==> Input File <==

--------------------------------------------------------------------------
#psi4
#
memory 32 gb

molecule  {
0 1
  N        1.4447430     0.9271060    -0.5600120
  N       -1.0006343     2.2226315     0.5232490
  C       -0.6433280    -0.2041590    -0.0552500
  C        0.8343400    -0.1560850    -0.0228830
  C       -1.4414270     0.9434540     0.1762700
  C       -1.2729090    -1.4294320    -0.3272730
  C       -2.8381000     0.7953410     0.1919050
  C        1.5703020    -1.2114420     0.5410850
  C       -2.6593290    -1.5570310    -0.3269880
  C       -3.4429950    -0.4315550    -0.0645950
  C        2.9613910    -1.1706130     0.5101660
  C        3.5885550    -0.0650650    -0.0636080
  C        2.7882770     0.9583460    -0.5692770
  H       -0.6539860    -2.2940070    -0.5598860
  H       -3.4538380     1.6721500     0.3887520
  H        1.0497850    -2.0407580     1.0110860
  H       -3.1218920    -2.5149200    -0.5495680
  H       -4.5281350    -0.5063600    -0.0566640
  H        3.5458790    -1.9798730     0.9414670
  H        0.0235730     2.3183180     0.0298570
  H       -1.4980030     2.9543290     0.3690670
  H        4.6711930     0.0129590    -0.1060480
  H        3.2359550     1.8482630    -1.0089550
units angstrom
no_reorient  #important for SAPT in psi4, default
symmetry c1  #important for SAPT in psi4, default
}

set PROPERTIES_ORIGIN ["COM"]
properties('MP2/aug-cc-pvtz', properties = ['dipole'])
--------------------------------------------------------------------------

    Molecular point group: c1
  Charge       = 0
  Multiplicity = 1
  Basis Set: AUG-CC-PVTZ
    Blend: AUG-CC-PVTZ
  Basis Set: (AUG-CC-PVTZ AUX)
    Blend: AUG-CC-PVTZ-JKFIT

    Orbital Energies [Eh]
    ---------------------

    Doubly Occupied:

       1A    -15.571292     2A    -15.547351     3A    -11.291758
       4A    -11.283067     5A    -11.282425     6A    -11.264865
       7A    -11.243755     8A    -11.242899     9A    -11.240259
      10A    -11.237478    11A    -11.236552    12A    -11.221058
      13A    -11.220858    14A     -1.263647    15A     -1.217424
      16A     -1.129653    17A     -1.090466    18A     -1.062154
      19A     -0.997383    20A     -0.983453    21A     -0.871706
      22A     -0.866906    23A     -0.821538    24A     -0.801423
      25A     -0.723578    26A     -0.702297    27A     -0.681280
      28A     -0.666945    29A     -0.645116    30A     -0.631287
      31A     -0.599933    32A     -0.589322    33A     -0.582999
      34A     -0.565886    35A     -0.551269    36A     -0.535943
      37A     -0.520952    38A     -0.501061    39A     -0.491783
      40A     -0.444586    41A     -0.420596    42A     -0.390574
      43A     -0.369755    44A     -0.318780    45A     -0.286078

  @DF-RHF Final Energy:  -531.42353758106105

   => Energetics <=

    Nuclear Repulsion Energy =            713.4829885899457622
    One-Electron Energy =               -2135.3942718153198257
    Two-Electron Energy =                 890.4877456443130086
    Total Energy =                       -531.4235375810610549
  Basis Set: (AUG-CC-PVTZ AUX)
    Blend: AUG-CC-PVTZ-RI
    Molecular point group: c1

    Geometry (in Angstrom), charge = 0, multiplicity = 1:

       Center              X                  Y                   Z               Mass
    ------------   -----------------  -----------------  -----------------  -----------------
         N            1.451674653567     0.919856247275    -0.558968574051    14.003074004430
         N           -0.993702646433     2.215381747275     0.524292425949    14.003074004430
         C           -0.636396346433    -0.211408752725    -0.054206574051    12.000000000000
         C            0.841271653567    -0.163334752725    -0.021839574051    12.000000000000
         C           -1.434495346433     0.936204247275     0.177313425949    12.000000000000
         C           -1.265977346433    -1.436681752725    -0.326229574051    12.000000000000
         C           -2.831168346433     0.788091247275     0.192948425949    12.000000000000
         C            1.577233653567    -1.218691752725     0.542128425949    12.000000000000
         C           -2.652397346433    -1.564280752725    -0.325944574051    12.000000000000
         C           -3.436063346433    -0.438804752725    -0.063551574051    12.000000000000
         C            2.968322653567    -1.177862752725     0.511209425949    12.000000000000
         C            3.595486653567    -0.072314752725    -0.062564574051    12.000000000000
         C            2.795208653567     0.951096247275    -0.568233574051    12.000000000000
         H           -0.647054346433    -2.301256752725    -0.558842574051     1.007825032230
         H           -3.446906346433     1.664900247275     0.389795425949     1.007825032230
         H            1.056716653567    -2.048007752725     1.012129425949     1.007825032230
         H           -3.114960346433    -2.522169752725    -0.548524574051     1.007825032230
         H           -4.521203346433    -0.513609752725    -0.055620574051     1.007825032230
         H            3.552810653567    -1.987122752725     0.942510425949     1.007825032230
         H            0.030504653567     2.311068247275     0.030900425949     1.007825032230
         H           -1.491071346433     2.947079247275     0.370110425949     1.007825032230
         H            4.678124653567     0.005709247275    -0.105004574051     1.007825032230
         H            3.242886653567     1.841013247275    -1.007911574051     1.007825032230

  Basis Set: AUG-CC-PVTZ
    Blend: AUG-CC-PVTZ
  Basis Set: (AUG-CC-PVTZ AUX)
    Blend: AUG-CC-PVTZ-JKFIT
	 Reference Energy          =    -531.4235375810610549 [Eh]
	 Singles Energy            =      -0.0000000000000000 [Eh]
	 Same-Spin Energy          =      -0.5969161710002006 [Eh]
	 Opposite-Spin Energy      =      -1.8218928742672080 [Eh]
	 Correlation Energy        =      -2.4188090452674085 [Eh]
	 Total Energy              =    -533.8423466263284354 [Eh]

	 ================> DF-SCS-MP2 Energies <==================
	-----------------------------------------------------------
	 SCS Same-Spin Scale       =       0.3333333333333333 [-]
	 SCS Opposite-Spin Scale   =       1.2000000000000000 [-]
	 SCS Same-Spin Energy      =      -0.1989720570000668 [Eh]
	 SCS Opposite-Spin Energy  =      -2.1862714491206496 [Eh]
	 SCS Correlation Energy    =      -2.3852435061207165 [Eh]
	 SCS Total Energy          =    -533.8087810871817283 [Eh]
	-----------------------------------------------------------

  Dipole Moment: [D]
     X:     1.7264      Y:    -0.5275      Z:    -0.0293     Total:     1.8054

*** Psi4 exiting successfully. Buy a developer a beer!
