                               Psi4 1.3.2 release

  ==> Input File <==

--------------------------------------------------------------------------
#psi4
#
memory 32 gb

molecule  {
0 1
  N        1.4447430     0.9271060    -0.5600120
  N       -0.8646290     2.1728000     0.5033790
  C       -0.6433280    -0.2041590    -0.0552500
  C        0.8343400    -0.1560850    -0.0228830
  C       -1.4414270     0.9434540     0.1762700
  C       -1.2729090    -1.4294320    -0.3272730
  C       -2.8381000     0.7953410     0.1919050
  C        1.5703020    -1.2114420     0.5410850
  C       -2.6593290    -1.5570310    -0.3269880
  C       -3.4429950    -0.4315550    -0.0645950
  C        2.9613910    -1.1706130     0.5101660
  C        3.5885550    -0.0650650    -0.0636080
  C        2.7882770     0.9583460    -0.5692770
  H       -0.6539860    -2.2940070    -0.5598860
  H       -3.4538380     1.6721500     0.3887520
  H        1.0497850    -2.0407580     1.0110860
  H       -3.1218920    -2.5149200    -0.5495680
  H       -4.5281350    -0.5063600    -0.0566640
  H        3.5458790    -1.9798730     0.9414670
  H        0.0235730     2.3183180     0.0298570
  H       -1.4980030     2.9543290     0.3690670
  H        4.6711930     0.0129590    -0.1060480
  H        3.1537286     1.6848092    -0.9281980
units angstrom
no_reorient  #important for SAPT in psi4, default
symmetry c1  #important for SAPT in psi4, default
}

set PROPERTIES_ORIGIN ["COM"]
properties('MP2/aug-cc-pvtz', properties = ['dipole'])
--------------------------------------------------------------------------

    Molecular point group: c1
  Charge       = 0
  Multiplicity = 1
  Basis Set: AUG-CC-PVTZ
    Blend: AUG-CC-PVTZ
  Basis Set: (AUG-CC-PVTZ AUX)
    Blend: AUG-CC-PVTZ-JKFIT

    Orbital Energies [Eh]
    ---------------------

    Doubly Occupied:

       1A    -15.567693     2A    -15.550768     3A    -11.288857
       4A    -11.280547     5A    -11.262559     6A    -11.257683
       7A    -11.241806     8A    -11.241528     9A    -11.238808
      10A    -11.237886    11A    -11.234131    12A    -11.223697
      13A    -11.220958    14A     -1.262855    15A     -1.213898
      16A     -1.127849    17A     -1.088123    18A     -1.066205
      19A     -1.000564    20A     -0.981499    21A     -0.882757
      22A     -0.869956    23A     -0.821349    24A     -0.801683
      25A     -0.731297    26A     -0.691948    27A     -0.685780
      28A     -0.670419    29A     -0.653345    30A     -0.637649
      31A     -0.600092    32A     -0.592254    33A     -0.585964
      34A     -0.574673    35A     -0.550502    36A     -0.538240
      37A     -0.521054    38A     -0.502420    39A     -0.494648
      40A     -0.444977    41A     -0.421889    42A     -0.388161
      43A     -0.368364    44A     -0.318800    45A     -0.286317

  @DF-RHF Final Energy:  -531.41927543087399

   => Energetics <=

    Nuclear Repulsion Energy =            715.8595657776977532
    One-Electron Energy =               -2140.1127738527666224
    Two-Electron Energy =                 892.8339326441948742
    Total Energy =                       -531.4192754308739950
  Basis Set: (AUG-CC-PVTZ AUX)
    Blend: AUG-CC-PVTZ-RI
    Molecular point group: c1

    Geometry (in Angstrom), charge = 0, multiplicity = 1:

       Center              X                  Y                   Z               Mass
    ------------   -----------------  -----------------  -----------------  -----------------
         N            1.440964544500     0.924927417952    -0.557811194795    14.003074004430
         N           -0.868407455500     2.170621417952     0.505579805205    14.003074004430
         C           -0.647106455500    -0.206337582048    -0.053049194795    12.000000000000
         C            0.830561544500    -0.158263582048    -0.020682194795    12.000000000000
         C           -1.445205455500     0.941275417952     0.178470805205    12.000000000000
         C           -1.276687455500    -1.431610582048    -0.325072194795    12.000000000000
         C           -2.841878455500     0.793162417952     0.194105805205    12.000000000000
         C            1.566523544500    -1.213620582048     0.543285805205    12.000000000000
         C           -2.663107455500    -1.559209582048    -0.324787194795    12.000000000000
         C           -3.446773455500    -0.433733582048    -0.062394194795    12.000000000000
         C            2.957612544500    -1.172791582048     0.512366805205    12.000000000000
         C            3.584776544500    -0.067243582048    -0.061407194795    12.000000000000
         C            2.784498544500     0.956167417952    -0.567076194795    12.000000000000
         H           -0.657764455500    -2.296185582048    -0.557685194795     1.007825032230
         H           -3.457616455500     1.669971417952     0.390952805205     1.007825032230
         H            1.046006544500    -2.042936582048     1.013286805205     1.007825032230
         H           -3.125670455500    -2.517098582048    -0.547367194795     1.007825032230
         H           -4.531913455500    -0.508538582048    -0.054463194795     1.007825032230
         H            3.542100544500    -1.982051582048     0.943667805205     1.007825032230
         H            0.019794544500     2.316139417952     0.032057805205     1.007825032230
         H           -1.501781455500     2.952150417952     0.371267805205     1.007825032230
         H            4.667414544500     0.010780417952    -0.103847194795     1.007825032230
         H            3.149950144500     1.682630617952    -0.925997194795     1.007825032230

  Basis Set: AUG-CC-PVTZ
    Blend: AUG-CC-PVTZ
  Basis Set: (AUG-CC-PVTZ AUX)
    Blend: AUG-CC-PVTZ-JKFIT
	 Reference Energy          =    -531.4192754308739950 [Eh]
	 Singles Energy            =      -0.0000000000000000 [Eh]
	 Same-Spin Energy          =      -0.5962731940394206 [Eh]
	 Opposite-Spin Energy      =      -1.8201068158334892 [Eh]
	 Correlation Energy        =      -2.4163800098729098 [Eh]
	 Total Energy              =    -533.8356554407469048 [Eh]

	 ================> DF-SCS-MP2 Energies <==================
	-----------------------------------------------------------
	 SCS Same-Spin Scale       =       0.3333333333333333 [-]
	 SCS Opposite-Spin Scale   =       1.2000000000000000 [-]
	 SCS Same-Spin Energy      =      -0.1987577313464735 [Eh]
	 SCS Opposite-Spin Energy  =      -2.1841281790001870 [Eh]
	 SCS Correlation Energy    =      -2.3828859103466606 [Eh]
	 SCS Total Energy          =    -533.8021613412206534 [Eh]
	-----------------------------------------------------------

  Dipole Moment: [D]
     X:     1.5835      Y:    -0.3981      Z:     0.0019     Total:     1.6328

*** Psi4 exiting successfully. Buy a developer a beer!
