                               Psi4 1.3.2 release

  ==> Input File <==

--------------------------------------------------------------------------
#psi4
#
memory 32 gb

molecule  {
0 1
  N        1.4447430     0.9271060    -0.5600120
  N       -0.9092997     2.1922087     0.5055723
  C       -0.6433280    -0.2041590    -0.0552500
  C        0.8343400    -0.1560850    -0.0228830
  C       -1.4414270     0.9434540     0.1762700
  C       -1.2729090    -1.4294320    -0.3272730
  C       -2.8381000     0.7953410     0.1919050
  C        1.5703020    -1.2114420     0.5410850
  C       -2.6593290    -1.5570310    -0.3269880
  C       -3.4429950    -0.4315550    -0.0645950
  C        2.9613910    -1.1706130     0.5101660
  C        3.5885550    -0.0650650    -0.0636080
  C        2.7882770     0.9583460    -0.5692770
  H       -0.6539860    -2.2940070    -0.5598860
  H       -3.4538380     1.6721500     0.3887520
  H        1.0497850    -2.0407580     1.0110860
  H       -3.1218920    -2.5149200    -0.5495680
  H       -4.5281350    -0.5063600    -0.0566640
  H        3.5458790    -1.9798730     0.9414670
  H        0.0235730     2.3183180     0.0298570
  H       -1.4980030     2.9543290     0.3690670
  H        4.6711930     0.0129590    -0.1060480
  H        3.2359550     1.8482630    -1.0089550
units angstrom
no_reorient  #important for SAPT in psi4, default
symmetry c1  #important for SAPT in psi4, default
}

set PROPERTIES_ORIGIN ["COM"]
properties('MP2/aug-cc-pvtz', properties = ['dipole'])
--------------------------------------------------------------------------

    Molecular point group: c1
  Charge       = 0
  Multiplicity = 1
  Basis Set: AUG-CC-PVTZ
    Blend: AUG-CC-PVTZ
  Basis Set: (AUG-CC-PVTZ AUX)
    Blend: AUG-CC-PVTZ-JKFIT

    Orbital Energies [Eh]
    ---------------------

    Doubly Occupied:

       1A    -15.569577     2A    -15.549561     3A    -11.290584
       4A    -11.281921     5A    -11.281147     6A    -11.263910
       7A    -11.243002     8A    -11.242238     9A    -11.239470
      10A    -11.237607    11A    -11.235359    12A    -11.222751
      13A    -11.220976    14A     -1.262800    15A     -1.214642
      16A     -1.128207    17A     -1.089448    18A     -1.061588
      19A     -0.997523    20A     -0.981093    21A     -0.871462
      22A     -0.865239    23A     -0.818268    24A     -0.800246
      25A     -0.719385    26A     -0.691598    27A     -0.686856
      28A     -0.664879    29A     -0.650824    30A     -0.628134
      31A     -0.596256    32A     -0.590529    33A     -0.587690
      34A     -0.573544    35A     -0.550885    36A     -0.536369
      37A     -0.520281    38A     -0.501182    39A     -0.493827
      40A     -0.444740    41A     -0.421008    42A     -0.389515
      43A     -0.368980    44A     -0.318925    45A     -0.286156

  @DF-RHF Final Energy:  -531.45052346561295

   => Energetics <=

    Nuclear Repulsion Energy =            714.2240286733285757
    One-Electron Energy =               -2136.9687379463111938
    Two-Electron Energy =                 891.2941858073696721
    Total Energy =                       -531.4505234656129460
  Basis Set: (AUG-CC-PVTZ AUX)
    Blend: AUG-CC-PVTZ-RI
    Molecular point group: c1

    Geometry (in Angstrom), charge = 0, multiplicity = 1:

       Center              X                  Y                   Z               Mass
    ------------   -----------------  -----------------  -----------------  -----------------
         N            1.444155062261     0.922360960958    -0.557513248691    14.003074004430
         N           -0.909887637739     2.187463660958     0.508071051309    14.003074004430
         C           -0.643915937739    -0.208904039042    -0.052751248691    12.000000000000
         C            0.833752062261    -0.160830039042    -0.020384248691    12.000000000000
         C           -1.442014937739     0.938708960958     0.178768751309    12.000000000000
         C           -1.273496937739    -1.434177039042    -0.324774248691    12.000000000000
         C           -2.838687937739     0.790595960958     0.194403751309    12.000000000000
         C            1.569714062261    -1.216187039042     0.543583751309    12.000000000000
         C           -2.659916937739    -1.561776039042    -0.324489248691    12.000000000000
         C           -3.443582937739    -0.436300039042    -0.062096248691    12.000000000000
         C            2.960803062261    -1.175358039042     0.512664751309    12.000000000000
         C            3.587967062261    -0.069810039042    -0.061109248691    12.000000000000
         C            2.787689062261     0.953600960958    -0.566778248691    12.000000000000
         H           -0.654573937739    -2.298752039042    -0.557387248691     1.007825032230
         H           -3.454425937739     1.667404960958     0.391250751309     1.007825032230
         H            1.049197062261    -2.045503039042     1.013584751309     1.007825032230
         H           -3.122479937739    -2.519665039042    -0.547069248691     1.007825032230
         H           -4.528722937739    -0.511105039042    -0.054165248691     1.007825032230
         H            3.545291062261    -1.984618039042     0.943965751309     1.007825032230
         H            0.022985062261     2.313572960958     0.032355751309     1.007825032230
         H           -1.498590937739     2.949583960958     0.371565751309     1.007825032230
         H            4.670605062261     0.008213960958    -0.103549248691     1.007825032230
         H            3.235367062261     1.843517960958    -1.006456248691     1.007825032230

  Basis Set: AUG-CC-PVTZ
    Blend: AUG-CC-PVTZ
  Basis Set: (AUG-CC-PVTZ AUX)
    Blend: AUG-CC-PVTZ-JKFIT
	 Reference Energy          =    -531.4505234656129460 [Eh]
	 Singles Energy            =      -0.0000000000000000 [Eh]
	 Same-Spin Energy          =      -0.5965052524264395 [Eh]
	 Opposite-Spin Energy      =      -1.8207281835176177 [Eh]
	 Correlation Energy        =      -2.4172334359440573 [Eh]
	 Total Energy              =    -533.8677569015569588 [Eh]

	 ================> DF-SCS-MP2 Energies <==================
	-----------------------------------------------------------
	 SCS Same-Spin Scale       =       0.3333333333333333 [-]
	 SCS Opposite-Spin Scale   =       1.2000000000000000 [-]
	 SCS Same-Spin Energy      =      -0.1988350841421465 [Eh]
	 SCS Opposite-Spin Energy  =      -2.1848738202211413 [Eh]
	 SCS Correlation Energy    =      -2.3837089043632878 [Eh]
	 SCS Total Energy          =    -533.8342323699762346 [Eh]
	-----------------------------------------------------------

  Dipole Moment: [D]
     X:     1.5938      Y:    -0.4388      Z:     0.0131     Total:     1.6531

*** Psi4 exiting successfully. Buy a developer a beer!
