                               Psi4 1.3.2 release

  ==> Input File <==

--------------------------------------------------------------------------
#psi4
#
memory 32 gb

molecule  {
0 1
  N        1.4447430     0.9271060    -0.5600120
  N       -0.8646290     2.1728000     0.5033790
  C       -0.6433280    -0.2041590    -0.0552500
  C        0.7442038    -0.3160363     0.0564331
  C       -1.4414270     0.9434540     0.1762700
  C       -1.2729090    -1.4294320    -0.3272730
  C       -2.8381000     0.7953410     0.1919050
  C        1.5703020    -1.2114420     0.5410850
  C       -2.6593290    -1.5570310    -0.3269880
  C       -3.4429950    -0.4315550    -0.0645950
  C        2.9613910    -1.1706130     0.5101660
  C        3.5885550    -0.0650650    -0.0636080
  C        2.7882770     0.9583460    -0.5692770
  H       -0.6539860    -2.2940070    -0.5598860
  H       -3.4538380     1.6721500     0.3887520
  H        1.0497850    -2.0407580     1.0110860
  H       -3.1218920    -2.5149200    -0.5495680
  H       -4.5281350    -0.5063600    -0.0566640
  H        3.5458790    -1.9798730     0.9414670
  H        0.0235730     2.3183180     0.0298570
  H       -1.4980030     2.9543290     0.3690670
  H        4.6711930     0.0129590    -0.1060480
  H        3.2359550     1.8482630    -1.0089550
units angstrom
no_reorient  #important for SAPT in psi4, default
symmetry c1  #important for SAPT in psi4, default
}

set PROPERTIES_ORIGIN ["COM"]
properties('MP2/aug-cc-pvtz', properties = ['dipole'])
--------------------------------------------------------------------------

    Molecular point group: c1
  Charge       = 0
  Multiplicity = 1
  Basis Set: AUG-CC-PVTZ
    Blend: AUG-CC-PVTZ
  Basis Set: (AUG-CC-PVTZ AUX)
    Blend: AUG-CC-PVTZ-JKFIT

    Orbital Energies [Eh]
    ---------------------

    Doubly Occupied:

       1A    -15.571419     2A    -15.551686     3A    -11.286928
       4A    -11.285571     5A    -11.279143     6A    -11.265559
       7A    -11.242773     8A    -11.241440     9A    -11.240170
      10A    -11.233024    11A    -11.232505    12A    -11.226625
      13A    -11.222089    14A     -1.233362    15A     -1.208190
      16A     -1.134201    17A     -1.085478    18A     -1.071195
      19A     -1.000711    20A     -0.984663    21A     -0.880071
      22A     -0.861364    23A     -0.816765    24A     -0.795645
      25A     -0.722134    26A     -0.688154    27A     -0.687859
      28A     -0.673338    29A     -0.635775    30A     -0.626609
      31A     -0.605146    32A     -0.596732    33A     -0.588191
      34A     -0.572190    35A     -0.542396    36A     -0.535053
      37A     -0.512107    38A     -0.500402    39A     -0.493527
      40A     -0.446811    41A     -0.408959    42A     -0.387663
      43A     -0.372077    44A     -0.318496    45A     -0.285540

  @DF-RHF Final Energy:  -531.40654962755309

   => Energetics <=

    Nuclear Repulsion Energy =            714.2085398929666553
    One-Electron Energy =               -2136.9307074158728028
    Two-Electron Energy =                 891.3156178953530571
    Total Energy =                       -531.4065496275530904
  Basis Set: (AUG-CC-PVTZ AUX)
    Blend: AUG-CC-PVTZ-RI
    Molecular point group: c1

    Geometry (in Angstrom), charge = 0, multiplicity = 1:

       Center              X                  Y                   Z               Mass
    ------------   -----------------  -----------------  -----------------  -----------------
         N            1.446836714938     0.935243959540    -0.562928679306    14.003074004430
         N           -0.862535285062     2.180937959540     0.500462320694    14.003074004430
         C           -0.641234285062    -0.196021040460    -0.058166679306    12.000000000000
         C            0.746297514938    -0.307898340460     0.053516420694    12.000000000000
         C           -1.439333285062     0.951591959540     0.173353320694    12.000000000000
         C           -1.270815285062    -1.421294040460    -0.330189679306    12.000000000000
         C           -2.836006285062     0.803478959540     0.188988320694    12.000000000000
         C            1.572395714938    -1.203304040460     0.538168320694    12.000000000000
         C           -2.657235285062    -1.548893040460    -0.329904679306    12.000000000000
         C           -3.440901285062    -0.423417040460    -0.067511679306    12.000000000000
         C            2.963484714938    -1.162475040460     0.507249320694    12.000000000000
         C            3.590648714938    -0.056927040460    -0.066524679306    12.000000000000
         C            2.790370714938     0.966483959540    -0.572193679306    12.000000000000
         H           -0.651892285062    -2.285869040460    -0.562802679306     1.007825032230
         H           -3.451744285062     1.680287959540     0.385835320694     1.007825032230
         H            1.051878714938    -2.032620040460     1.008169320694     1.007825032230
         H           -3.119798285062    -2.506782040460    -0.552484679306     1.007825032230
         H           -4.526041285062    -0.498222040460    -0.059580679306     1.007825032230
         H            3.547972714938    -1.971735040460     0.938550320694     1.007825032230
         H            0.025666714938     2.326455959540     0.026940320694     1.007825032230
         H           -1.495909285062     2.962466959540     0.366150320694     1.007825032230
         H            4.673286714938     0.021096959540    -0.108964679306     1.007825032230
         H            3.238048714938     1.856400959540    -1.011871679306     1.007825032230

  Basis Set: AUG-CC-PVTZ
    Blend: AUG-CC-PVTZ
  Basis Set: (AUG-CC-PVTZ AUX)
    Blend: AUG-CC-PVTZ-JKFIT
	 Reference Energy          =    -531.4065496275530904 [Eh]
	 Singles Energy            =      -0.0000000000000000 [Eh]
	 Same-Spin Energy          =      -0.5990772517896590 [Eh]
	 Opposite-Spin Energy      =      -1.8283083898972361 [Eh]
	 Correlation Energy        =      -2.4273856416868949 [Eh]
	 Total Energy              =    -533.8339352692399871 [Eh]

	 ================> DF-SCS-MP2 Energies <==================
	-----------------------------------------------------------
	 SCS Same-Spin Scale       =       0.3333333333333333 [-]
	 SCS Opposite-Spin Scale   =       1.2000000000000000 [-]
	 SCS Same-Spin Energy      =      -0.1996924172632197 [Eh]
	 SCS Opposite-Spin Energy  =      -2.1939700678766831 [Eh]
	 SCS Correlation Energy    =      -2.3936624851399029 [Eh]
	 SCS Total Energy          =    -533.8002121126929751 [Eh]
	-----------------------------------------------------------

  Dipole Moment: [D]
     X:     1.1978      Y:    -0.4052      Z:     0.0362     Total:     1.2650

*** Psi4 exiting successfully. Buy a developer a beer!
