                               Psi4 1.3.2 release

  ==> Input File <==

--------------------------------------------------------------------------
#psi4
#
memory 32 gb

molecule  {
0 1
  N        1.4447430     0.9271060    -0.5600120
  N       -0.8646290     2.1728000     0.5033790
  C       -0.6433280    -0.2041590    -0.0552500
  C        0.8343400    -0.1560850    -0.0228830
  C       -1.5594058     0.8559878     0.1556274
  C       -1.2729090    -1.4294320    -0.3272730
  C       -2.8381000     0.7953410     0.1919050
  C        1.5703020    -1.2114420     0.5410850
  C       -2.6593290    -1.5570310    -0.3269880
  C       -3.4429950    -0.4315550    -0.0645950
  C        2.9613910    -1.1706130     0.5101660
  C        3.5885550    -0.0650650    -0.0636080
  C        2.7882770     0.9583460    -0.5692770
  H       -0.6539860    -2.2940070    -0.5598860
  H       -3.4538380     1.6721500     0.3887520
  H        1.0497850    -2.0407580     1.0110860
  H       -3.1218920    -2.5149200    -0.5495680
  H       -4.5281350    -0.5063600    -0.0566640
  H        3.5458790    -1.9798730     0.9414670
  H        0.0235730     2.3183180     0.0298570
  H       -1.4980030     2.9543290     0.3690670
  H        4.6711930     0.0129590    -0.1060480
  H        3.2359550     1.8482630    -1.0089550
units angstrom
no_reorient  #important for SAPT in psi4, default
symmetry c1  #important for SAPT in psi4, default
}

set PROPERTIES_ORIGIN ["COM"]
properties('MP2/aug-cc-pvtz', properties = ['dipole'])
--------------------------------------------------------------------------

    Molecular point group: c1
  Charge       = 0
  Multiplicity = 1
  Basis Set: AUG-CC-PVTZ
    Blend: AUG-CC-PVTZ
  Basis Set: (AUG-CC-PVTZ AUX)
    Blend: AUG-CC-PVTZ-JKFIT

    Orbital Energies [Eh]
    ---------------------

    Doubly Occupied:

       1A    -15.570005     2A    -15.535467     3A    -11.294500
       4A    -11.281880     5A    -11.268833     6A    -11.264823
       7A    -11.245210     8A    -11.244694     9A    -11.242382
      10A    -11.241899    11A    -11.240926    12A    -11.227376
      13A    -11.214847    14A     -1.262409    15A     -1.191655
      16A     -1.119222    17A     -1.090178    18A     -1.067867
      19A     -1.011974    20A     -0.986143    21A     -0.877877
      22A     -0.865477    23A     -0.819027    24A     -0.803058
      25A     -0.723746    26A     -0.687196    27A     -0.677839
      28A     -0.659540    29A     -0.647635    30A     -0.618919
      31A     -0.610276    32A     -0.591925    33A     -0.577335
      34A     -0.573706    35A     -0.551328    36A     -0.536305
      37A     -0.522033    38A     -0.509683    39A     -0.483951
      40A     -0.429818    41A     -0.418745    42A     -0.390106
      43A     -0.371245    44A     -0.328385    45A     -0.298149

  @DF-RHF Final Energy:  -531.42618518651705

   => Energetics <=

    Nuclear Repulsion Energy =            714.8258868946890061
    One-Electron Energy =               -2138.1529596636369206
    Two-Electron Energy =                 891.9008875824307552
    Total Energy =                       -531.4261851865170456
  Basis Set: (AUG-CC-PVTZ AUX)
    Blend: AUG-CC-PVTZ-RI
    Molecular point group: c1

    Geometry (in Angstrom), charge = 0, multiplicity = 1:

       Center              X                  Y                   Z               Mass
    ------------   -----------------  -----------------  -----------------  -----------------
         N            1.448801099698     0.930129903174    -0.555876272314    14.003074004430
         N           -0.860570900302     2.175823903174     0.507514727686    14.003074004430
         C           -0.639269900302    -0.201135096826    -0.051114272314    12.000000000000
         C            0.838398099698    -0.153061096826    -0.018747272314    12.000000000000
         C           -1.555347700302     0.859011703174     0.159763127686    12.000000000000
         C           -1.268850900302    -1.426408096826    -0.323137272314    12.000000000000
         C           -2.834041900302     0.798364903174     0.196040727686    12.000000000000
         C            1.574360099698    -1.208418096826     0.545220727686    12.000000000000
         C           -2.655270900302    -1.554007096826    -0.322852272314    12.000000000000
         C           -3.438936900302    -0.428531096826    -0.060459272314    12.000000000000
         C            2.965449099698    -1.167589096826     0.514301727686    12.000000000000
         C            3.592613099698    -0.062041096826    -0.059472272314    12.000000000000
         C            2.792335099698     0.961369903174    -0.565141272314    12.000000000000
         H           -0.649927900302    -2.290983096826    -0.555750272314     1.007825032230
         H           -3.449779900302     1.675173903174     0.392887727686     1.007825032230
         H            1.053843099698    -2.037734096826     1.015221727686     1.007825032230
         H           -3.117833900302    -2.511896096826    -0.545432272314     1.007825032230
         H           -4.524076900302    -0.503336096826    -0.052528272314     1.007825032230
         H            3.549937099698    -1.976849096826     0.945602727686     1.007825032230
         H            0.027631099698     2.321341903174     0.033992727686     1.007825032230
         H           -1.493944900302     2.957352903174     0.373202727686     1.007825032230
         H            4.675251099698     0.015982903174    -0.101912272314     1.007825032230
         H            3.240013099698     1.851286903174    -1.004819272314     1.007825032230

  Basis Set: AUG-CC-PVTZ
    Blend: AUG-CC-PVTZ
  Basis Set: (AUG-CC-PVTZ AUX)
    Blend: AUG-CC-PVTZ-JKFIT
	 Reference Energy          =    -531.4261851865170456 [Eh]
	 Singles Energy            =      -0.0000000000000000 [Eh]
	 Same-Spin Energy          =      -0.5961580799415112 [Eh]
	 Opposite-Spin Energy      =      -1.8216193054192318 [Eh]
	 Correlation Energy        =      -2.4177773853607429 [Eh]
	 Total Energy              =    -533.8439625718777961 [Eh]

	 ================> DF-SCS-MP2 Energies <==================
	-----------------------------------------------------------
	 SCS Same-Spin Scale       =       0.3333333333333333 [-]
	 SCS Opposite-Spin Scale   =       1.2000000000000000 [-]
	 SCS Same-Spin Energy      =      -0.1987193599805037 [Eh]
	 SCS Opposite-Spin Energy  =      -2.1859431665030780 [Eh]
	 SCS Correlation Energy    =      -2.3846625264835817 [Eh]
	 SCS Total Energy          =    -533.8108477130006122 [Eh]
	-----------------------------------------------------------

  Dipole Moment: [D]
     X:     1.3376      Y:    -1.1338      Z:    -0.1704     Total:     1.7618

*** Psi4 exiting successfully. Buy a developer a beer!
