                               Psi4 1.3.2 release

  ==> Input File <==

--------------------------------------------------------------------------
#psi4
#
memory 32 gb

molecule  {
0 1
  N        1.4447430     0.9271060    -0.5600120
  N       -1.0005308     2.2264401     0.5087531
  C       -0.6433280    -0.2041590    -0.0552500
  C        0.8343400    -0.1560850    -0.0228830
  C       -1.4414270     0.9434540     0.1762700
  C       -1.2729090    -1.4294320    -0.3272730
  C       -2.8381000     0.7953410     0.1919050
  C        1.5703020    -1.2114420     0.5410850
  C       -2.6593290    -1.5570310    -0.3269880
  C       -3.4429950    -0.4315550    -0.0645950
  C        2.9613910    -1.1706130     0.5101660
  C        3.5885550    -0.0650650    -0.0636080
  C        2.7882770     0.9583460    -0.5692770
  H       -0.6539860    -2.2940070    -0.5598860
  H       -3.4538380     1.6721500     0.3887520
  H        1.0497850    -2.0407580     1.0110860
  H       -3.1218920    -2.5149200    -0.5495680
  H       -4.5281350    -0.5063600    -0.0566640
  H        3.5458790    -1.9798730     0.9414670
  H        0.0235730     2.3183180     0.0298570
  H       -1.4980030     2.9543290     0.3690670
  H        4.6711930     0.0129590    -0.1060480
  H        3.2359550     1.8482630    -1.0089550
units angstrom
no_reorient  #important for SAPT in psi4, default
symmetry c1  #important for SAPT in psi4, default
}

set PROPERTIES_ORIGIN ["COM"]
properties('MP2/aug-cc-pvtz', properties = ['dipole'])
--------------------------------------------------------------------------

    Molecular point group: c1
  Charge       = 0
  Multiplicity = 1
  Basis Set: AUG-CC-PVTZ
    Blend: AUG-CC-PVTZ
  Basis Set: (AUG-CC-PVTZ AUX)
    Blend: AUG-CC-PVTZ-JKFIT

    Orbital Energies [Eh]
    ---------------------

    Doubly Occupied:

       1A    -15.571191     2A    -15.546293     3A    -11.291716
       4A    -11.283024     5A    -11.282753     6A    -11.264836
       7A    -11.243713     8A    -11.242855     9A    -11.240209
      10A    -11.237323    11A    -11.236508    12A    -11.220810
      13A    -11.220711    14A     -1.263624    15A     -1.218015
      16A     -1.129879    17A     -1.090433    18A     -1.062086
      19A     -0.997349    20A     -0.983810    21A     -0.871696
      22A     -0.866947    23A     -0.821858    24A     -0.801583
      25A     -0.724032    26A     -0.703395    27A     -0.681662
      28A     -0.666934    29A     -0.645633    30A     -0.631341
      31A     -0.600107    32A     -0.589372    33A     -0.583158
      34A     -0.566964    35A     -0.551333    36A     -0.535746
      37A     -0.520798    38A     -0.501198    39A     -0.491967
      40A     -0.444021    41A     -0.420736    42A     -0.390562
      43A     -0.369730    44A     -0.318673    45A     -0.285584

  @DF-RHF Final Energy:  -531.42336317566492

   => Energetics <=

    Nuclear Repulsion Energy =            713.5290191163094278
    One-Electron Energy =               -2135.4804250657534794
    Two-Electron Energy =                 890.5280427737791342
    Total Energy =                       -531.4233631756649174
  Basis Set: (AUG-CC-PVTZ AUX)
    Blend: AUG-CC-PVTZ-RI
    Molecular point group: c1

    Geometry (in Angstrom), charge = 0, multiplicity = 1:

       Center              X                  Y                   Z               Mass
    ------------   -----------------  -----------------  -----------------  -----------------
         N            1.451666132396     0.919542684666    -0.557775124432    14.003074004430
         N           -0.993607667604     2.218876784666     0.510989975568    14.003074004430
         C           -0.636404867604    -0.211722315334    -0.053013124432    12.000000000000
         C            0.841263132396    -0.163648315334    -0.020646124432    12.000000000000
         C           -1.434503867604     0.935890684666     0.178506875568    12.000000000000
         C           -1.265985867604    -1.436995315334    -0.325036124432    12.000000000000
         C           -2.831176867604     0.787777684666     0.194141875568    12.000000000000
         C            1.577225132396    -1.219005315334     0.543321875568    12.000000000000
         C           -2.652405867604    -1.564594315334    -0.324751124432    12.000000000000
         C           -3.436071867604    -0.439118315334    -0.062358124432    12.000000000000
         C            2.968314132396    -1.178176315334     0.512402875568    12.000000000000
         C            3.595478132396    -0.072628315334    -0.061371124432    12.000000000000
         C            2.795200132396     0.950782684666    -0.567040124432    12.000000000000
         H           -0.647062867604    -2.301570315334    -0.557649124432     1.007825032230
         H           -3.446914867604     1.664586684666     0.390988875568     1.007825032230
         H            1.056708132396    -2.048321315334     1.013322875568     1.007825032230
         H           -3.114968867604    -2.522483315334    -0.547331124432     1.007825032230
         H           -4.521211867604    -0.513923315334    -0.054427124432     1.007825032230
         H            3.552802132396    -1.987436315334     0.943703875568     1.007825032230
         H            0.030496132396     2.310754684666     0.032093875568     1.007825032230
         H           -1.491079867604     2.946765684666     0.371303875568     1.007825032230
         H            4.678116132396     0.005395684666    -0.103811124432     1.007825032230
         H            3.242878132396     1.840699684666    -1.006718124432     1.007825032230

  Basis Set: AUG-CC-PVTZ
    Blend: AUG-CC-PVTZ
  Basis Set: (AUG-CC-PVTZ AUX)
    Blend: AUG-CC-PVTZ-JKFIT
	 Reference Energy          =    -531.4233631756649174 [Eh]
	 Singles Energy            =      -0.0000000000000000 [Eh]
	 Same-Spin Energy          =      -0.5968259338326247 [Eh]
	 Opposite-Spin Energy      =      -1.8216370187216104 [Eh]
	 Correlation Energy        =      -2.4184629525542354 [Eh]
	 Total Energy              =    -533.8418261282191679 [Eh]

	 ================> DF-SCS-MP2 Energies <==================
	-----------------------------------------------------------
	 SCS Same-Spin Scale       =       0.3333333333333333 [-]
	 SCS Opposite-Spin Scale   =       1.2000000000000000 [-]
	 SCS Same-Spin Energy      =      -0.1989419779442082 [Eh]
	 SCS Opposite-Spin Energy  =      -2.1859644224659323 [Eh]
	 SCS Correlation Energy    =      -2.3849064004101406 [Eh]
	 SCS Total Energy          =    -533.8082695760750767 [Eh]
	-----------------------------------------------------------

  Dipole Moment: [D]
     X:     1.7308      Y:    -0.5108      Z:     0.0030     Total:     1.8046

*** Psi4 exiting successfully. Buy a developer a beer!
