                               Psi4 1.4a3.dev225

  ==> Input File <==

--------------------------------------------------------------------------
#psi4
#
memory 32 gb

molecule  {
0 1
  N        1.4447430     0.9271060    -0.5600120
  N       -0.8646290     2.1728000     0.5033790
  C       -0.6433280    -0.2041590    -0.0552500
  C        0.8343400    -0.1560850    -0.0228830
  C       -1.4414270     0.9434540     0.1762700
  C       -1.2729090    -1.4294320    -0.3272730
  C       -2.8381000     0.7953410     0.1919050
  C        1.5703020    -1.2114420     0.5410850
  C       -2.6593290    -1.5570310    -0.3269880
  C       -3.4429950    -0.4315550    -0.0645950
  C        2.9613910    -1.1706130     0.5101660
  C        3.5885550    -0.0650650    -0.0636080
  C        2.8382623     0.9595083    -0.5696217
  H       -0.6539860    -2.2940070    -0.5598860
  H       -3.4538380     1.6721500     0.3887520
  H        1.0497850    -2.0407580     1.0110860
  H       -3.1218920    -2.5149200    -0.5495680
  H       -4.5281350    -0.5063600    -0.0566640
  H        3.5458790    -1.9798730     0.9414670
  H        0.0235730     2.3183180     0.0298570
  H       -1.4980030     2.9543290     0.3690670
  H        4.6711930     0.0129590    -0.1060480
  H        3.2359550     1.8482630    -1.0089550
units angstrom
no_reorient  #important for SAPT in psi4, default
symmetry c1  #important for SAPT in psi4, default
}

set PROPERTIES_ORIGIN ["COM"]
properties('MP2/aug-cc-pvtz', properties = ['dipole'])
--------------------------------------------------------------------------

    Molecular point group: c1
  Charge       = 0
  Multiplicity = 1
  Basis Set: AUG-CC-PVTZ
    Blend: AUG-CC-PVTZ
  Basis Set: (AUG-CC-PVTZ AUX)
    Blend: AUG-CC-PVTZ-JKFIT

    Orbital Energies [Eh]
    ---------------------

    Doubly Occupied:

       1A    -15.570541     2A    -15.550529     3A    -11.290054
       4A    -11.280861     5A    -11.280035     6A    -11.264486
       7A    -11.243035     8A    -11.241058     9A    -11.239357
      10A    -11.238231    11A    -11.234537    12A    -11.223877
      13A    -11.221235    14A     -1.252105    15A     -1.212277
      16A     -1.127567    17A     -1.087916    18A     -1.061054
      19A     -0.999587    20A     -0.981511    21A     -0.869466
      22A     -0.867221    23A     -0.816829    24A     -0.799505
      25A     -0.719576    26A     -0.689389    27A     -0.685136
      28A     -0.661058    29A     -0.653306    30A     -0.629516
      31A     -0.597918    32A     -0.592317    33A     -0.586105
      34A     -0.574048    35A     -0.546986    36A     -0.535297
      37A     -0.518264    38A     -0.501129    39A     -0.494606
      40A     -0.444959    41A     -0.421072    42A     -0.387802
      43A     -0.366535    44A     -0.320901    45A     -0.287369

  @DF-RHF Final Energy:  -531.44903756419399

   => Energetics <=

    Nuclear Repulsion Energy =            713.8686232288190467
    One-Electron Energy =               -2136.3029925256892056
    Two-Electron Energy =                 890.9853317326760589
    Total Energy =                       -531.4490375641939863
  Basis Set: (AUG-CC-PVTZ AUX)
    Blend: AUG-CC-PVTZ-RI
    Molecular point group: c1

    Geometry (in Angstrom), charge = 0, multiplicity = 1:

       Center              X                  Y                   Z               Mass
    ------------   -----------------  -----------------  -----------------  -----------------
         N            1.436950693548     0.923876878144    -0.557308354282    14.003074004430
         N           -0.872421306452     2.169570878144     0.506082645718    14.003074004430
         C           -0.651120306452    -0.207388121856    -0.052546354282    12.000000000000
         C            0.826547693548    -0.159314121856    -0.020179354282    12.000000000000
         C           -1.449219306452     0.940224878144     0.178973645718    12.000000000000
         C           -1.280701306452    -1.432661121856    -0.324569354282    12.000000000000
         C           -2.845892306452     0.792111878144     0.194608645718    12.000000000000
         C            1.562509693548    -1.214671121856     0.543788645718    12.000000000000
         C           -2.667121306452    -1.560260121856    -0.324284354282    12.000000000000
         C           -3.450787306452    -0.434784121856    -0.061891354282    12.000000000000
         C            2.953598693548    -1.173842121856     0.512869645718    12.000000000000
         C            3.580762693548    -0.068294121856    -0.060904354282    12.000000000000
         C            2.830469993548     0.956279178144    -0.566918054282    12.000000000000
         H           -0.661778306452    -2.297236121856    -0.557182354282     1.007825032230
         H           -3.461630306452     1.668920878144     0.391455645718     1.007825032230
         H            1.041992693548    -2.043987121856     1.013789645718     1.007825032230
         H           -3.129684306452    -2.518149121856    -0.546864354282     1.007825032230
         H           -4.535927306452    -0.509589121856    -0.053960354282     1.007825032230
         H            3.538086693548    -1.983102121856     0.944170645718     1.007825032230
         H            0.015780693548     2.315088878144     0.032560645718     1.007825032230
         H           -1.505795306452     2.951099878144     0.371770645718     1.007825032230
         H            4.663400693548     0.009729878144    -0.103344354282     1.007825032230
         H            3.228162693548     1.845033878144    -1.006251354282     1.007825032230

  Basis Set: AUG-CC-PVTZ
    Blend: AUG-CC-PVTZ
  Basis Set: (AUG-CC-PVTZ AUX)
    Blend: AUG-CC-PVTZ-JKFIT
	 Reference Energy          =    -531.4490375641939863 [Eh]
	 Singles Energy            =      -0.0000000000000000 [Eh]
	 Same-Spin Energy          =      -0.5967673124377766 [Eh]
	 Opposite-Spin Energy      =      -1.8218955846746991 [Eh]
	 Correlation Energy        =      -2.4186628971124757 [Eh]
	 Total Energy              =    -533.8677004613064128 [Eh]

	 ================> DF-SCS-MP2 Energies <==================
	-----------------------------------------------------------
	 SCS Same-Spin Scale       =       0.3333333333333333 [-]
	 SCS Opposite-Spin Scale   =       1.2000000000000000 [-]
	 SCS Same-Spin Energy      =      -0.1989224374792589 [Eh]
	 SCS Opposite-Spin Energy  =      -2.1862747016096389 [Eh]
	 SCS Correlation Energy    =      -2.3851971390888975 [Eh]
	 SCS Total Energy          =    -533.8342347032828457 [Eh]
	-----------------------------------------------------------

  Dipole Moment: [D]
     X:     1.5397      Y:    -0.4217      Z:     0.0168     Total:     1.5965

*** Psi4 exiting successfully. Buy a developer a beer!
