                               Psi4 1.3.2 release

  ==> Input File <==

--------------------------------------------------------------------------
#psi4
#
memory 32 gb

molecule  {
0 1
  N        1.4865352     0.9081841    -0.5485966
  N       -0.8646290     2.1728000     0.5033790
  C       -0.6433280    -0.2041590    -0.0552500
  C        0.8343400    -0.1560850    -0.0228830
  C       -1.4414270     0.9434540     0.1762700
  C       -1.2729090    -1.4294320    -0.3272730
  C       -2.8381000     0.7953410     0.1919050
  C        1.5703020    -1.2114420     0.5410850
  C       -2.6593290    -1.5570310    -0.3269880
  C       -3.4429950    -0.4315550    -0.0645950
  C        2.9613910    -1.1706130     0.5101660
  C        3.5885550    -0.0650650    -0.0636080
  C        2.7882770     0.9583460    -0.5692770
  H       -0.6539860    -2.2940070    -0.5598860
  H       -3.4538380     1.6721500     0.3887520
  H        1.0497850    -2.0407580     1.0110860
  H       -3.1218920    -2.5149200    -0.5495680
  H       -4.5281350    -0.5063600    -0.0566640
  H        3.5458790    -1.9798730     0.9414670
  H        0.0235730     2.3183180     0.0298570
  H       -1.4980030     2.9543290     0.3690670
  H        4.6711930     0.0129590    -0.1060480
  H        3.2359550     1.8482630    -1.0089550
units angstrom
no_reorient  #important for SAPT in psi4, default
symmetry c1  #important for SAPT in psi4, default
}

set PROPERTIES_ORIGIN ["COM"]
properties('MP2/aug-cc-pvtz', properties = ['dipole'])
--------------------------------------------------------------------------

    Molecular point group: c1
  Charge       = 0
  Multiplicity = 1
  Basis Set: AUG-CC-PVTZ
    Blend: AUG-CC-PVTZ
  Basis Set: (AUG-CC-PVTZ AUX)
    Blend: AUG-CC-PVTZ-JKFIT

    Orbital Energies [Eh]
    ---------------------

    Doubly Occupied:

       1A    -15.562877     2A    -15.552511     3A    -11.289658
       4A    -11.281586     5A    -11.276062     6A    -11.261207
       7A    -11.241101     8A    -11.240764     9A    -11.239885
      10A    -11.238784    11A    -11.235843    12A    -11.224554
      13A    -11.221834    14A     -1.270545    15A     -1.216007
      16A     -1.128961    17A     -1.087622    18A     -1.063682
      19A     -0.998399    20A     -0.981157    21A     -0.874396
      22A     -0.861672    23A     -0.818396    24A     -0.802613
      25A     -0.719842    26A     -0.692513    27A     -0.685578
      28A     -0.663268    29A     -0.654656    30A     -0.627682
      31A     -0.597162    32A     -0.592564    33A     -0.586615
      34A     -0.574643    35A     -0.554136    36A     -0.537068
      37A     -0.522680    38A     -0.503114    39A     -0.494290
      40A     -0.445895    41A     -0.412923    42A     -0.388683
      43A     -0.370906    44A     -0.318763    45A     -0.286832

  @DF-RHF Final Energy:  -531.45410251180419

   => Energetics <=

    Nuclear Repulsion Energy =            715.1095835169627435
    One-Electron Energy =               -2138.7275085526348448
    Two-Electron Energy =                 892.1638225238680207
    Total Energy =                       -531.4541025118041944
  Basis Set: (AUG-CC-PVTZ AUX)
    Blend: AUG-CC-PVTZ-RI
    Molecular point group: c1

    Geometry (in Angstrom), charge = 0, multiplicity = 1:

       Center              X                  Y                   Z               Mass
    ------------   -----------------  -----------------  -----------------  -----------------
         N            1.478828758746     0.906594825001    -0.546857105566    14.003074004430
         N           -0.872335441254     2.171210725001     0.505118494434    14.003074004430
         C           -0.651034441254    -0.205748274999    -0.053510505566    12.000000000000
         C            0.826633558746    -0.157674274999    -0.021143505566    12.000000000000
         C           -1.449133441254     0.941864725001     0.178009494434    12.000000000000
         C           -1.280615441254    -1.431021274999    -0.325533505566    12.000000000000
         C           -2.845806441254     0.793751725001     0.193644494434    12.000000000000
         C            1.562595558746    -1.213031274999     0.542824494434    12.000000000000
         C           -2.667035441254    -1.558620274999    -0.325248505566    12.000000000000
         C           -3.450701441254    -0.433144274999    -0.062855505566    12.000000000000
         C            2.953684558746    -1.172202274999     0.511905494434    12.000000000000
         C            3.580848558746    -0.066654274999    -0.061868505566    12.000000000000
         C            2.780570558746     0.956756725001    -0.567537505566    12.000000000000
         H           -0.661692441254    -2.295596274999    -0.558146505566     1.007825032230
         H           -3.461544441254     1.670560725001     0.390491494434     1.007825032230
         H            1.042078558746    -2.042347274999     1.012825494434     1.007825032230
         H           -3.129598441254    -2.516509274999    -0.547828505566     1.007825032230
         H           -4.535841441254    -0.507949274999    -0.054924505566     1.007825032230
         H            3.538172558746    -1.981462274999     0.943206494434     1.007825032230
         H            0.015866558746     2.316728725001     0.031596494434     1.007825032230
         H           -1.505709441254     2.952739725001     0.370806494434     1.007825032230
         H            4.663486558746     0.011369725001    -0.104308505566     1.007825032230
         H            3.228248558746     1.846673725001    -1.007215505566     1.007825032230

  Basis Set: AUG-CC-PVTZ
    Blend: AUG-CC-PVTZ
  Basis Set: (AUG-CC-PVTZ AUX)
    Blend: AUG-CC-PVTZ-JKFIT
	 Reference Energy          =    -531.4541025118041944 [Eh]
	 Singles Energy            =      -0.0000000000000000 [Eh]
	 Same-Spin Energy          =      -0.5960756176556627 [Eh]
	 Opposite-Spin Energy      =      -1.8193941560978506 [Eh]
	 Correlation Energy        =      -2.4154697737535136 [Eh]
	 Total Energy              =    -533.8695722855577515 [Eh]

	 ================> DF-SCS-MP2 Energies <==================
	-----------------------------------------------------------
	 SCS Same-Spin Scale       =       0.3333333333333333 [-]
	 SCS Opposite-Spin Scale   =       1.2000000000000000 [-]
	 SCS Same-Spin Energy      =      -0.1986918725518876 [Eh]
	 SCS Opposite-Spin Energy  =      -2.1832729873174208 [Eh]
	 SCS Correlation Energy    =      -2.3819648598693082 [Eh]
	 SCS Total Energy          =    -533.8360673716734937 [Eh]
	-----------------------------------------------------------

  Dipole Moment: [D]
     X:     1.4020      Y:    -0.3720      Z:    -0.0092     Total:     1.4505

*** Psi4 exiting successfully. Buy a developer a beer!
