                               Psi4 1.3.2 release

  ==> Input File <==

--------------------------------------------------------------------------
#psi4
#
memory 32 gb

molecule  {
0 1
  N        1.4447430     0.9271060    -0.5600120
  N       -0.8646290     2.1728000     0.5033790
  C       -0.6433280    -0.2041590    -0.0552500
  C        0.7930287    -0.1792274    -0.0101477
  C       -1.4414270     0.9434540     0.1762700
  C       -1.2729090    -1.4294320    -0.3272730
  C       -2.8381000     0.7953410     0.1919050
  C        1.5703020    -1.2114420     0.5410850
  C       -2.6593290    -1.5570310    -0.3269880
  C       -3.4429950    -0.4315550    -0.0645950
  C        2.9613910    -1.1706130     0.5101660
  C        3.5885550    -0.0650650    -0.0636080
  C        2.7882770     0.9583460    -0.5692770
  H       -0.6539860    -2.2940070    -0.5598860
  H       -3.4538380     1.6721500     0.3887520
  H        1.0497850    -2.0407580     1.0110860
  H       -3.1218920    -2.5149200    -0.5495680
  H       -4.5281350    -0.5063600    -0.0566640
  H        3.5458790    -1.9798730     0.9414670
  H        0.0235730     2.3183180     0.0298570
  H       -1.4980030     2.9543290     0.3690670
  H        4.6711930     0.0129590    -0.1060480
  H        3.2359550     1.8482630    -1.0089550
units angstrom
no_reorient  #important for SAPT in psi4, default
symmetry c1  #important for SAPT in psi4, default
}

set PROPERTIES_ORIGIN ["COM"]
properties('MP2/aug-cc-pvtz', properties = ['dipole'])
--------------------------------------------------------------------------

    Molecular point group: c1
  Charge       = 0
  Multiplicity = 1
  Basis Set: AUG-CC-PVTZ
    Blend: AUG-CC-PVTZ
  Basis Set: (AUG-CC-PVTZ AUX)
    Blend: AUG-CC-PVTZ-JKFIT

    Orbital Energies [Eh]
    ---------------------

    Doubly Occupied:

       1A    -15.569314     2A    -15.552032     3A    -11.290799
       4A    -11.283309     5A    -11.280292     6A    -11.262985
       7A    -11.241681     8A    -11.241516     9A    -11.240744
      10A    -11.240146    11A    -11.233483    12A    -11.225300
      13A    -11.222318    14A     -1.252056    15A     -1.214032
      16A     -1.130565    17A     -1.084927    18A     -1.065848
      19A     -0.998044    20A     -0.982114    21A     -0.874777
      22A     -0.861820    23A     -0.816714    24A     -0.800932
      25A     -0.719719    26A     -0.690631    27A     -0.686303
      28A     -0.665728    29A     -0.648871    30A     -0.627066
      31A     -0.597822    32A     -0.594143    33A     -0.587382
      34A     -0.573898    35A     -0.546888    36A     -0.537100
      37A     -0.518568    38A     -0.502192    39A     -0.496395
      40A     -0.446488    41A     -0.417809    42A     -0.385128
      43A     -0.371721    44A     -0.318305    45A     -0.286195

  @DF-RHF Final Energy:  -531.44797598213358

   => Energetics <=

    Nuclear Repulsion Energy =            714.5745250918068905
    One-Electron Energy =               -2137.6768039494127152
    Two-Electron Energy =                 891.6543028754722400
    Total Energy =                       -531.4479759821335847
  Basis Set: (AUG-CC-PVTZ AUX)
    Blend: AUG-CC-PVTZ-RI
    Molecular point group: c1

    Geometry (in Angstrom), charge = 0, multiplicity = 1:

       Center              X                  Y                   Z               Mass
    ------------   -----------------  -----------------  -----------------  -----------------
         N            1.443391961593     0.925591652708    -0.558231190248    14.003074004430
         N           -0.865980038407     2.171285652708     0.505159809752    14.003074004430
         C           -0.644679038407    -0.205673347292    -0.053469190248    12.000000000000
         C            0.791677661593    -0.180741747292    -0.008366890248    12.000000000000
         C           -1.442778038407     0.941939652708     0.178050809752    12.000000000000
         C           -1.274260038407    -1.430946347292    -0.325492190248    12.000000000000
         C           -2.839451038407     0.793826652708     0.193685809752    12.000000000000
         C            1.568950961593    -1.212956347292     0.542865809752    12.000000000000
         C           -2.660680038407    -1.558545347292    -0.325207190248    12.000000000000
         C           -3.444346038407    -0.433069347292    -0.062814190248    12.000000000000
         C            2.960039961593    -1.172127347292     0.511946809752    12.000000000000
         C            3.587203961593    -0.066579347292    -0.061827190248    12.000000000000
         C            2.786925961593     0.956831652708    -0.567496190248    12.000000000000
         H           -0.655337038407    -2.295521347292    -0.558105190248     1.007825032230
         H           -3.455189038407     1.670635652708     0.390532809752     1.007825032230
         H            1.048433961593    -2.042272347292     1.012866809752     1.007825032230
         H           -3.123243038407    -2.516434347292    -0.547787190248     1.007825032230
         H           -4.529486038407    -0.507874347292    -0.054883190248     1.007825032230
         H            3.544527961593    -1.981387347292     0.943247809752     1.007825032230
         H            0.022221961593     2.316803652708     0.031637809752     1.007825032230
         H           -1.499354038407     2.952814652708     0.370847809752     1.007825032230
         H            4.669841961593     0.011444652708    -0.104267190248     1.007825032230
         H            3.234603961593     1.846748652708    -1.007174190248     1.007825032230

  Basis Set: AUG-CC-PVTZ
    Blend: AUG-CC-PVTZ
  Basis Set: (AUG-CC-PVTZ AUX)
    Blend: AUG-CC-PVTZ-JKFIT
	 Reference Energy          =    -531.4479759821335847 [Eh]
	 Singles Energy            =      -0.0000000000000000 [Eh]
	 Same-Spin Energy          =      -0.5974801526033259 [Eh]
	 Opposite-Spin Energy      =      -1.8225298520085904 [Eh]
	 Correlation Energy        =      -2.4200100046119162 [Eh]
	 Total Energy              =    -533.8679859867454525 [Eh]

	 ================> DF-SCS-MP2 Energies <==================
	-----------------------------------------------------------
	 SCS Same-Spin Scale       =       0.3333333333333333 [-]
	 SCS Opposite-Spin Scale   =       1.2000000000000000 [-]
	 SCS Same-Spin Energy      =      -0.1991600508677753 [Eh]
	 SCS Opposite-Spin Energy  =      -2.1870358224103086 [Eh]
	 SCS Correlation Energy    =      -2.3861958732780839 [Eh]
	 SCS Total Energy          =    -533.8341718554116824 [Eh]
	-----------------------------------------------------------

  Dipole Moment: [D]
     X:     1.3535      Y:    -0.4181      Z:     0.0206     Total:     1.4168

*** Psi4 exiting successfully. Buy a developer a beer!
