                               Psi4 1.3.2 release

  ==> Input File <==

--------------------------------------------------------------------------
#psi4
#
memory 32 gb

molecule  {
0 1
  N        1.4447430     0.9271060    -0.5600120
  N       -0.8646290     2.1728000     0.5033790
  C       -0.6638683    -0.2178057    -0.0570916
  C        0.8343400    -0.1560850    -0.0228830
  C       -1.4414270     0.9434540     0.1762700
  C       -1.2729090    -1.4294320    -0.3272730
  C       -2.8381000     0.7953410     0.1919050
  C        1.5703020    -1.2114420     0.5410850
  C       -2.6593290    -1.5570310    -0.3269880
  C       -3.4429950    -0.4315550    -0.0645950
  C        2.9613910    -1.1706130     0.5101660
  C        3.5885550    -0.0650650    -0.0636080
  C        2.7882770     0.9583460    -0.5692770
  H       -0.6539860    -2.2940070    -0.5598860
  H       -3.4538380     1.6721500     0.3887520
  H        1.0497850    -2.0407580     1.0110860
  H       -3.1218920    -2.5149200    -0.5495680
  H       -4.5281350    -0.5063600    -0.0566640
  H        3.5458790    -1.9798730     0.9414670
  H        0.0235730     2.3183180     0.0298570
  H       -1.4980030     2.9543290     0.3690670
  H        4.6711930     0.0129590    -0.1060480
  H        3.2359550     1.8482630    -1.0089550
units angstrom
no_reorient  #important for SAPT in psi4, default
symmetry c1  #important for SAPT in psi4, default
}

set PROPERTIES_ORIGIN ["COM"]
properties('MP2/aug-cc-pvtz', properties = ['dipole'])
--------------------------------------------------------------------------

    Molecular point group: c1
  Charge       = 0
  Multiplicity = 1
  Basis Set: AUG-CC-PVTZ
    Blend: AUG-CC-PVTZ
  Basis Set: (AUG-CC-PVTZ AUX)
    Blend: AUG-CC-PVTZ-JKFIT

    Orbital Energies [Eh]
    ---------------------

    Doubly Occupied:

       1A    -15.569297     2A    -15.551708     3A    -11.291139
       4A    -11.281609     5A    -11.280529     6A    -11.263532
       7A    -11.242881     8A    -11.241951     9A    -11.237297
      10A    -11.236712    11A    -11.234375    12A    -11.223338
      13A    -11.220738    14A     -1.262080    15A     -1.214188
      16A     -1.129896    17A     -1.089015    18A     -1.059693
      19A     -0.999509    20A     -0.980634    21A     -0.869649
      22A     -0.864217    23A     -0.817230    24A     -0.801757
      25A     -0.718507    26A     -0.690785    27A     -0.684777
      28A     -0.662491    29A     -0.653224    30A     -0.627190
      31A     -0.594638    32A     -0.592099    33A     -0.588915
      34A     -0.573909    35A     -0.550554    36A     -0.536732
      37A     -0.520729    38A     -0.503061    39A     -0.490912
      40A     -0.446025    41A     -0.420249    42A     -0.388866
      43A     -0.368351    44A     -0.320799    45A     -0.286848

  @DF-RHF Final Energy:  -531.45335999597239

   => Energetics <=

    Nuclear Repulsion Energy =            714.5941124489787626
    One-Electron Energy =               -2137.7296746369370339
    Two-Electron Energy =                 891.6822021919859935
    Total Energy =                       -531.4533599959723915
  Basis Set: (AUG-CC-PVTZ AUX)
    Blend: AUG-CC-PVTZ-RI
    Molecular point group: c1

    Geometry (in Angstrom), charge = 0, multiplicity = 1:

       Center              X                  Y                   Z               Mass
    ------------   -----------------  -----------------  -----------------  -----------------
         N            1.441926500901     0.924921700607    -0.557202743185    14.003074004430
         N           -0.867445499099     2.170615700607     0.506188256815    14.003074004430
         C           -0.666684799099    -0.219989999393    -0.054282343185    12.000000000000
         C            0.831523500901    -0.158269299393    -0.020073743185    12.000000000000
         C           -1.444243499099     0.941269700607     0.179079256815    12.000000000000
         C           -1.275725499099    -1.431616299393    -0.324463743185    12.000000000000
         C           -2.840916499099     0.793156700607     0.194714256815    12.000000000000
         C            1.567485500901    -1.213626299393     0.543894256815    12.000000000000
         C           -2.662145499099    -1.559215299393    -0.324178743185    12.000000000000
         C           -3.445811499099    -0.433739299393    -0.061785743185    12.000000000000
         C            2.958574500901    -1.172797299393     0.512975256815    12.000000000000
         C            3.585738500901    -0.067249299393    -0.060798743185    12.000000000000
         C            2.785460500901     0.956161700607    -0.566467743185    12.000000000000
         H           -0.656802499099    -2.296191299393    -0.557076743185     1.007825032230
         H           -3.456654499099     1.669965700607     0.391561256815     1.007825032230
         H            1.046968500901    -2.042942299393     1.013895256815     1.007825032230
         H           -3.124708499099    -2.517104299393    -0.546758743185     1.007825032230
         H           -4.530951499099    -0.508544299393    -0.053854743185     1.007825032230
         H            3.543062500901    -1.982057299393     0.944276256815     1.007825032230
         H            0.020756500901     2.316133700607     0.032666256815     1.007825032230
         H           -1.500819499099     2.952144700607     0.371876256815     1.007825032230
         H            4.668376500901     0.010774700607    -0.103238743185     1.007825032230
         H            3.233138500901     1.846078700607    -1.006145743185     1.007825032230

  Basis Set: AUG-CC-PVTZ
    Blend: AUG-CC-PVTZ
  Basis Set: (AUG-CC-PVTZ AUX)
    Blend: AUG-CC-PVTZ-JKFIT
	 Reference Energy          =    -531.4533599959723915 [Eh]
	 Singles Energy            =      -0.0000000000000000 [Eh]
	 Same-Spin Energy          =      -0.5962989177758263 [Eh]
	 Opposite-Spin Energy      =      -1.8204171154962565 [Eh]
	 Correlation Energy        =      -2.4167160332720830 [Eh]
	 Total Energy              =    -533.8700760292445011 [Eh]

	 ================> DF-SCS-MP2 Energies <==================
	-----------------------------------------------------------
	 SCS Same-Spin Scale       =       0.3333333333333333 [-]
	 SCS Opposite-Spin Scale   =       1.2000000000000000 [-]
	 SCS Same-Spin Energy      =      -0.1987663059252754 [Eh]
	 SCS Opposite-Spin Energy  =      -2.1845005385955076 [Eh]
	 SCS Correlation Energy    =      -2.3832668445207830 [Eh]
	 SCS Total Energy          =    -533.8366268404931816 [Eh]
	-----------------------------------------------------------

  Dipole Moment: [D]
     X:     1.5519      Y:    -0.4161      Z:     0.0114     Total:     1.6067

*** Psi4 exiting successfully. Buy a developer a beer!
