                               Psi4 1.4a3.dev225

  ==> Input File <==

--------------------------------------------------------------------------
#psi4
#
memory 32 gb

molecule  {
0 1
  N        1.4447430     0.9271060    -0.5600120
  N       -0.8646290     2.1728000     0.5033790
  C       -0.6433280    -0.2041590    -0.0552500
  C        0.8143554    -0.1567352    -0.0233207
  C       -1.4414270     0.9434540     0.1762700
  C       -1.2729090    -1.4294320    -0.3272730
  C       -2.8381000     0.7953410     0.1919050
  C        1.5703020    -1.2114420     0.5410850
  C       -2.6593290    -1.5570310    -0.3269880
  C       -3.4429950    -0.4315550    -0.0645950
  C        2.9613910    -1.1706130     0.5101660
  C        3.5885550    -0.0650650    -0.0636080
  C        2.7882770     0.9583460    -0.5692770
  H       -0.6539860    -2.2940070    -0.5598860
  H       -3.4538380     1.6721500     0.3887520
  H        1.0497850    -2.0407580     1.0110860
  H       -3.1218920    -2.5149200    -0.5495680
  H       -4.5281350    -0.5063600    -0.0566640
  H        3.5458790    -1.9798730     0.9414670
  H        0.0235730     2.3183180     0.0298570
  H       -1.4980030     2.9543290     0.3690670
  H        4.6711930     0.0129590    -0.1060480
  H        3.2359550     1.8482630    -1.0089550
units angstrom
no_reorient  #important for SAPT in psi4, default
symmetry c1  #important for SAPT in psi4, default
}

set PROPERTIES_ORIGIN ["COM"]
properties('MP2/aug-cc-pvtz', properties = ['dipole'])
--------------------------------------------------------------------------

    Molecular point group: c1
  Charge       = 0
  Multiplicity = 1
  Basis Set: AUG-CC-PVTZ
    Blend: AUG-CC-PVTZ
  Basis Set: (AUG-CC-PVTZ AUX)
    Blend: AUG-CC-PVTZ-JKFIT

    Orbital Energies [Eh]
    ---------------------

    Doubly Occupied:

       1A    -15.568527     2A    -15.551696     3A    -11.290895
       4A    -11.281997     5A    -11.280711     6A    -11.262778
       7A    -11.242608     8A    -11.242116     9A    -11.240189
      10A    -11.239234    11A    -11.234105    12A    -11.224650
      13A    -11.221917    14A     -1.259297    15A     -1.214418
      16A     -1.129190    17A     -1.087204    18A     -1.062795
      19A     -0.997821    20A     -0.981356    21A     -0.873258
      22A     -0.862861    23A     -0.817316    24A     -0.800775
      25A     -0.719094    26A     -0.691167    27A     -0.685636
      28A     -0.664099    29A     -0.652069    30A     -0.626936
      31A     -0.596285    32A     -0.592967    33A     -0.586812
      34A     -0.574305    35A     -0.549295    36A     -0.536999
      37A     -0.520026    38A     -0.502408    39A     -0.495226
      40A     -0.445969    41A     -0.418827    42A     -0.388217
      43A     -0.368955    44A     -0.318620    45A     -0.286547

  @DF-RHF Final Energy:  -531.45208836240192

   => Energetics <=

    Nuclear Repulsion Energy =            714.6458587984890301
    One-Electron Energy =               -2137.8195496254015779
    Two-Electron Energy =                 891.7216024645107382
    Total Energy =                       -531.4520883624019234
  Basis Set: (AUG-CC-PVTZ AUX)
    Blend: AUG-CC-PVTZ-RI
    Molecular point group: c1

    Geometry (in Angstrom), charge = 0, multiplicity = 1:

       Center              X                  Y                   Z               Mass
    ------------   -----------------  -----------------  -----------------  -----------------
         N            1.441887294484     0.924004755834    -0.557301792834    14.003074004430
         N           -0.867484705516     2.169698755834     0.506089207166    14.003074004430
         C           -0.646183705516    -0.207260244166    -0.052539792834    12.000000000000
         C            0.811499694484    -0.159836444166    -0.020610492834    12.000000000000
         C           -1.444282705516     0.940352755834     0.178980207166    12.000000000000
         C           -1.275764705516    -1.432533244166    -0.324562792834    12.000000000000
         C           -2.840955705516     0.792239755834     0.194615207166    12.000000000000
         C            1.567446294484    -1.214543244166     0.543795207166    12.000000000000
         C           -2.662184705516    -1.560132244166    -0.324277792834    12.000000000000
         C           -3.445850705516    -0.434656244166    -0.061884792834    12.000000000000
         C            2.958535294484    -1.173714244166     0.512876207166    12.000000000000
         C            3.585699294484    -0.068166244166    -0.060897792834    12.000000000000
         C            2.785421294484     0.955244755834    -0.566566792834    12.000000000000
         H           -0.656841705516    -2.297108244166    -0.557175792834     1.007825032230
         H           -3.456693705516     1.669048755834     0.391462207166     1.007825032230
         H            1.046929294484    -2.043859244166     1.013796207166     1.007825032230
         H           -3.124747705516    -2.518021244166    -0.546857792834     1.007825032230
         H           -4.530990705516    -0.509461244166    -0.053953792834     1.007825032230
         H            3.543023294484    -1.982974244166     0.944177207166     1.007825032230
         H            0.020717294484     2.315216755834     0.032567207166     1.007825032230
         H           -1.500858705516     2.951227755834     0.371777207166     1.007825032230
         H            4.668337294484     0.009857755834    -0.103337792834     1.007825032230
         H            3.233099294484     1.845161755834    -1.006244792834     1.007825032230

  Basis Set: AUG-CC-PVTZ
    Blend: AUG-CC-PVTZ
  Basis Set: (AUG-CC-PVTZ AUX)
    Blend: AUG-CC-PVTZ-JKFIT
	 Reference Energy          =    -531.4520883624019234 [Eh]
	 Singles Energy            =      -0.0000000000000000 [Eh]
	 Same-Spin Energy          =      -0.5968712759862700 [Eh]
	 Opposite-Spin Energy      =      -1.8213458382870860 [Eh]
	 Correlation Energy        =      -2.4182171142733559 [Eh]
	 Total Energy              =    -533.8703054766752985 [Eh]

	 ================> DF-SCS-MP2 Energies <==================
	-----------------------------------------------------------
	 SCS Same-Spin Scale       =       0.3333333333333333 [-]
	 SCS Opposite-Spin Scale   =       1.2000000000000000 [-]
	 SCS Same-Spin Energy      =      -0.1989570919954233 [Eh]
	 SCS Opposite-Spin Energy  =      -2.1856150059445030 [Eh]
	 SCS Correlation Energy    =      -2.3845720979399263 [Eh]
	 SCS Total Energy          =    -533.8366604603418182 [Eh]
	-----------------------------------------------------------

  Dipole Moment: [D]
     X:     1.4316      Y:    -0.4170      Z:     0.0141     Total:     1.4911

*** Psi4 exiting successfully. Buy a developer a beer!
