                               Psi4 1.3.2 release

  ==> Input File <==

--------------------------------------------------------------------------
#psi4
#
memory 32 gb

molecule  {
0 1
  N        1.4447430     0.9271060    -0.5600120
  N       -0.8646290     2.1728000     0.5033790
  C       -0.6433280    -0.2041590    -0.0552500
  C        0.8765480    -0.1342284    -0.0349311
  C       -1.4414270     0.9434540     0.1762700
  C       -1.2729090    -1.4294320    -0.3272730
  C       -2.8381000     0.7953410     0.1919050
  C        1.5703020    -1.2114420     0.5410850
  C       -2.6593290    -1.5570310    -0.3269880
  C       -3.4429950    -0.4315550    -0.0645950
  C        2.9613910    -1.1706130     0.5101660
  C        3.5885550    -0.0650650    -0.0636080
  C        2.7882770     0.9583460    -0.5692770
  H       -0.6539860    -2.2940070    -0.5598860
  H       -3.4538380     1.6721500     0.3887520
  H        1.0497850    -2.0407580     1.0110860
  H       -3.1218920    -2.5149200    -0.5495680
  H       -4.5281350    -0.5063600    -0.0566640
  H        3.5458790    -1.9798730     0.9414670
  H        0.0235730     2.3183180     0.0298570
  H       -1.4980030     2.9543290     0.3690670
  H        4.6711930     0.0129590    -0.1060480
  H        3.2359550     1.8482630    -1.0089550
units angstrom
no_reorient  #important for SAPT in psi4, default
symmetry c1  #important for SAPT in psi4, default
}

set PROPERTIES_ORIGIN ["COM"]
properties('MP2/aug-cc-pvtz', properties = ['dipole'])
--------------------------------------------------------------------------

    Molecular point group: c1
  Charge       = 0
  Multiplicity = 1
  Basis Set: AUG-CC-PVTZ
    Blend: AUG-CC-PVTZ
  Basis Set: (AUG-CC-PVTZ AUX)
    Blend: AUG-CC-PVTZ-JKFIT

    Orbital Energies [Eh]
    ---------------------

    Doubly Occupied:

       1A    -15.568066     2A    -15.550153     3A    -11.289318
       4A    -11.282530     5A    -11.278600     6A    -11.264002
       7A    -11.243728     8A    -11.242680     9A    -11.237646
      10A    -11.236313    11A    -11.235097    12A    -11.222649
      13A    -11.220141    14A     -1.275071    15A     -1.213418
      16A     -1.125519    17A     -1.093309    18A     -1.057382
      19A     -0.997405    20A     -0.979069    21A     -0.871752
      22A     -0.864706    23A     -0.816971    24A     -0.800004
      25A     -0.718759    26A     -0.690727    27A     -0.683578
      28A     -0.662158    29A     -0.656590    30A     -0.627144
      31A     -0.593539    32A     -0.590735    33A     -0.585182
      34A     -0.574615    35A     -0.555720    36A     -0.535821
      37A     -0.521005    38A     -0.500510    39A     -0.491712
      40A     -0.443959    41A     -0.421881    42A     -0.393313
      43A     -0.365761    44A     -0.319954    45A     -0.286675

  @DF-RHF Final Energy:  -531.45300918990449

   => Energetics <=

    Nuclear Repulsion Energy =            714.7371446469900320
    One-Electron Energy =               -2138.0105718919267019
    Two-Electron Energy =                 891.8204180550320643
    Total Energy =                       -531.4530091899044919
  Basis Set: (AUG-CC-PVTZ AUX)
    Blend: AUG-CC-PVTZ-RI
    Molecular point group: c1

    Geometry (in Angstrom), charge = 0, multiplicity = 1:

       Center              X                  Y                   Z               Mass
    ------------   -----------------  -----------------  -----------------  -----------------
         N            1.437499407015     0.922416828883    -0.556482641863    14.003074004430
         N           -0.871872592985     2.168110828883     0.506908358137    14.003074004430
         C           -0.650571592985    -0.208848171117    -0.051720641863    12.000000000000
         C            0.869304407015    -0.138917571117    -0.031401741863    12.000000000000
         C           -1.448670592985     0.938764828883     0.179799358137    12.000000000000
         C           -1.280152592985    -1.434121171117    -0.323743641863    12.000000000000
         C           -2.845343592985     0.790651828883     0.195434358137    12.000000000000
         C            1.563058407015    -1.216131171117     0.544614358137    12.000000000000
         C           -2.666572592985    -1.561720171117    -0.323458641863    12.000000000000
         C           -3.450238592985    -0.436244171117    -0.061065641863    12.000000000000
         C            2.954147407015    -1.175302171117     0.513695358137    12.000000000000
         C            3.581311407015    -0.069754171117    -0.060078641863    12.000000000000
         C            2.781033407015     0.953656828883    -0.565747641863    12.000000000000
         H           -0.661229592985    -2.298696171117    -0.556356641863     1.007825032230
         H           -3.461081592985     1.667460828883     0.392281358137     1.007825032230
         H            1.042541407015    -2.045447171117     1.014615358137     1.007825032230
         H           -3.129135592985    -2.519609171117    -0.546038641863     1.007825032230
         H           -4.535378592985    -0.511049171117    -0.053134641863     1.007825032230
         H            3.538635407015    -1.984562171117     0.944996358137     1.007825032230
         H            0.016329407015     2.313628828883     0.033386358137     1.007825032230
         H           -1.505246592985     2.949639828883     0.372596358137     1.007825032230
         H            4.663949407015     0.008269828883    -0.102518641863     1.007825032230
         H            3.228711407015     1.843573828883    -1.005425641863     1.007825032230

  Basis Set: AUG-CC-PVTZ
    Blend: AUG-CC-PVTZ
  Basis Set: (AUG-CC-PVTZ AUX)
    Blend: AUG-CC-PVTZ-JKFIT
	 Reference Energy          =    -531.4530091899044919 [Eh]
	 Singles Energy            =      -0.0000000000000000 [Eh]
	 Same-Spin Energy          =      -0.5957087463001229 [Eh]
	 Opposite-Spin Energy      =      -1.8194481331416292 [Eh]
	 Correlation Energy        =      -2.4151568794417519 [Eh]
	 Total Energy              =    -533.8681660693462163 [Eh]

	 ================> DF-SCS-MP2 Energies <==================
	-----------------------------------------------------------
	 SCS Same-Spin Scale       =       0.3333333333333333 [-]
	 SCS Opposite-Spin Scale   =       1.2000000000000000 [-]
	 SCS Same-Spin Energy      =      -0.1985695821000410 [Eh]
	 SCS Opposite-Spin Energy  =      -2.1833377597699548 [Eh]
	 SCS Correlation Energy    =      -2.3819073418699959 [Eh]
	 SCS Total Energy          =    -533.8349165317745246 [Eh]
	-----------------------------------------------------------

  Dipole Moment: [D]
     X:     1.6988      Y:    -0.4181      Z:     0.0061     Total:     1.7495

*** Psi4 exiting successfully. Buy a developer a beer!
