                               Psi4 1.4a3.dev225

  ==> Input File <==

--------------------------------------------------------------------------
#psi4
#
memory 32 gb

molecule  {
0 1
  N        1.4447430     0.9271060    -0.5600120
  N       -0.8646290     2.1728000     0.5033790
  C       -0.6433280    -0.2041590    -0.0552500
  C        0.8843016    -0.1544596    -0.0217886
  C       -1.4414270     0.9434540     0.1762700
  C       -1.2729090    -1.4294320    -0.3272730
  C       -2.8381000     0.7953410     0.1919050
  C        1.5703020    -1.2114420     0.5410850
  C       -2.6593290    -1.5570310    -0.3269880
  C       -3.4429950    -0.4315550    -0.0645950
  C        2.9613910    -1.1706130     0.5101660
  C        3.5885550    -0.0650650    -0.0636080
  C        2.7882770     0.9583460    -0.5692770
  H       -0.6539860    -2.2940070    -0.5598860
  H       -3.4538380     1.6721500     0.3887520
  H        1.0497850    -2.0407580     1.0110860
  H       -3.1218920    -2.5149200    -0.5495680
  H       -4.5281350    -0.5063600    -0.0566640
  H        3.5458790    -1.9798730     0.9414670
  H        0.0235730     2.3183180     0.0298570
  H       -1.4980030     2.9543290     0.3690670
  H        4.6711930     0.0129590    -0.1060480
  H        3.2359550     1.8482630    -1.0089550
units angstrom
no_reorient  #important for SAPT in psi4, default
symmetry c1  #important for SAPT in psi4, default
}

set PROPERTIES_ORIGIN ["COM"]
properties('MP2/aug-cc-pvtz', properties = ['dipole'])
--------------------------------------------------------------------------

    Molecular point group: c1
  Charge       = 0
  Multiplicity = 1
  Basis Set: AUG-CC-PVTZ
    Blend: AUG-CC-PVTZ
  Basis Set: (AUG-CC-PVTZ AUX)
    Blend: AUG-CC-PVTZ-JKFIT

    Orbital Energies [Eh]
    ---------------------

    Doubly Occupied:

       1A    -15.569606     2A    -15.549567     3A    -11.288199
       4A    -11.283161     5A    -11.278317     6A    -11.265265
       7A    -11.244040     8A    -11.240589     9A    -11.236870
      10A    -11.235750    11A    -11.235162    12A    -11.222323
      13A    -11.219597    14A     -1.271239    15A     -1.212730
      16A     -1.125042    17A     -1.093811    18A     -1.058646
      19A     -0.997539    20A     -0.978730    21A     -0.870350
      22A     -0.866384    23A     -0.816008    24A     -0.800174
      25A     -0.718850    26A     -0.689397    27A     -0.683371
      28A     -0.663078    29A     -0.655305    30A     -0.627682
      31A     -0.594052    32A     -0.590845    33A     -0.584919
      34A     -0.573926    35A     -0.554871    36A     -0.535489
      37A     -0.519870    38A     -0.499082    39A     -0.490123
      40A     -0.443449    41A     -0.424852    42A     -0.391227
      43A     -0.368192    44A     -0.320343    45A     -0.286445

  @DF-RHF Final Energy:  -531.45249144501736

   => Energetics <=

    Nuclear Repulsion Energy =            714.6480571857501900
    One-Electron Energy =               -2137.8521579929288237
    Two-Electron Energy =                 891.7516093621613891
    Total Energy =                       -531.4524914450173583
  Basis Set: (AUG-CC-PVTZ AUX)
    Blend: AUG-CC-PVTZ-RI
    Molecular point group: c1

    Geometry (in Angstrom), charge = 0, multiplicity = 1:

       Center              X                  Y                   Z               Mass
    ------------   -----------------  -----------------  -----------------  -----------------
         N            1.436952365659     0.923844204953    -0.557409887404    14.003074004430
         N           -0.872419634341     2.169538204953     0.505981112596    14.003074004430
         C           -0.651118634341    -0.207420795047    -0.052647887404    12.000000000000
         C            0.876510965659    -0.157721395047    -0.019186487404    12.000000000000
         C           -1.449217634341     0.940192204953     0.178872112596    12.000000000000
         C           -1.280699634341    -1.432693795047    -0.324670887404    12.000000000000
         C           -2.845890634341     0.792079204953     0.194507112596    12.000000000000
         C            1.562511365659    -1.214703795047     0.543687112596    12.000000000000
         C           -2.667119634341    -1.560292795047    -0.324385887404    12.000000000000
         C           -3.450785634341    -0.434816795047    -0.061992887404    12.000000000000
         C            2.953600365659    -1.173874795047     0.512768112596    12.000000000000
         C            3.580764365659    -0.068326795047    -0.061005887404    12.000000000000
         C            2.780486365659     0.955084204953    -0.566674887404    12.000000000000
         H           -0.661776634341    -2.297268795047    -0.557283887404     1.007825032230
         H           -3.461628634341     1.668888204953     0.391354112596     1.007825032230
         H            1.041994365659    -2.044019795047     1.013688112596     1.007825032230
         H           -3.129682634341    -2.518181795047    -0.546965887404     1.007825032230
         H           -4.535925634341    -0.509621795047    -0.054061887404     1.007825032230
         H            3.538088365659    -1.983134795047     0.944069112596     1.007825032230
         H            0.015782365659     2.315056204953     0.032459112596     1.007825032230
         H           -1.505793634341     2.951067204953     0.371669112596     1.007825032230
         H            4.663402365659     0.009697204953    -0.103445887404     1.007825032230
         H            3.228164365659     1.845001204953    -1.006352887404     1.007825032230

  Basis Set: AUG-CC-PVTZ
    Blend: AUG-CC-PVTZ
  Basis Set: (AUG-CC-PVTZ AUX)
    Blend: AUG-CC-PVTZ-JKFIT
	 Reference Energy          =    -531.4524914450173583 [Eh]
	 Singles Energy            =      -0.0000000000000000 [Eh]
	 Same-Spin Energy          =      -0.5958234994132230 [Eh]
	 Opposite-Spin Energy      =      -1.8197228087081287 [Eh]
	 Correlation Energy        =      -2.4155463081213515 [Eh]
	 Total Energy              =    -533.8680377531387649 [Eh]

	 ================> DF-SCS-MP2 Energies <==================
	-----------------------------------------------------------
	 SCS Same-Spin Scale       =       0.3333333333333333 [-]
	 SCS Opposite-Spin Scale   =       1.2000000000000000 [-]
	 SCS Same-Spin Energy      =      -0.1986078331377410 [Eh]
	 SCS Opposite-Spin Energy  =      -2.1836673704497542 [Eh]
	 SCS Correlation Energy    =      -2.3822752035874952 [Eh]
	 SCS Total Energy          =    -533.8347666486048411 [Eh]
	-----------------------------------------------------------

  Dipole Moment: [D]
     X:     1.7592      Y:    -0.4272      Z:     0.0140     Total:     1.8104

*** Psi4 exiting successfully. Buy a developer a beer!
