                               Psi4 1.4a3.dev225

  ==> Input File <==

--------------------------------------------------------------------------
#psi4
#
memory 32 gb

molecule  {
0 1
  N        1.4447430     0.9271060    -0.5600120
  N       -0.8646290     2.1728000     0.5033790
  C       -0.6433280    -0.2041590    -0.0552500
  C        0.8343400    -0.1560850    -0.0228830
  C       -1.4331680     0.9610566     0.1809538
  C       -1.2729090    -1.4294320    -0.3272730
  C       -2.8381000     0.7953410     0.1919050
  C        1.5703020    -1.2114420     0.5410850
  C       -2.6593290    -1.5570310    -0.3269880
  C       -3.4429950    -0.4315550    -0.0645950
  C        2.9613910    -1.1706130     0.5101660
  C        3.5885550    -0.0650650    -0.0636080
  C        2.7882770     0.9583460    -0.5692770
  H       -0.6539860    -2.2940070    -0.5598860
  H       -3.4538380     1.6721500     0.3887520
  H        1.0497850    -2.0407580     1.0110860
  H       -3.1218920    -2.5149200    -0.5495680
  H       -4.5281350    -0.5063600    -0.0566640
  H        3.5458790    -1.9798730     0.9414670
  H        0.0235730     2.3183180     0.0298570
  H       -1.4980030     2.9543290     0.3690670
  H        4.6711930     0.0129590    -0.1060480
  H        3.2359550     1.8482630    -1.0089550
units angstrom
no_reorient  #important for SAPT in psi4, default
symmetry c1  #important for SAPT in psi4, default
}

set PROPERTIES_ORIGIN ["COM"]
properties('MP2/aug-cc-pvtz', properties = ['dipole'])
--------------------------------------------------------------------------

    Molecular point group: c1
  Charge       = 0
  Multiplicity = 1
  Basis Set: AUG-CC-PVTZ
    Blend: AUG-CC-PVTZ
  Basis Set: (AUG-CC-PVTZ AUX)
    Blend: AUG-CC-PVTZ-JKFIT

    Orbital Energies [Eh]
    ---------------------

    Doubly Occupied:

       1A    -15.568639     2A    -15.553644     3A    -11.289497
       4A    -11.282892     5A    -11.281317     6A    -11.263257
       7A    -11.242363     8A    -11.241491     9A    -11.238813
      10A    -11.237850    11A    -11.234480    12A    -11.223987
      13A    -11.220052    14A     -1.262728    15A     -1.220565
      16A     -1.127650    17A     -1.088769    18A     -1.060594
      19A     -0.996617    20A     -0.978955    21A     -0.870981
      22A     -0.864148    23A     -0.816193    24A     -0.800714
      25A     -0.718173    26A     -0.692429    27A     -0.687524
      28A     -0.663670    29A     -0.654245    30A     -0.628731
      31A     -0.595866    32A     -0.590013    33A     -0.586247
      34A     -0.574202    35A     -0.550614    36A     -0.536843
      37A     -0.520851    38A     -0.502352    39A     -0.491046
      40A     -0.447593    41A     -0.420704    42A     -0.388874
      43A     -0.368289    44A     -0.318517    45A     -0.284009

  @DF-RHF Final Energy:  -531.45270275098369

   => Energetics <=

    Nuclear Repulsion Energy =            714.5514387907930995
    One-Electron Energy =               -2137.6343065161440791
    Two-Electron Energy =                 891.6301649743672897
    Total Energy =                       -531.4527027509836898
  Basis Set: (AUG-CC-PVTZ AUX)
    Blend: AUG-CC-PVTZ-RI
    Molecular point group: c1

    Geometry (in Angstrom), charge = 0, multiplicity = 1:

       Center              X                  Y                   Z               Mass
    ------------   -----------------  -----------------  -----------------  -----------------
         N            1.439894617887     0.922716962232    -0.557663131091    14.003074004430
         N           -0.869477382113     2.168410962232     0.505727868909    14.003074004430
         C           -0.648176382113    -0.208548037768    -0.052901131091    12.000000000000
         C            0.829491617887    -0.160474037768    -0.020534131091    12.000000000000
         C           -1.438016382113     0.956667562232     0.183302668909    12.000000000000
         C           -1.277757382113    -1.433821037768    -0.324924131091    12.000000000000
         C           -2.842948382113     0.790951962232     0.194253868909    12.000000000000
         C            1.565453617887    -1.215831037768     0.543433868909    12.000000000000
         C           -2.664177382113    -1.561420037768    -0.324639131091    12.000000000000
         C           -3.447843382113    -0.435944037768    -0.062246131091    12.000000000000
         C            2.956542617887    -1.175002037768     0.512514868909    12.000000000000
         C            3.583706617887    -0.069454037768    -0.061259131091    12.000000000000
         C            2.783428617887     0.953956962232    -0.566928131091    12.000000000000
         H           -0.658834382113    -2.298396037768    -0.557537131091     1.007825032230
         H           -3.458686382113     1.667760962232     0.391100868909     1.007825032230
         H            1.044936617887    -2.045147037768     1.013434868909     1.007825032230
         H           -3.126740382113    -2.519309037768    -0.547219131091     1.007825032230
         H           -4.532983382113    -0.510749037768    -0.054315131091     1.007825032230
         H            3.541030617887    -1.984262037768     0.943815868909     1.007825032230
         H            0.018724617887     2.313928962232     0.032205868909     1.007825032230
         H           -1.502851382113     2.949939962232     0.371415868909     1.007825032230
         H            4.666344617887     0.008569962232    -0.103699131091     1.007825032230
         H            3.231106617887     1.843873962232    -1.006606131091     1.007825032230

  Basis Set: AUG-CC-PVTZ
    Blend: AUG-CC-PVTZ
  Basis Set: (AUG-CC-PVTZ AUX)
    Blend: AUG-CC-PVTZ-JKFIT
	 Reference Energy          =    -531.4527027509836898 [Eh]
	 Singles Energy            =      -0.0000000000000000 [Eh]
	 Same-Spin Energy          =      -0.5966616921635532 [Eh]
	 Opposite-Spin Energy      =      -1.8208765976782688 [Eh]
	 Correlation Energy        =      -2.4175382898418221 [Eh]
	 Total Energy              =    -533.8702410408254764 [Eh]

	 ================> DF-SCS-MP2 Energies <==================
	-----------------------------------------------------------
	 SCS Same-Spin Scale       =       0.3333333333333333 [-]
	 SCS Opposite-Spin Scale   =       1.2000000000000000 [-]
	 SCS Same-Spin Energy      =      -0.1988872307211844 [Eh]
	 SCS Opposite-Spin Energy  =      -2.1850519172139227 [Eh]
	 SCS Correlation Energy    =      -2.3839391479351071 [Eh]
	 SCS Total Energy          =    -533.8366418989187423 [Eh]
	-----------------------------------------------------------

  Dipole Moment: [D]
     X:     1.5600      Y:    -0.3041      Z:     0.0448     Total:     1.5900

*** Psi4 exiting successfully. Buy a developer a beer!
