                               Psi4 1.3.2 release

  ==> Input File <==

--------------------------------------------------------------------------
#psi4
#
memory 32 gb

molecule  {
0 1
  N        1.4447430     0.9271060    -0.5600120
  N       -0.8646290     2.1728000     0.5033790
  C       -0.6433280    -0.2041590    -0.0552500
  C        0.8353153    -0.2065723    -0.0335804
  C       -1.4414270     0.9434540     0.1762700
  C       -1.2729090    -1.4294320    -0.3272730
  C       -2.8381000     0.7953410     0.1919050
  C        1.5703020    -1.2114420     0.5410850
  C       -2.6593290    -1.5570310    -0.3269880
  C       -3.4429950    -0.4315550    -0.0645950
  C        2.9613910    -1.1706130     0.5101660
  C        3.5885550    -0.0650650    -0.0636080
  C        2.7882770     0.9583460    -0.5692770
  H       -0.6539860    -2.2940070    -0.5598860
  H       -3.4538380     1.6721500     0.3887520
  H        1.0497850    -2.0407580     1.0110860
  H       -3.1218920    -2.5149200    -0.5495680
  H       -4.5281350    -0.5063600    -0.0566640
  H        3.5458790    -1.9798730     0.9414670
  H        0.0235730     2.3183180     0.0298570
  H       -1.4980030     2.9543290     0.3690670
  H        4.6711930     0.0129590    -0.1060480
  H        3.2359550     1.8482630    -1.0089550
units angstrom
no_reorient  #important for SAPT in psi4, default
symmetry c1  #important for SAPT in psi4, default
}

set PROPERTIES_ORIGIN ["COM"]
properties('MP2/aug-cc-pvtz', properties = ['dipole'])
--------------------------------------------------------------------------

    Molecular point group: c1
  Charge       = 0
  Multiplicity = 1
  Basis Set: AUG-CC-PVTZ
    Blend: AUG-CC-PVTZ
  Basis Set: (AUG-CC-PVTZ AUX)
    Blend: AUG-CC-PVTZ-JKFIT

    Orbital Energies [Eh]
    ---------------------

    Doubly Occupied:

       1A    -15.570792     2A    -15.550432     3A    -11.288510
       4A    -11.281856     5A    -11.281432     6A    -11.264927
       7A    -11.243009     8A    -11.239088     9A    -11.238057
      10A    -11.237850    11A    -11.234671    12A    -11.223954
      13A    -11.220582    14A     -1.255496    15A     -1.213011
      16A     -1.127937    17A     -1.088742    18A     -1.063660
      19A     -0.998261    20A     -0.980634    21A     -0.870949
      22A     -0.865270    23A     -0.815690    24A     -0.800974
      25A     -0.718899    26A     -0.688850    27A     -0.684962
      28A     -0.664967    29A     -0.650437    30A     -0.627951
      31A     -0.597037    32A     -0.592947    33A     -0.585941
      34A     -0.573237    35A     -0.548797    36A     -0.536365
      37A     -0.518777    38A     -0.499105    39A     -0.492419
      40A     -0.444909    41A     -0.423817    42A     -0.384972
      43A     -0.373178    44A     -0.319270    45A     -0.286402

  @DF-RHF Final Energy:  -531.44997712738893

   => Energetics <=

    Nuclear Repulsion Energy =            714.4524468567434496
    One-Electron Energy =               -2137.4667995023519325
    Two-Electron Energy =                 891.5643755182196628
    Total Energy =                       -531.4499771273889337
  Basis Set: (AUG-CC-PVTZ AUX)
    Blend: AUG-CC-PVTZ-RI
    Molecular point group: c1

    Geometry (in Angstrom), charge = 0, multiplicity = 1:

       Center              X                  Y                   Z               Mass
    ------------   -----------------  -----------------  -----------------  -----------------
         N            1.440408506291     0.927520923136    -0.556577938082    14.003074004430
         N           -0.868963493709     2.173214923136     0.506813061918    14.003074004430
         C           -0.647662493709    -0.203744076864    -0.051815938082    12.000000000000
         C            0.830980806291    -0.206157376864    -0.030146338082    12.000000000000
         C           -1.445761493709     0.943868923136     0.179704061918    12.000000000000
         C           -1.277243493709    -1.429017076864    -0.323838938082    12.000000000000
         C           -2.842434493709     0.795755923136     0.195339061918    12.000000000000
         C            1.565967506291    -1.211027076864     0.544519061918    12.000000000000
         C           -2.663663493709    -1.556616076864    -0.323553938082    12.000000000000
         C           -3.447329493709    -0.431140076864    -0.061160938082    12.000000000000
         C            2.957056506291    -1.170198076864     0.513600061918    12.000000000000
         C            3.584220506291    -0.064650076864    -0.060173938082    12.000000000000
         C            2.783942506291     0.958760923136    -0.565842938082    12.000000000000
         H           -0.658320493709    -2.293592076864    -0.556451938082     1.007825032230
         H           -3.458172493709     1.672564923136     0.392186061918     1.007825032230
         H            1.045450506291    -2.040343076864     1.014520061918     1.007825032230
         H           -3.126226493709    -2.514505076864    -0.546133938082     1.007825032230
         H           -4.532469493709    -0.505945076864    -0.053229938082     1.007825032230
         H            3.541544506291    -1.979458076864     0.944901061918     1.007825032230
         H            0.019238506291     2.318732923136     0.033291061918     1.007825032230
         H           -1.502337493709     2.954743923136     0.372501061918     1.007825032230
         H            4.666858506291     0.013373923136    -0.102613938082     1.007825032230
         H            3.231620506291     1.848677923136    -1.005520938082     1.007825032230

  Basis Set: AUG-CC-PVTZ
    Blend: AUG-CC-PVTZ
  Basis Set: (AUG-CC-PVTZ AUX)
    Blend: AUG-CC-PVTZ-JKFIT
	 Reference Energy          =    -531.4499771273889337 [Eh]
	 Singles Energy            =      -0.0000000000000000 [Eh]
	 Same-Spin Energy          =      -0.5967663458750940 [Eh]
	 Opposite-Spin Energy      =      -1.8215894040053713 [Eh]
	 Correlation Energy        =      -2.4183557498804653 [Eh]
	 Total Energy              =    -533.8683328772693812 [Eh]

	 ================> DF-SCS-MP2 Energies <==================
	-----------------------------------------------------------
	 SCS Same-Spin Scale       =       0.3333333333333333 [-]
	 SCS Opposite-Spin Scale   =       1.2000000000000000 [-]
	 SCS Same-Spin Energy      =      -0.1989221152916980 [Eh]
	 SCS Opposite-Spin Energy  =      -2.1859072848064454 [Eh]
	 SCS Correlation Energy    =      -2.3848294000981434 [Eh]
	 SCS Total Energy          =    -533.8348065274871033 [Eh]
	-----------------------------------------------------------

  Dipole Moment: [D]
     X:     1.5571      Y:    -0.4267      Z:     0.0155     Total:     1.6146

*** Psi4 exiting successfully. Buy a developer a beer!
