                               Psi4 1.3.2 release

  ==> Input File <==

--------------------------------------------------------------------------
#psi4
#
memory 32 gb

molecule  {
0 1
  N        1.4447430     0.9271060    -0.5600120
  N       -0.7350468     2.1056909     0.4944211
  C       -0.6433280    -0.2041590    -0.0552500
  C        0.8343400    -0.1560850    -0.0228830
  C       -1.4414270     0.9434540     0.1762700
  C       -1.2729090    -1.4294320    -0.3272730
  C       -2.8381000     0.7953410     0.1919050
  C        1.5703020    -1.2114420     0.5410850
  C       -2.6593290    -1.5570310    -0.3269880
  C       -3.4429950    -0.4315550    -0.0645950
  C        2.9613910    -1.1706130     0.5101660
  C        3.5885550    -0.0650650    -0.0636080
  C        2.7882770     0.9583460    -0.5692770
  H       -0.6539860    -2.2940070    -0.5598860
  H       -3.4538380     1.6721500     0.3887520
  H        1.0497850    -2.0407580     1.0110860
  H       -3.1218920    -2.5149200    -0.5495680
  H       -4.5281350    -0.5063600    -0.0566640
  H        3.5458790    -1.9798730     0.9414670
  H        0.0235730     2.3183180     0.0298570
  H       -1.4980030     2.9543290     0.3690670
  H        4.6711930     0.0129590    -0.1060480
  H        3.2359550     1.8482630    -1.0089550
units angstrom
no_reorient  #important for SAPT in psi4, default
symmetry c1  #important for SAPT in psi4, default
}

set PROPERTIES_ORIGIN ["COM"]
properties('MP2/aug-cc-pvtz', properties = ['dipole'])
--------------------------------------------------------------------------

    Molecular point group: c1
  Charge       = 0
  Multiplicity = 1
  Basis Set: AUG-CC-PVTZ
    Blend: AUG-CC-PVTZ
  Basis Set: (AUG-CC-PVTZ AUX)
    Blend: AUG-CC-PVTZ-JKFIT

    Orbital Energies [Eh]
    ---------------------

    Doubly Occupied:

       1A    -15.567132     2A    -15.555064     3A    -11.288895
       4A    -11.282268     5A    -11.280157     6A    -11.262532
       7A    -11.242186     8A    -11.241691     9A    -11.240130
      10A    -11.238637    11A    -11.233104    12A    -11.228310
      13A    -11.222697    14A     -1.262659    15A     -1.215927
      16A     -1.129309    17A     -1.088014    18A     -1.061141
      19A     -0.999454    20A     -0.982677    21A     -0.872568
      22A     -0.863125    23A     -0.816097    24A     -0.805425
      25A     -0.721549    26A     -0.703673    27A     -0.673535
      28A     -0.662346    29A     -0.652304    30A     -0.628614
      31A     -0.601866    32A     -0.590387    33A     -0.576432
      34A     -0.563564    35A     -0.550529    36A     -0.537542
      37A     -0.519779    38A     -0.502947    39A     -0.490339
      40A     -0.447530    41A     -0.420085    42A     -0.387673
      43A     -0.368080    44A     -0.320194    45A     -0.289044

  @DF-RHF Final Energy:  -531.42433037149181

   => Energetics <=

    Nuclear Repulsion Energy =            716.1419536474943470
    One-Electron Energy =               -2140.7581516195136828
    Two-Electron Energy =                 893.1918676005275302
    Total Energy =                       -531.4243303714918056
  Basis Set: (AUG-CC-PVTZ AUX)
    Blend: AUG-CC-PVTZ-RI
    Molecular point group: c1

    Geometry (in Angstrom), charge = 0, multiplicity = 1:

       Center              X                  Y                   Z               Mass
    ------------   -----------------  -----------------  -----------------  -----------------
         N            1.429808794889     0.929483984398    -0.556595168724    14.003074004430
         N           -0.749981005111     2.108068884398     0.497837931276    14.003074004430
         C           -0.658262205111    -0.201781015602    -0.051833168724    12.000000000000
         C            0.819405794889    -0.153707015602    -0.019466168724    12.000000000000
         C           -1.456361205111     0.945831984398     0.179686831276    12.000000000000
         C           -1.287843205111    -1.427054015602    -0.323856168724    12.000000000000
         C           -2.853034205111     0.797718984398     0.195321831276    12.000000000000
         C            1.555367794889    -1.209064015602     0.544501831276    12.000000000000
         C           -2.674263205111    -1.554653015602    -0.323571168724    12.000000000000
         C           -3.457929205111    -0.429177015602    -0.061178168724    12.000000000000
         C            2.946456794889    -1.168235015602     0.513582831276    12.000000000000
         C            3.573620794889    -0.062687015602    -0.060191168724    12.000000000000
         C            2.773342794889     0.960723984398    -0.565860168724    12.000000000000
         H           -0.668920205111    -2.291629015602    -0.556469168724     1.007825032230
         H           -3.468772205111     1.674527984398     0.392168831276     1.007825032230
         H            1.034850794889    -2.038380015602     1.014502831276     1.007825032230
         H           -3.136826205111    -2.512542015602    -0.546151168724     1.007825032230
         H           -4.543069205111    -0.503982015602    -0.053247168724     1.007825032230
         H            3.530944794889    -1.977495015602     0.944883831276     1.007825032230
         H            0.008638794889     2.320695984398     0.033273831276     1.007825032230
         H           -1.512937205111     2.956706984398     0.372483831276     1.007825032230
         H            4.656258794889     0.015336984398    -0.102631168724     1.007825032230
         H            3.221020794889     1.850640984398    -1.005538168724     1.007825032230

  Basis Set: AUG-CC-PVTZ
    Blend: AUG-CC-PVTZ
  Basis Set: (AUG-CC-PVTZ AUX)
    Blend: AUG-CC-PVTZ-JKFIT
	 Reference Energy          =    -531.4243303714918056 [Eh]
	 Singles Energy            =      -0.0000000000000000 [Eh]
	 Same-Spin Energy          =      -0.5971506449314370 [Eh]
	 Opposite-Spin Energy      =      -1.8228356784958901 [Eh]
	 Correlation Energy        =      -2.4199863234273273 [Eh]
	 Total Energy              =    -533.8443166949191436 [Eh]

	 ================> DF-SCS-MP2 Energies <==================
	-----------------------------------------------------------
	 SCS Same-Spin Scale       =       0.3333333333333333 [-]
	 SCS Opposite-Spin Scale   =       1.2000000000000000 [-]
	 SCS Same-Spin Energy      =      -0.1990502149771456 [Eh]
	 SCS Opposite-Spin Energy  =      -2.1874028141950679 [Eh]
	 SCS Correlation Energy    =      -2.3864530291722135 [Eh]
	 SCS Total Energy          =    -533.8107834006640360 [Eh]
	-----------------------------------------------------------

  Dipole Moment: [D]
     X:     1.3417      Y:    -0.4419      Z:    -0.0019     Total:     1.4126

*** Psi4 exiting successfully. Buy a developer a beer!
