                               Psi4 1.4a3.dev225

  ==> Input File <==

--------------------------------------------------------------------------
#psi4
#
memory 32 gb

molecule  {
0 1
  N        1.4447430     0.9271060    -0.5600120
  N       -0.8646290     2.1728000     0.5033790
  C       -0.6433280    -0.2041590    -0.0552500
  C        0.8343400    -0.1560850    -0.0228830
  C       -1.4414270     0.9434540     0.1762700
  C       -1.2729090    -1.4294320    -0.3272730
  C       -2.8381000     0.7953410     0.1919050
  C        1.5703020    -1.2114420     0.5410850
  C       -2.6593290    -1.5570310    -0.3269880
  C       -3.4429950    -0.4315550    -0.0645950
  C        2.9613910    -1.1706130     0.5101660
  C        3.5885550    -0.0650650    -0.0636080
  C        2.8082711     0.9588109    -0.5694149
  H       -0.6539860    -2.2940070    -0.5598860
  H       -3.4538380     1.6721500     0.3887520
  H        1.0497850    -2.0407580     1.0110860
  H       -3.1218920    -2.5149200    -0.5495680
  H       -4.5281350    -0.5063600    -0.0566640
  H        3.5458790    -1.9798730     0.9414670
  H        0.0235730     2.3183180     0.0298570
  H       -1.4980030     2.9543290     0.3690670
  H        4.6711930     0.0129590    -0.1060480
  H        3.2359550     1.8482630    -1.0089550
units angstrom
no_reorient  #important for SAPT in psi4, default
symmetry c1  #important for SAPT in psi4, default
}

set PROPERTIES_ORIGIN ["COM"]
properties('MP2/aug-cc-pvtz', properties = ['dipole'])
--------------------------------------------------------------------------

    Molecular point group: c1
  Charge       = 0
  Multiplicity = 1
  Basis Set: AUG-CC-PVTZ
    Blend: AUG-CC-PVTZ
  Basis Set: (AUG-CC-PVTZ AUX)
    Blend: AUG-CC-PVTZ-JKFIT

    Orbital Energies [Eh]
    ---------------------

    Doubly Occupied:

       1A    -15.569596     2A    -15.550836     3A    -11.290072
       4A    -11.280896     5A    -11.280885     6A    -11.263910
       7A    -11.242395     8A    -11.242043     9A    -11.239251
      10A    -11.238211    11A    -11.234556    12A    -11.223928
      13A    -11.221233    14A     -1.258054    15A     -1.213342
      16A     -1.127768    17A     -1.088446    18A     -1.061351
      19A     -0.998496    20A     -0.981035    21A     -0.870232
      22A     -0.866114    23A     -0.816909    24A     -0.800202
      25A     -0.719091    26A     -0.690111    27A     -0.685017
      28A     -0.662426    29A     -0.653278    30A     -0.628178
      31A     -0.596468    32A     -0.592482    33A     -0.586171
      34A     -0.574136    35A     -0.549113    36A     -0.536123
      37A     -0.519373    38A     -0.501322    39A     -0.494159
      40A     -0.445133    41A     -0.421218    42A     -0.388210
      43A     -0.368002    44A     -0.319843    45A     -0.286954

  @DF-RHF Final Energy:  -531.45236982873712

   => Energetics <=

    Nuclear Repulsion Energy =            714.3248609058495049
    One-Electron Energy =               -2137.2013247328372927
    Two-Electron Energy =                 891.4240939982505552
    Total Energy =                       -531.4523698287371190
  Basis Set: (AUG-CC-PVTZ AUX)
    Blend: AUG-CC-PVTZ-RI
    Molecular point group: c1

    Geometry (in Angstrom), charge = 0, multiplicity = 1:

       Center              X                  Y                   Z               Mass
    ------------   -----------------  -----------------  -----------------  -----------------
         N            1.439066668931     0.923926081951    -0.557322944686    14.003074004430
         N           -0.870305331069     2.169620081951     0.506068055314    14.003074004430
         C           -0.649004331069    -0.207338918049    -0.052560944686    12.000000000000
         C            0.828663668931    -0.159264918049    -0.020193944686    12.000000000000
         C           -1.447103331069     0.940274081951     0.178959055314    12.000000000000
         C           -1.278585331069    -1.432611918049    -0.324583944686    12.000000000000
         C           -2.843776331069     0.792161081951     0.194594055314    12.000000000000
         C            1.564625668931    -1.214621918049     0.543774055314    12.000000000000
         C           -2.665005331069    -1.560210918049    -0.324298944686    12.000000000000
         C           -3.448671331069    -0.434734918049    -0.061905944686    12.000000000000
         C            2.955714668931    -1.173792918049     0.512855055314    12.000000000000
         C            3.582878668931    -0.068244918049    -0.060918944686    12.000000000000
         C            2.802594768931     0.955630981951    -0.566725844686    12.000000000000
         H           -0.659662331069    -2.297186918049    -0.557196944686     1.007825032230
         H           -3.459514331069     1.668970081951     0.391441055314     1.007825032230
         H            1.044108668931    -2.043937918049     1.013775055314     1.007825032230
         H           -3.127568331069    -2.518099918049    -0.546878944686     1.007825032230
         H           -4.533811331069    -0.509539918049    -0.053974944686     1.007825032230
         H            3.540202668931    -1.983052918049     0.944156055314     1.007825032230
         H            0.017896668931     2.315138081951     0.032546055314     1.007825032230
         H           -1.503679331069     2.951149081951     0.371756055314     1.007825032230
         H            4.665516668931     0.009779081951    -0.103358944686     1.007825032230
         H            3.230278668931     1.845083081951    -1.006265944686     1.007825032230

  Basis Set: AUG-CC-PVTZ
    Blend: AUG-CC-PVTZ
  Basis Set: (AUG-CC-PVTZ AUX)
    Blend: AUG-CC-PVTZ-JKFIT
	 Reference Energy          =    -531.4523698287371190 [Eh]
	 Singles Energy            =      -0.0000000000000000 [Eh]
	 Same-Spin Energy          =      -0.5966268243114489 [Eh]
	 Opposite-Spin Energy      =      -1.8211951528123356 [Eh]
	 Correlation Energy        =      -2.4178219771237845 [Eh]
	 Total Energy              =    -533.8701918058609408 [Eh]

	 ================> DF-SCS-MP2 Energies <==================
	-----------------------------------------------------------
	 SCS Same-Spin Scale       =       0.3333333333333333 [-]
	 SCS Opposite-Spin Scale   =       1.2000000000000000 [-]
	 SCS Same-Spin Energy      =      -0.1988756081038163 [Eh]
	 SCS Opposite-Spin Energy  =      -2.1854341833748028 [Eh]
	 SCS Correlation Energy    =      -2.3843097914786191 [Eh]
	 SCS Total Energy          =    -533.8366796202157047 [Eh]
	-----------------------------------------------------------

  Dipole Moment: [D]
     X:     1.5332      Y:    -0.4211      Z:     0.0152     Total:     1.5901

*** Psi4 exiting successfully. Buy a developer a beer!
