                               Psi4 1.3.2 release

  ==> Input File <==

--------------------------------------------------------------------------
#psi4
#
memory 32 gb

molecule  {
0 1
  N        1.4447430     0.9271060    -0.5600120
  N       -0.8646290     2.1728000     0.5033790
  C       -0.6433280    -0.2041590    -0.0552500
  C        0.7132962    -0.2292552     0.0173212
  C       -1.4414270     0.9434540     0.1762700
  C       -1.2729090    -1.4294320    -0.3272730
  C       -2.8381000     0.7953410     0.1919050
  C        1.5703020    -1.2114420     0.5410850
  C       -2.6593290    -1.5570310    -0.3269880
  C       -3.4429950    -0.4315550    -0.0645950
  C        2.9613910    -1.1706130     0.5101660
  C        3.5885550    -0.0650650    -0.0636080
  C        2.7882770     0.9583460    -0.5692770
  H       -0.6539860    -2.2940070    -0.5598860
  H       -3.4538380     1.6721500     0.3887520
  H        1.0497850    -2.0407580     1.0110860
  H       -3.1218920    -2.5149200    -0.5495680
  H       -4.5281350    -0.5063600    -0.0566640
  H        3.5458790    -1.9798730     0.9414670
  H        0.0235730     2.3183180     0.0298570
  H       -1.4980030     2.9543290     0.3690670
  H        4.6711930     0.0129590    -0.1060480
  H        3.2359550     1.8482630    -1.0089550
units angstrom
no_reorient  #important for SAPT in psi4, default
symmetry c1  #important for SAPT in psi4, default
}

set PROPERTIES_ORIGIN ["COM"]
properties('MP2/aug-cc-pvtz', properties = ['dipole'])
--------------------------------------------------------------------------

    Molecular point group: c1
  Charge       = 0
  Multiplicity = 1
  Basis Set: AUG-CC-PVTZ
    Blend: AUG-CC-PVTZ
  Basis Set: (AUG-CC-PVTZ AUX)
    Blend: AUG-CC-PVTZ-JKFIT

    Orbital Energies [Eh]
    ---------------------

    Doubly Occupied:

       1A    -15.568760     2A    -15.554281     3A    -11.291852
       4A    -11.288606     5A    -11.277681     6A    -11.261780
       7A    -11.244378     8A    -11.244139     9A    -11.240889
      10A    -11.239392    11A    -11.230302    12A    -11.228155
      13A    -11.224618    14A     -1.239004    15A     -1.210609
      16A     -1.136824    17A     -1.077403    18A     -1.075732
      19A     -0.998435    20A     -0.984369    21A     -0.882564
      22A     -0.857763    23A     -0.816571    24A     -0.798913
      25A     -0.723514    26A     -0.691725    27A     -0.688115
      28A     -0.671075    29A     -0.638789    30A     -0.626461
      31A     -0.601787    32A     -0.598093    33A     -0.590039
      34A     -0.572831    35A     -0.543347    36A     -0.536264
      37A     -0.513905    38A     -0.502971    39A     -0.501405
      40A     -0.449072    41A     -0.407820    42A     -0.380626
      43A     -0.375285    44A     -0.317090    45A     -0.283818

  @DF-RHF Final Energy:  -531.42021212104476

   => Energetics <=

    Nuclear Repulsion Energy =            714.5452054141567260
    One-Electron Energy =               -2137.5567273015212777
    Two-Electron Energy =                 891.5913097663197959
    Total Energy =                       -531.4202121210447558
  Basis Set: (AUG-CC-PVTZ AUX)
    Blend: AUG-CC-PVTZ-RI
    Molecular point group: c1

    Geometry (in Angstrom), charge = 0, multiplicity = 1:

       Center              X                  Y                   Z               Mass
    ------------   -----------------  -----------------  -----------------  -----------------
         N            1.449017345281     0.929121274507    -0.560169209274    14.003074004430
         N           -0.860354654719     2.174815274507     0.503221790726    14.003074004430
         C           -0.639053654719    -0.202143725493    -0.055407209274    12.000000000000
         C            0.717570545281    -0.227239925493     0.017163990726    12.000000000000
         C           -1.437152654719     0.945469274507     0.176112790726    12.000000000000
         C           -1.268634654719    -1.427416725493    -0.327430209274    12.000000000000
         C           -2.833825654719     0.797356274507     0.191747790726    12.000000000000
         C            1.574576345281    -1.209426725493     0.540927790726    12.000000000000
         C           -2.655054654719    -1.555015725493    -0.327145209274    12.000000000000
         C           -3.438720654719    -0.429539725493    -0.064752209274    12.000000000000
         C            2.965665345281    -1.168597725493     0.510008790726    12.000000000000
         C            3.592829345281    -0.063049725493    -0.063765209274    12.000000000000
         C            2.792551345281     0.960361274507    -0.569434209274    12.000000000000
         H           -0.649711654719    -2.291991725493    -0.560043209274     1.007825032230
         H           -3.449563654719     1.674165274507     0.388594790726     1.007825032230
         H            1.054059345281    -2.038742725493     1.010928790726     1.007825032230
         H           -3.117617654719    -2.512904725493    -0.549725209274     1.007825032230
         H           -4.523860654719    -0.504344725493    -0.056821209274     1.007825032230
         H            3.550153345281    -1.977857725493     0.941309790726     1.007825032230
         H            0.027847345281     2.320333274507     0.029699790726     1.007825032230
         H           -1.493728654719     2.956344274507     0.368909790726     1.007825032230
         H            4.675467345281     0.014974274507    -0.106205209274     1.007825032230
         H            3.240229345281     1.850278274507    -1.009112209274     1.007825032230

  Basis Set: AUG-CC-PVTZ
    Blend: AUG-CC-PVTZ
  Basis Set: (AUG-CC-PVTZ AUX)
    Blend: AUG-CC-PVTZ-JKFIT
	 Reference Energy          =    -531.4202121210447558 [Eh]
	 Singles Energy            =      -0.0000000000000000 [Eh]
	 Same-Spin Energy          =      -0.5998861605418757 [Eh]
	 Opposite-Spin Energy      =      -1.8272365534515422 [Eh]
	 Correlation Energy        =      -2.4271227139934179 [Eh]
	 Total Energy              =    -533.8473348350381684 [Eh]

	 ================> DF-SCS-MP2 Energies <==================
	-----------------------------------------------------------
	 SCS Same-Spin Scale       =       0.3333333333333333 [-]
	 SCS Opposite-Spin Scale   =       1.2000000000000000 [-]
	 SCS Same-Spin Energy      =      -0.1999620535139586 [Eh]
	 SCS Opposite-Spin Energy  =      -2.1926838641418507 [Eh]
	 SCS Correlation Energy    =      -2.3926459176558090 [Eh]
	 SCS Total Energy          =    -533.8128580387005968 [Eh]
	-----------------------------------------------------------

  Dipole Moment: [D]
     X:     0.9892      Y:    -0.4018      Z:     0.0312     Total:     1.0682

*** Psi4 exiting successfully. Buy a developer a beer!
