                               Psi4 1.3.2 release

  ==> Input File <==

--------------------------------------------------------------------------
#psi4
#
memory 32 gb

molecule  {
0 1
  N        1.4447430     0.9271060    -0.5600120
  N       -0.8646290     2.1728000     0.5033790
  C       -0.6433280    -0.2041590    -0.0552500
  C        0.8343400    -0.1560850    -0.0228830
  C       -1.4414270     0.9434540     0.1762700
  C       -1.2729090    -1.4294320    -0.3272730
  C       -2.8381000     0.7953410     0.1919050
  C        1.5703020    -1.2114420     0.5410850
  C       -2.6593290    -1.5570310    -0.3269880
  C       -3.4429950    -0.4315550    -0.0645950
  C        2.9613910    -1.1706130     0.5101660
  C        3.5885550    -0.0650650    -0.0636080
  C        2.7882770     0.9583460    -0.5692770
  H       -0.6539860    -2.2940070    -0.5598860
  H       -3.4538380     1.6721500     0.3887520
  H        1.0497850    -2.0407580     1.0110860
  H       -3.1218920    -2.5149200    -0.5495680
  H       -4.5281350    -0.5063600    -0.0566640
  H        3.5458790    -1.9798730     0.9414670
  H        0.0235730     2.3183180     0.0298570
  H       -1.4980030     2.9543290     0.3690670
  H        4.6711930     0.0129590    -0.1060480
  H        3.1948418     1.7665361    -0.9685765
units angstrom
no_reorient  #important for SAPT in psi4, default
symmetry c1  #important for SAPT in psi4, default
}

set PROPERTIES_ORIGIN ["COM"]
properties('MP2/aug-cc-pvtz', properties = ['dipole'])
--------------------------------------------------------------------------

    Molecular point group: c1
  Charge       = 0
  Multiplicity = 1
  Basis Set: AUG-CC-PVTZ
    Blend: AUG-CC-PVTZ
  Basis Set: (AUG-CC-PVTZ AUX)
    Blend: AUG-CC-PVTZ-JKFIT

    Orbital Energies [Eh]
    ---------------------

    Doubly Occupied:

       1A    -15.568084     2A    -15.550882     3A    -11.289364
       4A    -11.280688     5A    -11.269533     6A    -11.262933
       7A    -11.241942     8A    -11.241802     9A    -11.238953
      10A    -11.238009    11A    -11.234307    12A    -11.223801
      13A    -11.221064    14A     -1.262445    15A     -1.213884
      16A     -1.127820    17A     -1.088458    18A     -1.063159
      19A     -0.998802    20A     -0.980964    21A     -0.873530
      22A     -0.869032    23A     -0.818973    24A     -0.801165
      25A     -0.724128    26A     -0.691115    27A     -0.685321
      28A     -0.666711    29A     -0.653276    30A     -0.633136
      31A     -0.598378    32A     -0.592350    33A     -0.586075
      34A     -0.574532    35A     -0.550541    36A     -0.537533
      37A     -0.520638    38A     -0.501978    39A     -0.494343
      40A     -0.445078    41A     -0.421411    42A     -0.388505
      43A     -0.368412    44A     -0.318917    45A     -0.286443

  @DF-RHF Final Energy:  -531.44780311463364

   => Energetics <=

    Nuclear Repulsion Energy =            715.2094468536051863
    One-Electron Energy =               -2138.9176662430140823
    Two-Electron Energy =                 892.2604162747752525
    Total Energy =                       -531.4478031146336434
  Basis Set: (AUG-CC-PVTZ AUX)
    Blend: AUG-CC-PVTZ-RI
    Molecular point group: c1

    Geometry (in Angstrom), charge = 0, multiplicity = 1:

       Center              X                  Y                   Z               Mass
    ------------   -----------------  -----------------  -----------------  -----------------
         N            1.440720930668     0.924443150045    -0.557571934384    14.003074004430
         N           -0.868651069332     2.170137150045     0.505819065616    14.003074004430
         C           -0.647350069332    -0.206821849955    -0.052809934384    12.000000000000
         C            0.830317930668    -0.158747849955    -0.020442934384    12.000000000000
         C           -1.445449069332     0.940791150045     0.178710065616    12.000000000000
         C           -1.276931069332    -1.432094849955    -0.324832934384    12.000000000000
         C           -2.842122069332     0.792678150045     0.194345065616    12.000000000000
         C            1.566279930668    -1.214104849955     0.543525065616    12.000000000000
         C           -2.663351069332    -1.559693849955    -0.324547934384    12.000000000000
         C           -3.447017069332    -0.434217849955    -0.062154934384    12.000000000000
         C            2.957368930668    -1.173275849955     0.512606065616    12.000000000000
         C            3.584532930668    -0.067727849955    -0.061167934384    12.000000000000
         C            2.784254930668     0.955683150045    -0.566836934384    12.000000000000
         H           -0.658008069332    -2.296669849955    -0.557445934384     1.007825032230
         H           -3.457860069332     1.669487150045     0.391192065616     1.007825032230
         H            1.045762930668    -2.043420849955     1.013526065616     1.007825032230
         H           -3.125914069332    -2.517582849955    -0.547127934384     1.007825032230
         H           -4.532157069332    -0.509022849955    -0.054223934384     1.007825032230
         H            3.541856930668    -1.982535849955     0.943907065616     1.007825032230
         H            0.019550930668     2.315655150045     0.032297065616     1.007825032230
         H           -1.502025069332     2.951666150045     0.371507065616     1.007825032230
         H            4.667170930668     0.010296150045    -0.103607934384     1.007825032230
         H            3.190819730668     1.763873250045    -0.966136434384     1.007825032230

  Basis Set: AUG-CC-PVTZ
    Blend: AUG-CC-PVTZ
  Basis Set: (AUG-CC-PVTZ AUX)
    Blend: AUG-CC-PVTZ-JKFIT
	 Reference Energy          =    -531.4478031146336434 [Eh]
	 Singles Energy            =      -0.0000000000000000 [Eh]
	 Same-Spin Energy          =      -0.5963266263328724 [Eh]
	 Opposite-Spin Energy      =      -1.8201939293442766 [Eh]
	 Correlation Energy        =      -2.4165205556771490 [Eh]
	 Total Energy              =    -533.8643236703107959 [Eh]

	 ================> DF-SCS-MP2 Energies <==================
	-----------------------------------------------------------
	 SCS Same-Spin Scale       =       0.3333333333333333 [-]
	 SCS Opposite-Spin Scale   =       1.2000000000000000 [-]
	 SCS Same-Spin Energy      =      -0.1987755421109574 [Eh]
	 SCS Opposite-Spin Energy  =      -2.1842327152131320 [Eh]
	 SCS Correlation Energy    =      -2.3830082573240894 [Eh]
	 SCS Total Energy          =    -533.8308113719576795 [Eh]
	-----------------------------------------------------------

  Dipole Moment: [D]
     X:     1.5622      Y:    -0.4012      Z:     0.0037     Total:     1.6129

*** Psi4 exiting successfully. Buy a developer a beer!
