                               Psi4 1.3.2 release

  ==> Input File <==

--------------------------------------------------------------------------
#psi4
#
memory 32 gb

molecule  {
0 1
  N        1.4447430     0.9271060    -0.5600120
  N       -0.8646290     2.1728000     0.5033790
  C       -0.6433280    -0.2041590    -0.0552500
  C        0.8343400    -0.1560850    -0.0228830
  C       -1.4414270     0.9434540     0.1762700
  C       -1.2729090    -1.4294320    -0.3272730
  C       -2.8381000     0.7953410     0.1919050
  C        1.4655242    -1.0611924     0.4607937
  C       -2.6593290    -1.5570310    -0.3269880
  C       -3.4429950    -0.4315550    -0.0645950
  C        2.9613910    -1.1706130     0.5101660
  C        3.5885550    -0.0650650    -0.0636080
  C        2.7882770     0.9583460    -0.5692770
  H       -0.6539860    -2.2940070    -0.5598860
  H       -3.4538380     1.6721500     0.3887520
  H        1.0497850    -2.0407580     1.0110860
  H       -3.1218920    -2.5149200    -0.5495680
  H       -4.5281350    -0.5063600    -0.0566640
  H        3.5458790    -1.9798730     0.9414670
  H        0.0235730     2.3183180     0.0298570
  H       -1.4980030     2.9543290     0.3690670
  H        4.6711930     0.0129590    -0.1060480
  H        3.2359550     1.8482630    -1.0089550
units angstrom
no_reorient  #important for SAPT in psi4, default
symmetry c1  #important for SAPT in psi4, default
}

set PROPERTIES_ORIGIN ["COM"]
properties('MP2/aug-cc-pvtz', properties = ['dipole'])
--------------------------------------------------------------------------

    Molecular point group: c1
  Charge       = 0
  Multiplicity = 1
  Basis Set: AUG-CC-PVTZ
    Blend: AUG-CC-PVTZ
  Basis Set: (AUG-CC-PVTZ AUX)
    Blend: AUG-CC-PVTZ-JKFIT

    Orbital Energies [Eh]
    ---------------------

    Doubly Occupied:

       1A    -15.568540     2A    -15.548012     3A    -11.287393
       4A    -11.278893     5A    -11.275522     6A    -11.255284
       7A    -11.248312     8A    -11.235759     9A    -11.233704
      10A    -11.233363    11A    -11.229291    12A    -11.220039
      13A    -11.217224    14A     -1.273610    15A     -1.211214
      16A     -1.126085    17A     -1.082874    18A     -1.077711
      19A     -0.998895    20A     -0.978022    21A     -0.885605
      22A     -0.858819    23A     -0.809674    24A     -0.802292
      25A     -0.720622    26A     -0.686972    27A     -0.683897
      28A     -0.666673    29A     -0.646628    30A     -0.628281
      31A     -0.596440    32A     -0.590686    33A     -0.583155
      34A     -0.579890    35A     -0.560944    36A     -0.523675
      37A     -0.512036    38A     -0.493702    39A     -0.470030
      40A     -0.441717    41A     -0.425741    42A     -0.391737
      43A     -0.373173    44A     -0.322218    45A     -0.285620

  @DF-RHF Final Energy:  -531.39206245195714

   => Energetics <=

    Nuclear Repulsion Energy =            718.2638669592133738
    One-Electron Energy =               -2145.0719151529760893
    Two-Electron Energy =                 895.4159857418055708
    Total Energy =                       -531.3920624519571447
  Basis Set: (AUG-CC-PVTZ AUX)
    Blend: AUG-CC-PVTZ-RI
    Molecular point group: c1

    Geometry (in Angstrom), charge = 0, multiplicity = 1:

       Center              X                  Y                   Z               Mass
    ------------   -----------------  -----------------  -----------------  -----------------
         N            1.447869726794     0.913358290798    -0.551667865152    14.003074004430
         N           -0.861502273206     2.159052290798     0.511723134848    14.003074004430
         C           -0.640201273206    -0.217906709202    -0.046905865152    12.000000000000
         C            0.837466726794    -0.169832709202    -0.014538865152    12.000000000000
         C           -1.438300273206     0.929706290798     0.184614134848    12.000000000000
         C           -1.269782273206    -1.443179709202    -0.318928865152    12.000000000000
         C           -2.834973273206     0.781593290798     0.200249134848    12.000000000000
         C            1.468650926794    -1.074940109202     0.469137834848    12.000000000000
         C           -2.656202273206    -1.570778709202    -0.318643865152    12.000000000000
         C           -3.439868273206    -0.445302709202    -0.056250865152    12.000000000000
         C            2.964517726794    -1.184360709202     0.518510134848    12.000000000000
         C            3.591681726794    -0.078812709202    -0.055263865152    12.000000000000
         C            2.791403726794     0.944598290798    -0.560932865152    12.000000000000
         H           -0.650859273206    -2.307754709202    -0.551541865152     1.007825032230
         H           -3.450711273206     1.658402290798     0.397096134848     1.007825032230
         H            1.052911726794    -2.054505709202     1.019430134848     1.007825032230
         H           -3.118765273206    -2.528667709202    -0.541223865152     1.007825032230
         H           -4.525008273206    -0.520107709202    -0.048319865152     1.007825032230
         H            3.549005726794    -1.993620709202     0.949811134848     1.007825032230
         H            0.026699726794     2.304570290798     0.038201134848     1.007825032230
         H           -1.494876273206     2.940581290798     0.377411134848     1.007825032230
         H            4.674319726794    -0.000788709202    -0.097703865152     1.007825032230
         H            3.239081726794     1.834515290798    -1.000610865152     1.007825032230

  Basis Set: AUG-CC-PVTZ
    Blend: AUG-CC-PVTZ
  Basis Set: (AUG-CC-PVTZ AUX)
    Blend: AUG-CC-PVTZ-JKFIT
	 Reference Energy          =    -531.3920624519571447 [Eh]
	 Singles Energy            =      -0.0000000000000000 [Eh]
	 Same-Spin Energy          =      -0.5964594446834932 [Eh]
	 Opposite-Spin Energy      =      -1.8230254374720336 [Eh]
	 Correlation Energy        =      -2.4194848821555270 [Eh]
	 Total Energy              =    -533.8115473341126744 [Eh]

	 ================> DF-SCS-MP2 Energies <==================
	-----------------------------------------------------------
	 SCS Same-Spin Scale       =       0.3333333333333333 [-]
	 SCS Opposite-Spin Scale   =       1.2000000000000000 [-]
	 SCS Same-Spin Energy      =      -0.1988198148944977 [Eh]
	 SCS Opposite-Spin Energy  =      -2.1876305249664401 [Eh]
	 SCS Correlation Energy    =      -2.3864503398609376 [Eh]
	 SCS Total Energy          =    -533.7785127918181161 [Eh]
	-----------------------------------------------------------

  Dipole Moment: [D]
     X:     1.9594      Y:    -0.3946      Z:    -0.0185     Total:     1.9988

*** Psi4 exiting successfully. Buy a developer a beer!
