                               Psi4 1.3.2 release

  ==> Input File <==

--------------------------------------------------------------------------
#psi4
#
memory 32 gb

molecule  {
0 1
  N        1.4447430     0.9271060    -0.5600120
  N       -0.8646290     2.1728000     0.5033790
  C       -0.6433280    -0.2041590    -0.0552500
  C        0.8343400    -0.1560850    -0.0228830
  C       -1.4788439     0.9541630     0.2056344
  C       -1.2729090    -1.4294320    -0.3272730
  C       -2.8381000     0.7953410     0.1919050
  C        1.5703020    -1.2114420     0.5410850
  C       -2.6593290    -1.5570310    -0.3269880
  C       -3.4429950    -0.4315550    -0.0645950
  C        2.9613910    -1.1706130     0.5101660
  C        3.5885550    -0.0650650    -0.0636080
  C        2.7882770     0.9583460    -0.5692770
  H       -0.6539860    -2.2940070    -0.5598860
  H       -3.4538380     1.6721500     0.3887520
  H        1.0497850    -2.0407580     1.0110860
  H       -3.1218920    -2.5149200    -0.5495680
  H       -4.5281350    -0.5063600    -0.0566640
  H        3.5458790    -1.9798730     0.9414670
  H        0.0235730     2.3183180     0.0298570
  H       -1.4980030     2.9543290     0.3690670
  H        4.6711930     0.0129590    -0.1060480
  H        3.2359550     1.8482630    -1.0089550
units angstrom
no_reorient  #important for SAPT in psi4, default
symmetry c1  #important for SAPT in psi4, default
}

set PROPERTIES_ORIGIN ["COM"]
properties('MP2/aug-cc-pvtz', properties = ['dipole'])
--------------------------------------------------------------------------

    Molecular point group: c1
  Charge       = 0
  Multiplicity = 1
  Basis Set: AUG-CC-PVTZ
    Blend: AUG-CC-PVTZ
  Basis Set: (AUG-CC-PVTZ AUX)
    Blend: AUG-CC-PVTZ-JKFIT

    Orbital Energies [Eh]
    ---------------------

    Doubly Occupied:

       1A    -15.569021     2A    -15.550431     3A    -11.290601
       4A    -11.281458     5A    -11.280432     6A    -11.263583
       7A    -11.242945     8A    -11.242331     9A    -11.239180
      10A    -11.238876    11A    -11.237826    12A    -11.221181
      13A    -11.219480    14A     -1.262306    15A     -1.213706
      16A     -1.127602    17A     -1.089140    18A     -1.061621
      19A     -1.000713    20A     -0.979273    21A     -0.873197
      22A     -0.863956    23A     -0.813206    24A     -0.802960
      25A     -0.718895    26A     -0.692131    27A     -0.684269
      28A     -0.663334    29A     -0.653741    30A     -0.626264
      31A     -0.599181    32A     -0.591013    33A     -0.584497
      34A     -0.574333    35A     -0.550920    36A     -0.536740
      37A     -0.520728    38A     -0.503020    39A     -0.490638
      40A     -0.444887    41A     -0.421106    42A     -0.389074
      43A     -0.368411    44A     -0.320838    45A     -0.285645

  @DF-RHF Final Energy:  -531.45136371748549

   => Energetics <=

    Nuclear Repulsion Energy =            714.3137309705437019
    One-Electron Energy =               -2137.1608119352863469
    Two-Electron Energy =                 891.3957172472571528
    Total Energy =                       -531.4513637174854921
  Basis Set: (AUG-CC-PVTZ AUX)
    Blend: AUG-CC-PVTZ-RI
    Molecular point group: c1

    Geometry (in Angstrom), charge = 0, multiplicity = 1:

       Center              X                  Y                   Z               Mass
    ------------   -----------------  -----------------  -----------------  -----------------
         N            1.443117199178     0.923203327829    -0.559404426606    14.003074004430
         N           -0.866254800822     2.168897327829     0.503986573394    14.003074004430
         C           -0.644953800822    -0.208061672171    -0.054642426606    12.000000000000
         C            0.832714199178    -0.159987672171    -0.022275426606    12.000000000000
         C           -1.480469700822     0.950260327829     0.206241973394    12.000000000000
         C           -1.274534800822    -1.433334672171    -0.326665426606    12.000000000000
         C           -2.839725800822     0.791438327829     0.192512573394    12.000000000000
         C            1.568676199178    -1.215344672171     0.541692573394    12.000000000000
         C           -2.660954800822    -1.560933672171    -0.326380426606    12.000000000000
         C           -3.444620800822    -0.435457672171    -0.063987426606    12.000000000000
         C            2.959765199178    -1.174515672171     0.510773573394    12.000000000000
         C            3.586929199178    -0.068967672171    -0.063000426606    12.000000000000
         C            2.786651199178     0.954443327829    -0.568669426606    12.000000000000
         H           -0.655611800822    -2.297909672171    -0.559278426606     1.007825032230
         H           -3.455463800822     1.668247327829     0.389359573394     1.007825032230
         H            1.048159199178    -2.044660672171     1.011693573394     1.007825032230
         H           -3.123517800822    -2.518822672171    -0.548960426606     1.007825032230
         H           -4.529760800822    -0.510262672171    -0.056056426606     1.007825032230
         H            3.544253199178    -1.983775672171     0.942074573394     1.007825032230
         H            0.021947199178     2.314415327829     0.030464573394     1.007825032230
         H           -1.499628800822     2.950426327829     0.369674573394     1.007825032230
         H            4.669567199178     0.009056327829    -0.105440426606     1.007825032230
         H            3.234329199178     1.844360327829    -1.008347426606     1.007825032230

  Basis Set: AUG-CC-PVTZ
    Blend: AUG-CC-PVTZ
  Basis Set: (AUG-CC-PVTZ AUX)
    Blend: AUG-CC-PVTZ-JKFIT
	 Reference Energy          =    -531.4513637174854921 [Eh]
	 Singles Energy            =      -0.0000000000000000 [Eh]
	 Same-Spin Energy          =      -0.5965088132203353 [Eh]
	 Opposite-Spin Energy      =      -1.8208046151765389 [Eh]
	 Correlation Energy        =      -2.4173134283968745 [Eh]
	 Total Energy              =    -533.8686771458823159 [Eh]

	 ================> DF-SCS-MP2 Energies <==================
	-----------------------------------------------------------
	 SCS Same-Spin Scale       =       0.3333333333333333 [-]
	 SCS Opposite-Spin Scale   =       1.2000000000000000 [-]
	 SCS Same-Spin Energy      =      -0.1988362710734451 [Eh]
	 SCS Opposite-Spin Energy  =      -2.1849655382118467 [Eh]
	 SCS Correlation Energy    =      -2.3838018092852917 [Eh]
	 SCS Total Energy          =    -533.8351655267707656 [Eh]
	-----------------------------------------------------------

  Dipole Moment: [D]
     X:     1.5488      Y:    -0.4418      Z:     0.0127     Total:     1.6107

*** Psi4 exiting successfully. Buy a developer a beer!
