                               Psi4 1.3.2 release

  ==> Input File <==

--------------------------------------------------------------------------
#psi4
#
memory 32 gb

molecule  {
0 1
  N        1.4447430     0.9271060    -0.5600120
  N       -0.8646290     2.1728000     0.5033790
  C       -0.6433280    -0.2041590    -0.0552500
  C        0.8343400    -0.1560850    -0.0228830
  C       -1.4033074     0.9342427     0.1473041
  C       -1.2729090    -1.4294320    -0.3272730
  C       -2.8381000     0.7953410     0.1919050
  C        1.5703020    -1.2114420     0.5410850
  C       -2.6593290    -1.5570310    -0.3269880
  C       -3.4429950    -0.4315550    -0.0645950
  C        2.9613910    -1.1706130     0.5101660
  C        3.5885550    -0.0650650    -0.0636080
  C        2.7882770     0.9583460    -0.5692770
  H       -0.6539860    -2.2940070    -0.5598860
  H       -3.4538380     1.6721500     0.3887520
  H        1.0497850    -2.0407580     1.0110860
  H       -3.1218920    -2.5149200    -0.5495680
  H       -4.5281350    -0.5063600    -0.0566640
  H        3.5458790    -1.9798730     0.9414670
  H        0.0235730     2.3183180     0.0298570
  H       -1.4980030     2.9543290     0.3690670
  H        4.6711930     0.0129590    -0.1060480
  H        3.2359550     1.8482630    -1.0089550
units angstrom
no_reorient  #important for SAPT in psi4, default
symmetry c1  #important for SAPT in psi4, default
}

set PROPERTIES_ORIGIN ["COM"]
properties('MP2/aug-cc-pvtz', properties = ['dipole'])
--------------------------------------------------------------------------

    Molecular point group: c1
  Charge       = 0
  Multiplicity = 1
  Basis Set: AUG-CC-PVTZ
    Blend: AUG-CC-PVTZ
  Basis Set: (AUG-CC-PVTZ AUX)
    Blend: AUG-CC-PVTZ-JKFIT

    Orbital Energies [Eh]
    ---------------------

    Doubly Occupied:

       1A    -15.568694     2A    -15.551641     3A    -11.289495
       4A    -11.281369     5A    -11.281058     6A    -11.263398
       7A    -11.242483     8A    -11.241665     9A    -11.239309
      10A    -11.237430    11A    -11.230997    12A    -11.228282
      13A    -11.221593    14A     -1.262822    15A     -1.214288
      16A     -1.128406    17A     -1.088880    18A     -1.061376
      19A     -0.996311    20A     -0.981160    21A     -0.870024
      22A     -0.865142    23A     -0.820476    24A     -0.797941
      25A     -0.718754    26A     -0.689480    27A     -0.685352
      28A     -0.663673    29A     -0.652908    30A     -0.629178
      31A     -0.596491    32A     -0.591044    33A     -0.585158
      34A     -0.574152    35A     -0.550472    36A     -0.536554
      37A     -0.519666    38A     -0.502887    39A     -0.492175
      40A     -0.445504    41A     -0.420536    42A     -0.388969
      43A     -0.369065    44A     -0.317963    45A     -0.287532

  @DF-RHF Final Energy:  -531.45089864401848

   => Energetics <=

    Nuclear Repulsion Energy =            714.9569776946246975
    One-Electron Energy =               -2138.4522532935179697
    Two-Electron Energy =                 892.0443769548749060
    Total Energy =                       -531.4508986440184799
  Basis Set: (AUG-CC-PVTZ AUX)
    Blend: AUG-CC-PVTZ-RI
    Molecular point group: c1

    Geometry (in Angstrom), charge = 0, multiplicity = 1:

       Center              X                  Y                   Z               Mass
    ------------   -----------------  -----------------  -----------------  -----------------
         N            1.437787856752     0.924608768907    -0.555289036794    14.003074004430
         N           -0.871584143248     2.170302768907     0.508101963206    14.003074004430
         C           -0.650283143248    -0.206656231093    -0.050527036794    12.000000000000
         C            0.827384856752    -0.158582231093    -0.018160036794    12.000000000000
         C           -1.410262543248     0.931745468907     0.152027063206    12.000000000000
         C           -1.279864143248    -1.431929231093    -0.322550036794    12.000000000000
         C           -2.845055143248     0.792843768907     0.196627963206    12.000000000000
         C            1.563346856752    -1.213939231093     0.545807963206    12.000000000000
         C           -2.666284143248    -1.559528231093    -0.322265036794    12.000000000000
         C           -3.449950143248    -0.434052231093    -0.059872036794    12.000000000000
         C            2.954435856752    -1.173110231093     0.514888963206    12.000000000000
         C            3.581599856752    -0.067562231093    -0.058885036794    12.000000000000
         C            2.781321856752     0.955848768907    -0.564554036794    12.000000000000
         H           -0.660941143248    -2.296504231093    -0.555163036794     1.007825032230
         H           -3.460793143248     1.669652768907     0.393474963206     1.007825032230
         H            1.042829856752    -2.043255231093     1.015808963206     1.007825032230
         H           -3.128847143248    -2.517417231093    -0.544845036794     1.007825032230
         H           -4.535090143248    -0.508857231093    -0.051941036794     1.007825032230
         H            3.538923856752    -1.982370231093     0.946189963206     1.007825032230
         H            0.016617856752     2.315820768907     0.034579963206     1.007825032230
         H           -1.504958143248     2.951831768907     0.373789963206     1.007825032230
         H            4.664237856752     0.010461768907    -0.101325036794     1.007825032230
         H            3.228999856752     1.845765768907    -1.004232036794     1.007825032230

  Basis Set: AUG-CC-PVTZ
    Blend: AUG-CC-PVTZ
  Basis Set: (AUG-CC-PVTZ AUX)
    Blend: AUG-CC-PVTZ-JKFIT
	 Reference Energy          =    -531.4508986440184799 [Eh]
	 Singles Energy            =      -0.0000000000000000 [Eh]
	 Same-Spin Energy          =      -0.5964620597271031 [Eh]
	 Opposite-Spin Energy      =      -1.8210039920144405 [Eh]
	 Correlation Energy        =      -2.4174660517415436 [Eh]
	 Total Energy              =    -533.8683646957600786 [Eh]

	 ================> DF-SCS-MP2 Energies <==================
	-----------------------------------------------------------
	 SCS Same-Spin Scale       =       0.3333333333333333 [-]
	 SCS Opposite-Spin Scale   =       1.2000000000000000 [-]
	 SCS Same-Spin Energy      =      -0.1988206865757010 [Eh]
	 SCS Opposite-Spin Energy  =      -2.1852047904173286 [Eh]
	 SCS Correlation Energy    =      -2.3840254769930298 [Eh]
	 SCS Total Energy          =    -533.8349241210114542 [Eh]
	-----------------------------------------------------------

  Dipole Moment: [D]
     X:     1.5022      Y:    -0.4042      Z:     0.0144     Total:     1.5557

*** Psi4 exiting successfully. Buy a developer a beer!
