                               Psi4 1.3.2 release

  ==> Input File <==

--------------------------------------------------------------------------
#psi4
#
memory 32 gb

molecule  {
0 1
  N        1.4447430     0.9271060    -0.5600120
  N       -0.8646290     2.1728000     0.5033790
  C       -0.6433280    -0.2041590    -0.0552500
  C        0.8343400    -0.1560850    -0.0228830
  C       -1.4414270     0.9434540     0.1762700
  C       -1.2729090    -1.4294320    -0.3272730
  C       -2.8381000     0.7953410     0.1919050
  C        1.5179131    -1.1363172     0.5009394
  C       -2.6593290    -1.5570310    -0.3269880
  C       -3.4429950    -0.4315550    -0.0645950
  C        2.9613910    -1.1706130     0.5101660
  C        3.5885550    -0.0650650    -0.0636080
  C        2.7882770     0.9583460    -0.5692770
  H       -0.6539860    -2.2940070    -0.5598860
  H       -3.4538380     1.6721500     0.3887520
  H        1.0497850    -2.0407580     1.0110860
  H       -3.1218920    -2.5149200    -0.5495680
  H       -4.5281350    -0.5063600    -0.0566640
  H        3.5458790    -1.9798730     0.9414670
  H        0.0235730     2.3183180     0.0298570
  H       -1.4980030     2.9543290     0.3690670
  H        4.6711930     0.0129590    -0.1060480
  H        3.2359550     1.8482630    -1.0089550
units angstrom
no_reorient  #important for SAPT in psi4, default
symmetry c1  #important for SAPT in psi4, default
}

set PROPERTIES_ORIGIN ["COM"]
properties('MP2/aug-cc-pvtz', properties = ['dipole'])
--------------------------------------------------------------------------

    Molecular point group: c1
  Charge       = 0
  Multiplicity = 1
  Basis Set: AUG-CC-PVTZ
    Blend: AUG-CC-PVTZ
  Basis Set: (AUG-CC-PVTZ AUX)
    Blend: AUG-CC-PVTZ-JKFIT

    Orbital Energies [Eh]
    ---------------------

    Doubly Occupied:

       1A    -15.568750     2A    -15.549470     3A    -11.284214
       4A    -11.278121     5A    -11.274011     6A    -11.271628
       7A    -11.245540     8A    -11.239709     9A    -11.236346
      10A    -11.235700    11A    -11.231801    12A    -11.221939
      13A    -11.219161    14A     -1.267154    15A     -1.212556
      16A     -1.126522    17A     -1.084396    18A     -1.069255
      19A     -0.998108    20A     -0.979306    21A     -0.875142
      22A     -0.865239    23A     -0.813455    24A     -0.802047
      25A     -0.719632    26A     -0.688268    27A     -0.684426
      28A     -0.662919    29A     -0.651458    30A     -0.628037
      31A     -0.595215    32A     -0.591734    33A     -0.584009
      34A     -0.579173    35A     -0.555002    36A     -0.527730
      37A     -0.516469    38A     -0.496778    39A     -0.487100
      40A     -0.443524    41A     -0.424377    42A     -0.384447
      43A     -0.374111    44A     -0.320875    45A     -0.286193

  @DF-RHF Final Energy:  -531.43996480282760

   => Energetics <=

    Nuclear Repulsion Energy =            716.3513920099413781
    One-Electron Energy =               -2141.2806140023735679
    Two-Electron Energy =                 893.4892571896047002
    Total Energy =                       -531.4399648028276033
  Basis Set: (AUG-CC-PVTZ AUX)
    Blend: AUG-CC-PVTZ-RI
    Molecular point group: c1

    Geometry (in Angstrom), charge = 0, multiplicity = 1:

       Center              X                  Y                   Z               Mass
    ------------   -----------------  -----------------  -----------------  -----------------
         N            1.444173521814     0.918658586468    -0.554500273090    14.003074004430
         N           -0.865198478186     2.164352586468     0.508890726910    14.003074004430
         C           -0.643897478186    -0.212606413532    -0.049738273090    12.000000000000
         C            0.833770521814    -0.164532413532    -0.017371273090    12.000000000000
         C           -1.441996478186     0.935006586468     0.181781726910    12.000000000000
         C           -1.273478478186    -1.437879413532    -0.321761273090    12.000000000000
         C           -2.838669478186     0.786893586468     0.197416726910    12.000000000000
         C            1.517343621814    -1.144764613532     0.506451126910    12.000000000000
         C           -2.659898478186    -1.565478413532    -0.321476273090    12.000000000000
         C           -3.443564478186    -0.440002413532    -0.059083273090    12.000000000000
         C            2.960821521814    -1.179060413532     0.515677726910    12.000000000000
         C            3.587985521814    -0.073512413532    -0.058096273090    12.000000000000
         C            2.787707521814     0.949898586468    -0.563765273090    12.000000000000
         H           -0.654555478186    -2.302454413532    -0.554374273090     1.007825032230
         H           -3.454407478186     1.663702586468     0.394263726910     1.007825032230
         H            1.049215521814    -2.049205413532     1.016597726910     1.007825032230
         H           -3.122461478186    -2.523367413532    -0.544056273090     1.007825032230
         H           -4.528704478186    -0.514807413532    -0.051152273090     1.007825032230
         H            3.545309521814    -1.988320413532     0.946978726910     1.007825032230
         H            0.023003521814     2.309870586468     0.035368726910     1.007825032230
         H           -1.498572478186     2.945881586468     0.374578726910     1.007825032230
         H            4.670623521814     0.004511586468    -0.100536273090     1.007825032230
         H            3.235385521814     1.839815586468    -1.003443273090     1.007825032230

  Basis Set: AUG-CC-PVTZ
    Blend: AUG-CC-PVTZ
  Basis Set: (AUG-CC-PVTZ AUX)
    Blend: AUG-CC-PVTZ-JKFIT
	 Reference Energy          =    -531.4399648028276033 [Eh]
	 Singles Energy            =      -0.0000000000000000 [Eh]
	 Same-Spin Energy          =      -0.5966069119817052 [Eh]
	 Opposite-Spin Energy      =      -1.8214487652428621 [Eh]
	 Correlation Energy        =      -2.4180556772245674 [Eh]
	 Total Energy              =    -533.8580204800521187 [Eh]

	 ================> DF-SCS-MP2 Energies <==================
	-----------------------------------------------------------
	 SCS Same-Spin Scale       =       0.3333333333333333 [-]
	 SCS Opposite-Spin Scale   =       1.2000000000000000 [-]
	 SCS Same-Spin Energy      =      -0.1988689706605684 [Eh]
	 SCS Opposite-Spin Energy  =      -2.1857385182914344 [Eh]
	 SCS Correlation Energy    =      -2.3846074889520028 [Eh]
	 SCS Total Energy          =    -533.8245722917796456 [Eh]
	-----------------------------------------------------------

  Dipole Moment: [D]
     X:     1.7296      Y:    -0.4228      Z:     0.0058     Total:     1.7806

*** Psi4 exiting successfully. Buy a developer a beer!
