                               Psi4 1.3.2 release

  ==> Input File <==

--------------------------------------------------------------------------
#psi4
#
memory 32 gb

molecule  {
0 1
  N        1.4447430     0.9271060    -0.5600120
  N       -0.8646290     2.1728000     0.5033790
  C       -0.6846455    -0.2310986    -0.0588622
  C        0.8343400    -0.1560850    -0.0228830
  C       -1.4414270     0.9434540     0.1762700
  C       -1.2729090    -1.4294320    -0.3272730
  C       -2.8381000     0.7953410     0.1919050
  C        1.5703020    -1.2114420     0.5410850
  C       -2.6593290    -1.5570310    -0.3269880
  C       -3.4429950    -0.4315550    -0.0645950
  C        2.9613910    -1.1706130     0.5101660
  C        3.5885550    -0.0650650    -0.0636080
  C        2.7882770     0.9583460    -0.5692770
  H       -0.6539860    -2.2940070    -0.5598860
  H       -3.4538380     1.6721500     0.3887520
  H        1.0497850    -2.0407580     1.0110860
  H       -3.1218920    -2.5149200    -0.5495680
  H       -4.5281350    -0.5063600    -0.0566640
  H        3.5458790    -1.9798730     0.9414670
  H        0.0235730     2.3183180     0.0298570
  H       -1.4980030     2.9543290     0.3690670
  H        4.6711930     0.0129590    -0.1060480
  H        3.2359550     1.8482630    -1.0089550
units angstrom
no_reorient  #important for SAPT in psi4, default
symmetry c1  #important for SAPT in psi4, default
}

set PROPERTIES_ORIGIN ["COM"]
properties('MP2/aug-cc-pvtz', properties = ['dipole'])
--------------------------------------------------------------------------

    Molecular point group: c1
  Charge       = 0
  Multiplicity = 1
  Basis Set: AUG-CC-PVTZ
    Blend: AUG-CC-PVTZ
  Basis Set: (AUG-CC-PVTZ AUX)
    Blend: AUG-CC-PVTZ-JKFIT

    Orbital Energies [Eh]
    ---------------------

    Doubly Occupied:

       1A    -15.569676     2A    -15.552381     3A    -11.292057
       4A    -11.281765     5A    -11.280247     6A    -11.263536
       7A    -11.242999     8A    -11.241858     9A    -11.236436
      10A    -11.234973    11A    -11.233418    12A    -11.222757
      13A    -11.220290    14A     -1.261628    15A     -1.214422
      16A     -1.132079    17A     -1.088988    18A     -1.058076
      19A     -1.001286    20A     -0.980579    21A     -0.867803
      22A     -0.863818    23A     -0.817689    24A     -0.802638
      25A     -0.718309    26A     -0.690958    27A     -0.684608
      28A     -0.661590    29A     -0.653053    30A     -0.627152
      31A     -0.593853    32A     -0.593111    33A     -0.590390
      34A     -0.573325    35A     -0.550409    36A     -0.536813
      37A     -0.521369    38A     -0.504607    39A     -0.487700
      40A     -0.446877    41A     -0.419409    42A     -0.388701
      43A     -0.368053    44A     -0.322538    45A     -0.286941

  @DF-RHF Final Energy:  -531.45163082353201

   => Energetics <=

    Nuclear Repulsion Energy =            714.5606659620952996
    One-Electron Energy =               -2137.6622669252142259
    Two-Electron Energy =                 891.6499701395869124
    Total Energy =                       -531.4516308235320139
  Basis Set: (AUG-CC-PVTZ AUX)
    Blend: AUG-CC-PVTZ-RI
    Molecular point group: c1

    Geometry (in Angstrom), charge = 0, multiplicity = 1:

       Center              X                  Y                   Z               Mass
    ------------   -----------------  -----------------  -----------------  -----------------
         N            1.443392399023     0.925859557351    -0.557077821674    14.003074004430
         N           -0.865979600977     2.171553557351     0.506313178326    14.003074004430
         C           -0.685996100977    -0.232345042649    -0.055928021674    12.000000000000
         C            0.832989399023    -0.157331442649    -0.019948821674    12.000000000000
         C           -1.442777600977     0.942207557351     0.179204178326    12.000000000000
         C           -1.274259600977    -1.430678442649    -0.324338821674    12.000000000000
         C           -2.839450600977     0.794094557351     0.194839178326    12.000000000000
         C            1.568951399023    -1.212688442649     0.544019178326    12.000000000000
         C           -2.660679600977    -1.558277442649    -0.324053821674    12.000000000000
         C           -3.444345600977    -0.432801442649    -0.061660821674    12.000000000000
         C            2.960040399023    -1.171859442649     0.513100178326    12.000000000000
         C            3.587204399023    -0.066311442649    -0.060673821674    12.000000000000
         C            2.786926399023     0.957099557351    -0.566342821674    12.000000000000
         H           -0.655336600977    -2.295253442649    -0.556951821674     1.007825032230
         H           -3.455188600977     1.670903557351     0.391686178326     1.007825032230
         H            1.048434399023    -2.042004442649     1.014020178326     1.007825032230
         H           -3.123242600977    -2.516166442649    -0.546633821674     1.007825032230
         H           -4.529485600977    -0.507606442649    -0.053729821674     1.007825032230
         H            3.544528399023    -1.981119442649     0.944401178326     1.007825032230
         H            0.022222399023     2.317071557351     0.032791178326     1.007825032230
         H           -1.499353600977     2.953082557351     0.372001178326     1.007825032230
         H            4.669842399023     0.011712557351    -0.103113821674     1.007825032230
         H            3.234604399023     1.847016557351    -1.006020821674     1.007825032230

  Basis Set: AUG-CC-PVTZ
    Blend: AUG-CC-PVTZ
  Basis Set: (AUG-CC-PVTZ AUX)
    Blend: AUG-CC-PVTZ-JKFIT
	 Reference Energy          =    -531.4516308235320139 [Eh]
	 Singles Energy            =      -0.0000000000000000 [Eh]
	 Same-Spin Energy          =      -0.5961334156370124 [Eh]
	 Opposite-Spin Energy      =      -1.8201674145676623 [Eh]
	 Correlation Energy        =      -2.4163008302046745 [Eh]
	 Total Energy              =    -533.8679316537367185 [Eh]

	 ================> DF-SCS-MP2 Energies <==================
	-----------------------------------------------------------
	 SCS Same-Spin Scale       =       0.3333333333333333 [-]
	 SCS Opposite-Spin Scale   =       1.2000000000000000 [-]
	 SCS Same-Spin Energy      =      -0.1987111385456708 [Eh]
	 SCS Opposite-Spin Energy  =      -2.1842008974811948 [Eh]
	 SCS Correlation Energy    =      -2.3829120360268656 [Eh]
	 SCS Total Energy          =    -533.8345428595588373 [Eh]
	-----------------------------------------------------------

  Dipole Moment: [D]
     X:     1.5744      Y:    -0.4119      Z:     0.0088     Total:     1.6274

*** Psi4 exiting successfully. Buy a developer a beer!
