                               Psi4 1.3.2 release

  ==> Input File <==

--------------------------------------------------------------------------
#psi4
#
memory 32 gb

molecule  {
0 1
  N        1.4447430     0.9271060    -0.5600120
  N       -0.8646290     2.1728000     0.5033790
  C       -0.6433280    -0.2041590    -0.0552500
  C        0.8555336    -0.1654145    -0.0181325
  C       -1.4414270     0.9434540     0.1762700
  C       -1.2729090    -1.4294320    -0.3272730
  C       -2.8381000     0.7953410     0.1919050
  C        1.5703020    -1.2114420     0.5410850
  C       -2.6593290    -1.5570310    -0.3269880
  C       -3.4429950    -0.4315550    -0.0645950
  C        2.9613910    -1.1706130     0.5101660
  C        3.5885550    -0.0650650    -0.0636080
  C        2.7882770     0.9583460    -0.5692770
  H       -0.6539860    -2.2940070    -0.5598860
  H       -3.4538380     1.6721500     0.3887520
  H        1.0497850    -2.0407580     1.0110860
  H       -3.1218920    -2.5149200    -0.5495680
  H       -4.5281350    -0.5063600    -0.0566640
  H        3.5458790    -1.9798730     0.9414670
  H        0.0235730     2.3183180     0.0298570
  H       -1.4980030     2.9543290     0.3690670
  H        4.6711930     0.0129590    -0.1060480
  H        3.2359550     1.8482630    -1.0089550
units angstrom
no_reorient  #important for SAPT in psi4, default
symmetry c1  #important for SAPT in psi4, default
}

set PROPERTIES_ORIGIN ["COM"]
properties('MP2/aug-cc-pvtz', properties = ['dipole'])
--------------------------------------------------------------------------

    Molecular point group: c1
  Charge       = 0
  Multiplicity = 1
  Basis Set: AUG-CC-PVTZ
    Blend: AUG-CC-PVTZ
  Basis Set: (AUG-CC-PVTZ AUX)
    Blend: AUG-CC-PVTZ-JKFIT

    Orbital Energies [Eh]
    ---------------------

    Doubly Occupied:

       1A    -15.569752     2A    -15.550248     3A    -11.288807
       4A    -11.282299     5A    -11.279850     6A    -11.264668
       7A    -11.243371     8A    -11.240537     9A    -11.237924
      10A    -11.237050    11A    -11.234960    12A    -11.223231
      13A    -11.220389    14A     -1.264022    15A     -1.213260
      16A     -1.126641    17A     -1.090894    18A     -1.060777
      19A     -0.997844    20A     -0.979872    21A     -0.869555
      22A     -0.866793    23A     -0.816221    24A     -0.800617
      25A     -0.718724    26A     -0.689614    27A     -0.684288
      28A     -0.663405    29A     -0.653688    30A     -0.627669
      31A     -0.595305    32A     -0.591862    33A     -0.585589
      34A     -0.573902    35A     -0.551780    36A     -0.536150
      37A     -0.519622    38A     -0.499927    39A     -0.491831
      40A     -0.444389    41A     -0.423753    42A     -0.388854
      43A     -0.369556    44A     -0.319771    45A     -0.286574

  @DF-RHF Final Energy:  -531.45338625218778

   => Energetics <=

    Nuclear Repulsion Energy =            714.5967819418135605
    One-Electron Energy =               -2137.7486669012973834
    Two-Electron Energy =                 891.6984987072960394
    Total Energy =                       -531.4533862521877836
  Basis Set: (AUG-CC-PVTZ AUX)
    Blend: AUG-CC-PVTZ-RI
    Molecular point group: c1

    Geometry (in Angstrom), charge = 0, multiplicity = 1:

       Center              X                  Y                   Z               Mass
    ------------   -----------------  -----------------  -----------------  -----------------
         N            1.438982040358     0.924617108296    -0.557667836990    14.003074004430
         N           -0.870389959642     2.170311108296     0.505723163010    14.003074004430
         C           -0.649088959642    -0.206647891704    -0.052905836990    12.000000000000
         C            0.849772640358    -0.167903391704    -0.015788336990    12.000000000000
         C           -1.447187959642     0.940965108296     0.178614163010    12.000000000000
         C           -1.278669959642    -1.431920891704    -0.324928836990    12.000000000000
         C           -2.843860959642     0.792852108296     0.194249163010    12.000000000000
         C            1.564541040358    -1.213930891704     0.543429163010    12.000000000000
         C           -2.665089959642    -1.559519891704    -0.324643836990    12.000000000000
         C           -3.448755959642    -0.434043891704    -0.062250836990    12.000000000000
         C            2.955630040358    -1.173101891704     0.512510163010    12.000000000000
         C            3.582794040358    -0.067553891704    -0.061263836990    12.000000000000
         C            2.782516040358     0.955857108296    -0.566932836990    12.000000000000
         H           -0.659746959642    -2.296495891704    -0.557541836990     1.007825032230
         H           -3.459598959642     1.669661108296     0.391096163010     1.007825032230
         H            1.044024040358    -2.043246891704     1.013430163010     1.007825032230
         H           -3.127652959642    -2.517408891704    -0.547223836990     1.007825032230
         H           -4.533895959642    -0.508848891704    -0.054319836990     1.007825032230
         H            3.540118040358    -1.982361891704     0.943811163010     1.007825032230
         H            0.017812040358     2.315829108296     0.032201163010     1.007825032230
         H           -1.503763959642     2.951840108296     0.371411163010     1.007825032230
         H            4.665432040358     0.010470108296    -0.103703836990     1.007825032230
         H            3.230194040358     1.845774108296    -1.006610836990     1.007825032230

  Basis Set: AUG-CC-PVTZ
    Blend: AUG-CC-PVTZ
  Basis Set: (AUG-CC-PVTZ AUX)
    Blend: AUG-CC-PVTZ-JKFIT
	 Reference Energy          =    -531.4533862521877836 [Eh]
	 Singles Energy            =      -0.0000000000000000 [Eh]
	 Same-Spin Energy          =      -0.5962568384533771 [Eh]
	 Opposite-Spin Energy      =      -1.8204578929459019 [Eh]
	 Correlation Energy        =      -2.4167147313992787 [Eh]
	 Total Energy              =    -533.8701009835870082 [Eh]

	 ================> DF-SCS-MP2 Energies <==================
	-----------------------------------------------------------
	 SCS Same-Spin Scale       =       0.3333333333333333 [-]
	 SCS Opposite-Spin Scale   =       1.2000000000000000 [-]
	 SCS Same-Spin Energy      =      -0.1987522794844590 [Eh]
	 SCS Opposite-Spin Energy  =      -2.1845494715350822 [Eh]
	 SCS Correlation Energy    =      -2.3833017510195411 [Eh]
	 SCS Total Energy          =    -533.8366880032073141 [Eh]
	-----------------------------------------------------------

  Dipole Moment: [D]
     X:     1.6361      Y:    -0.4263      Z:     0.0165     Total:     1.6908

*** Psi4 exiting successfully. Buy a developer a beer!
