                               Psi4 1.3.2 release

  ==> Input File <==

--------------------------------------------------------------------------
#psi4
#
memory 32 gb

molecule  {
0 1
  N        1.4447430     0.9271060    -0.5600120
  N       -0.8646290     2.1728000     0.5033790
  C       -0.6433280    -0.2041590    -0.0552500
  C        0.8343400    -0.1560850    -0.0228830
  C       -1.4817908     0.9156511     0.1696604
  C       -1.2729090    -1.4294320    -0.3272730
  C       -2.8381000     0.7953410     0.1919050
  C        1.5703020    -1.2114420     0.5410850
  C       -2.6593290    -1.5570310    -0.3269880
  C       -3.4429950    -0.4315550    -0.0645950
  C        2.9613910    -1.1706130     0.5101660
  C        3.5885550    -0.0650650    -0.0636080
  C        2.7882770     0.9583460    -0.5692770
  H       -0.6539860    -2.2940070    -0.5598860
  H       -3.4538380     1.6721500     0.3887520
  H        1.0497850    -2.0407580     1.0110860
  H       -3.1218920    -2.5149200    -0.5495680
  H       -4.5281350    -0.5063600    -0.0566640
  H        3.5458790    -1.9798730     0.9414670
  H        0.0235730     2.3183180     0.0298570
  H       -1.4980030     2.9543290     0.3690670
  H        4.6711930     0.0129590    -0.1060480
  H        3.2359550     1.8482630    -1.0089550
units angstrom
no_reorient  #important for SAPT in psi4, default
symmetry c1  #important for SAPT in psi4, default
}

set PROPERTIES_ORIGIN ["COM"]
properties('MP2/aug-cc-pvtz', properties = ['dipole'])
--------------------------------------------------------------------------

    Molecular point group: c1
  Charge       = 0
  Multiplicity = 1
  Basis Set: AUG-CC-PVTZ
    Blend: AUG-CC-PVTZ
  Basis Set: (AUG-CC-PVTZ AUX)
    Blend: AUG-CC-PVTZ-JKFIT

    Orbital Energies [Eh]
    ---------------------

    Doubly Occupied:

       1A    -15.569318     2A    -15.545686     3A    -11.291604
       4A    -11.281609     5A    -11.276619     6A    -11.263998
       7A    -11.243476     8A    -11.243185     9A    -11.239889
      10A    -11.239388    11A    -11.237012    12A    -11.223481
      13A    -11.221111    14A     -1.262323    15A     -1.202532
      16A     -1.127109    17A     -1.089507    18A     -1.063259
      19A     -1.002098    20A     -0.983099    21A     -0.873808
      22A     -0.864909    23A     -0.816790    24A     -0.802021
      25A     -0.720299    26A     -0.688547    27A     -0.680853
      28A     -0.662359    29A     -0.651466    30A     -0.622927
      31A     -0.599888    32A     -0.593456    33A     -0.584519
      34A     -0.574305    35A     -0.551059    36A     -0.536522
      37A     -0.519670    38A     -0.501627    39A     -0.495465
      40A     -0.440000    41A     -0.421171    42A     -0.389368
      43A     -0.369419    44A     -0.321593    45A     -0.291256

  @DF-RHF Final Energy:  -531.45083188136778

   => Energetics <=

    Nuclear Repulsion Energy =            714.6441199472977814
    One-Electron Energy =               -2137.8307100472161437
    Two-Electron Energy =                 891.7357582185504725
    Total Energy =                       -531.4508318813677761
  Basis Set: (AUG-CC-PVTZ AUX)
    Blend: AUG-CC-PVTZ-RI
    Molecular point group: c1

    Geometry (in Angstrom), charge = 0, multiplicity = 1:

       Center              X                  Y                   Z               Mass
    ------------   -----------------  -----------------  -----------------  -----------------
         N            1.443325112428     0.925920465936    -0.556866345487    14.003074004430
         N           -0.866046887572     2.171614465936     0.506524654513    14.003074004430
         C           -0.644745887572    -0.205344534064    -0.052104345487    12.000000000000
         C            0.832922112428    -0.157270534064    -0.019737345487    12.000000000000
         C           -1.483208687572     0.914465565936     0.172806054513    12.000000000000
         C           -1.274326887572    -1.430617534064    -0.324127345487    12.000000000000
         C           -2.839517887572     0.794155465936     0.195050654513    12.000000000000
         C            1.568884112428    -1.212627534064     0.544230654513    12.000000000000
         C           -2.660746887572    -1.558216534064    -0.323842345487    12.000000000000
         C           -3.444412887572    -0.432740534064    -0.061449345487    12.000000000000
         C            2.959973112428    -1.171798534064     0.513311654513    12.000000000000
         C            3.587137112428    -0.066250534064    -0.060462345487    12.000000000000
         C            2.786859112428     0.957160465936    -0.566131345487    12.000000000000
         H           -0.655403887572    -2.295192534064    -0.556740345487     1.007825032230
         H           -3.455255887572     1.670964465936     0.391897654513     1.007825032230
         H            1.048367112428    -2.041943534064     1.014231654513     1.007825032230
         H           -3.123309887572    -2.516105534064    -0.546422345487     1.007825032230
         H           -4.529552887572    -0.507545534064    -0.053518345487     1.007825032230
         H            3.544461112428    -1.981058534064     0.944612654513     1.007825032230
         H            0.022155112428     2.317132465936     0.033002654513     1.007825032230
         H           -1.499420887572     2.953143465936     0.372212654513     1.007825032230
         H            4.669775112428     0.011773465936    -0.102902345487     1.007825032230
         H            3.234537112428     1.847077465936    -1.005809345487     1.007825032230

  Basis Set: AUG-CC-PVTZ
    Blend: AUG-CC-PVTZ
  Basis Set: (AUG-CC-PVTZ AUX)
    Blend: AUG-CC-PVTZ-JKFIT
	 Reference Energy          =    -531.4508318813677761 [Eh]
	 Singles Energy            =      -0.0000000000000000 [Eh]
	 Same-Spin Energy          =      -0.5962935655918269 [Eh]
	 Opposite-Spin Energy      =      -1.8207459396260461 [Eh]
	 Correlation Energy        =      -2.4170395052178728 [Eh]
	 Total Energy              =    -533.8678713865856480 [Eh]

	 ================> DF-SCS-MP2 Energies <==================
	-----------------------------------------------------------
	 SCS Same-Spin Scale       =       0.3333333333333333 [-]
	 SCS Opposite-Spin Scale   =       1.2000000000000000 [-]
	 SCS Same-Spin Energy      =      -0.1987645218639423 [Eh]
	 SCS Opposite-Spin Energy  =      -2.1848951275512554 [Eh]
	 SCS Correlation Energy    =      -2.3836596494151978 [Eh]
	 SCS Total Energy          =    -533.8344915307829979 [Eh]
	-----------------------------------------------------------

  Dipole Moment: [D]
     X:     1.4671      Y:    -0.6677      Z:    -0.0505     Total:     1.6127

*** Psi4 exiting successfully. Buy a developer a beer!
