                               Psi4 1.3.2 release

  ==> Input File <==

--------------------------------------------------------------------------
#psi4
#
memory 32 gb

molecule  {
0 1
  N        1.4447430     0.9271060    -0.5600120
  N       -0.8425538     2.1625324     0.5021327
  C       -0.6433280    -0.2041590    -0.0552500
  C        0.8343400    -0.1560850    -0.0228830
  C       -1.4414270     0.9434540     0.1762700
  C       -1.2729090    -1.4294320    -0.3272730
  C       -2.8381000     0.7953410     0.1919050
  C        1.5703020    -1.2114420     0.5410850
  C       -2.6593290    -1.5570310    -0.3269880
  C       -3.4429950    -0.4315550    -0.0645950
  C        2.9613910    -1.1706130     0.5101660
  C        3.5885550    -0.0650650    -0.0636080
  C        2.7882770     0.9583460    -0.5692770
  H       -0.6539860    -2.2940070    -0.5598860
  H       -3.4538380     1.6721500     0.3887520
  H        1.0497850    -2.0407580     1.0110860
  H       -3.1218920    -2.5149200    -0.5495680
  H       -4.5281350    -0.5063600    -0.0566640
  H        3.5458790    -1.9798730     0.9414670
  H        0.0235730     2.3183180     0.0298570
  H       -1.4980030     2.9543290     0.3690670
  H        4.6711930     0.0129590    -0.1060480
  H        3.2359550     1.8482630    -1.0089550
units angstrom
no_reorient  #important for SAPT in psi4, default
symmetry c1  #important for SAPT in psi4, default
}

set PROPERTIES_ORIGIN ["COM"]
properties('MP2/aug-cc-pvtz', properties = ['dipole'])
--------------------------------------------------------------------------

    Molecular point group: c1
  Charge       = 0
  Multiplicity = 1
  Basis Set: AUG-CC-PVTZ
    Blend: AUG-CC-PVTZ
  Basis Set: (AUG-CC-PVTZ AUX)
    Blend: AUG-CC-PVTZ-JKFIT

    Orbital Energies [Eh]
    ---------------------

    Doubly Occupied:

       1A    -15.568511     2A    -15.551765     3A    -11.289840
       4A    -11.281168     5A    -11.280918     6A    -11.263300
       7A    -11.242585     8A    -11.241911     9A    -11.239056
      10A    -11.238507    11A    -11.234237    12A    -11.224622
      13A    -11.221409    14A     -1.262452    15A     -1.213935
      16A     -1.127930    17A     -1.088804    18A     -1.061320
      19A     -0.997994    20A     -0.980676    21A     -0.871700
      22A     -0.864216    23A     -0.816478    24A     -0.801184
      25A     -0.718807    26A     -0.692764    27A     -0.682071
      28A     -0.662632    29A     -0.654324    30A     -0.627029
      31A     -0.596933    32A     -0.591727    33A     -0.584537
      34A     -0.574289    35A     -0.550653    36A     -0.536805
      37A     -0.520034    38A     -0.501643    39A     -0.493581
      40A     -0.445541    41A     -0.420826    42A     -0.388768
      43A     -0.368536    44A     -0.319279    45A     -0.286957

  @DF-RHF Final Energy:  -531.45247977640145

   => Energetics <=

    Nuclear Repulsion Energy =            714.8618983248342147
    One-Electron Energy =               -2138.2642544237578477
    Two-Electron Energy =                 891.9498763225220728
    Total Energy =                       -531.4524797764014465
  Basis Set: (AUG-CC-PVTZ AUX)
    Blend: AUG-CC-PVTZ-RI
    Molecular point group: c1

    Geometry (in Angstrom), charge = 0, multiplicity = 1:

       Center              X                  Y                   Z               Mass
    ------------   -----------------  -----------------  -----------------  -----------------
         N            1.438659862311     0.924804215185    -0.557230065907    14.003074004430
         N           -0.848636937689     2.160230615185     0.504914634093    14.003074004430
         C           -0.649411137689    -0.206460784815    -0.052468065907    12.000000000000
         C            0.828256862311    -0.158386784815    -0.020101065907    12.000000000000
         C           -1.447510137689     0.941152215185     0.179051934093    12.000000000000
         C           -1.278992137689    -1.431733784815    -0.324491065907    12.000000000000
         C           -2.844183137689     0.793039215185     0.194686934093    12.000000000000
         C            1.564218862311    -1.213743784815     0.543866934093    12.000000000000
         C           -2.665412137689    -1.559332784815    -0.324206065907    12.000000000000
         C           -3.449078137689    -0.433856784815    -0.061813065907    12.000000000000
         C            2.955307862311    -1.172914784815     0.512947934093    12.000000000000
         C            3.582471862311    -0.067366784815    -0.060826065907    12.000000000000
         C            2.782193862311     0.956044215185    -0.566495065907    12.000000000000
         H           -0.660069137689    -2.296308784815    -0.557104065907     1.007825032230
         H           -3.459921137689     1.669848215185     0.391533934093     1.007825032230
         H            1.043701862311    -2.043059784815     1.013867934093     1.007825032230
         H           -3.127975137689    -2.517221784815    -0.546786065907     1.007825032230
         H           -4.534218137689    -0.508661784815    -0.053882065907     1.007825032230
         H            3.539795862311    -1.982174784815     0.944248934093     1.007825032230
         H            0.017489862311     2.316016215185     0.032638934093     1.007825032230
         H           -1.504086137689     2.952027215185     0.371848934093     1.007825032230
         H            4.665109862311     0.010657215185    -0.103266065907     1.007825032230
         H            3.229871862311     1.845961215185    -1.006173065907     1.007825032230

  Basis Set: AUG-CC-PVTZ
    Blend: AUG-CC-PVTZ
  Basis Set: (AUG-CC-PVTZ AUX)
    Blend: AUG-CC-PVTZ-JKFIT
	 Reference Energy          =    -531.4524797764014465 [Eh]
	 Singles Energy            =      -0.0000000000000000 [Eh]
	 Same-Spin Energy          =      -0.5965527338563525 [Eh]
	 Opposite-Spin Energy      =      -1.8209198223194869 [Eh]
	 Correlation Energy        =      -2.4174725561758397 [Eh]
	 Total Energy              =    -533.8699523325773271 [Eh]

	 ================> DF-SCS-MP2 Energies <==================
	-----------------------------------------------------------
	 SCS Same-Spin Scale       =       0.3333333333333333 [-]
	 SCS Opposite-Spin Scale   =       1.2000000000000000 [-]
	 SCS Same-Spin Energy      =      -0.1988509112854508 [Eh]
	 SCS Opposite-Spin Energy  =      -2.1851037867833840 [Eh]
	 SCS Correlation Energy    =      -2.3839546980688349 [Eh]
	 SCS Total Energy          =    -533.8364344744702521 [Eh]
	-----------------------------------------------------------

  Dipole Moment: [D]
     X:     1.4938      Y:    -0.4160      Z:     0.0132     Total:     1.5507

*** Psi4 exiting successfully. Buy a developer a beer!
