                               Psi4 1.4a3.dev225

  ==> Input File <==

--------------------------------------------------------------------------
#psi4
#
memory 32 gb

molecule  {
0 1
  N        1.4447430     0.9271060    -0.5600120
  N       -0.8646290     2.1728000     0.5033790
  C       -0.6433280    -0.2041590    -0.0552500
  C        0.8343400    -0.1560850    -0.0228830
  C       -1.4496860     0.9258514     0.1715862
  C       -1.2729090    -1.4294320    -0.3272730
  C       -2.8381000     0.7953410     0.1919050
  C        1.5703020    -1.2114420     0.5410850
  C       -2.6593290    -1.5570310    -0.3269880
  C       -3.4429950    -0.4315550    -0.0645950
  C        2.9613910    -1.1706130     0.5101660
  C        3.5885550    -0.0650650    -0.0636080
  C        2.7882770     0.9583460    -0.5692770
  H       -0.6539860    -2.2940070    -0.5598860
  H       -3.4538380     1.6721500     0.3887520
  H        1.0497850    -2.0407580     1.0110860
  H       -3.1218920    -2.5149200    -0.5495680
  H       -4.5281350    -0.5063600    -0.0566640
  H        3.5458790    -1.9798730     0.9414670
  H        0.0235730     2.3183180     0.0298570
  H       -1.4980030     2.9543290     0.3690670
  H        4.6711930     0.0129590    -0.1060480
  H        3.2359550     1.8482630    -1.0089550
units angstrom
no_reorient  #important for SAPT in psi4, default
symmetry c1  #important for SAPT in psi4, default
}

set PROPERTIES_ORIGIN ["COM"]
properties('MP2/aug-cc-pvtz', properties = ['dipole'])
--------------------------------------------------------------------------

    Molecular point group: c1
  Charge       = 0
  Multiplicity = 1
  Basis Set: AUG-CC-PVTZ
    Blend: AUG-CC-PVTZ
  Basis Set: (AUG-CC-PVTZ AUX)
    Blend: AUG-CC-PVTZ-JKFIT

    Orbital Energies [Eh]
    ---------------------

    Doubly Occupied:

       1A    -15.569055     2A    -15.548570     3A    -11.290654
       4A    -11.281500     5A    -11.278995     6A    -11.263723
       7A    -11.243047     8A    -11.242506     9A    -11.239550
      10A    -11.238552    11A    -11.234641    12A    -11.223930
      13A    -11.222334    14A     -1.262466    15A     -1.208168
      16A     -1.127847    17A     -1.089233    18A     -1.062210
      19A     -0.998996    20A     -0.982307    21A     -0.872197
      22A     -0.864901    23A     -0.817908    24A     -0.800691
      25A     -0.719478    26A     -0.689179    27A     -0.682943
      28A     -0.663058    29A     -0.652365    30A     -0.625644
      31A     -0.595647    32A     -0.594345    33A     -0.585953
      34A     -0.574293    35A     -0.550824    36A     -0.536530
      37A     -0.519625    38A     -0.500364    39A     -0.496396
      40A     -0.442725    41A     -0.421048    42A     -0.389144
      43A     -0.369049    44A     -0.319783    45A     -0.289223

  @DF-RHF Final Energy:  -531.45326103965135

   => Energetics <=

    Nuclear Repulsion Energy =            714.7315983439136744
    One-Electron Energy =               -2138.0065234943481300
    Two-Electron Energy =                 891.8216641107831038
    Total Energy =                       -531.4532610396513519
  Basis Set: (AUG-CC-PVTZ AUX)
    Blend: AUG-CC-PVTZ-RI
    Molecular point group: c1

    Geometry (in Angstrom), charge = 0, multiplicity = 1:

       Center              X                  Y                   Z               Mass
    ------------   -----------------  -----------------  -----------------  -----------------
         N            1.441060015783     0.925200802044    -0.557002216856    14.003074004430
         N           -0.868311984217     2.170894802044     0.506388783144    14.003074004430
         C           -0.647010984217    -0.206064197956    -0.052240216856    12.000000000000
         C            0.830657015783    -0.157990197956    -0.019873216856    12.000000000000
         C           -1.453368984217     0.923946202044     0.174595983144    12.000000000000
         C           -1.276591984217    -1.431337197956    -0.324263216856    12.000000000000
         C           -2.841782984217     0.793435802044     0.194914783144    12.000000000000
         C            1.566619015783    -1.213347197956     0.544094783144    12.000000000000
         C           -2.663011984217    -1.558936197956    -0.323978216856    12.000000000000
         C           -3.446677984217    -0.433460197956    -0.061585216856    12.000000000000
         C            2.957708015783    -1.172518197956     0.513175783144    12.000000000000
         C            3.584872015783    -0.066970197956    -0.060598216856    12.000000000000
         C            2.784594015783     0.956440802044    -0.566267216856    12.000000000000
         H           -0.657668984217    -2.295912197956    -0.556876216856     1.007825032230
         H           -3.457520984217     1.670244802044     0.391761783144     1.007825032230
         H            1.046102015783    -2.042663197956     1.014095783144     1.007825032230
         H           -3.125574984217    -2.516825197956    -0.546558216856     1.007825032230
         H           -4.531817984217    -0.508265197956    -0.053654216856     1.007825032230
         H            3.542196015783    -1.981778197956     0.944476783144     1.007825032230
         H            0.019890015783     2.316412802044     0.032866783144     1.007825032230
         H           -1.501685984217     2.952423802044     0.372076783144     1.007825032230
         H            4.667510015783     0.011053802044    -0.103038216856     1.007825032230
         H            3.232272015783     1.846357802044    -1.005945216856     1.007825032230

  Basis Set: AUG-CC-PVTZ
    Blend: AUG-CC-PVTZ
  Basis Set: (AUG-CC-PVTZ AUX)
    Blend: AUG-CC-PVTZ-JKFIT
	 Reference Energy          =    -531.4532610396513519 [Eh]
	 Singles Energy            =      -0.0000000000000000 [Eh]
	 Same-Spin Energy          =      -0.5963833163579404 [Eh]
	 Opposite-Spin Energy      =      -1.8207181823788805 [Eh]
	 Correlation Energy        =      -2.4171014987368209 [Eh]
	 Total Energy              =    -533.8703625383881217 [Eh]

	 ================> DF-SCS-MP2 Energies <==================
	-----------------------------------------------------------
	 SCS Same-Spin Scale       =       0.3333333333333333 [-]
	 SCS Opposite-Spin Scale   =       1.2000000000000000 [-]
	 SCS Same-Spin Energy      =      -0.1987944387859801 [Eh]
	 SCS Opposite-Spin Energy  =      -2.1848618188546567 [Eh]
	 SCS Correlation Energy    =      -2.3836562576406366 [Eh]
	 SCS Total Energy          =    -533.8369172972919614 [Eh]
	-----------------------------------------------------------

  Dipole Moment: [D]
     X:     1.4944      Y:    -0.5336      Z:    -0.0159     Total:     1.5868

*** Psi4 exiting successfully. Buy a developer a beer!
