                               Psi4 1.3.2 release

  ==> Input File <==

--------------------------------------------------------------------------
#psi4
#
memory 32 gb

molecule  {
0 1
  N        1.4447430     0.9271060    -0.5600120
  N       -0.8646290     2.1728000     0.5033790
  C       -0.6433280    -0.2041590    -0.0552500
  C        0.7925170    -0.1364391    -0.0328733
  C       -1.4414270     0.9434540     0.1762700
  C       -1.2729090    -1.4294320    -0.3272730
  C       -2.8381000     0.7953410     0.1919050
  C        1.5703020    -1.2114420     0.5410850
  C       -2.6593290    -1.5570310    -0.3269880
  C       -3.4429950    -0.4315550    -0.0645950
  C        2.9613910    -1.1706130     0.5101660
  C        3.5885550    -0.0650650    -0.0636080
  C        2.7882770     0.9583460    -0.5692770
  H       -0.6539860    -2.2940070    -0.5598860
  H       -3.4538380     1.6721500     0.3887520
  H        1.0497850    -2.0407580     1.0110860
  H       -3.1218920    -2.5149200    -0.5495680
  H       -4.5281350    -0.5063600    -0.0566640
  H        3.5458790    -1.9798730     0.9414670
  H        0.0235730     2.3183180     0.0298570
  H       -1.4980030     2.9543290     0.3690670
  H        4.6711930     0.0129590    -0.1060480
  H        3.2359550     1.8482630    -1.0089550
units angstrom
no_reorient  #important for SAPT in psi4, default
symmetry c1  #important for SAPT in psi4, default
}

set PROPERTIES_ORIGIN ["COM"]
properties('MP2/aug-cc-pvtz', properties = ['dipole'])
--------------------------------------------------------------------------

    Molecular point group: c1
  Charge       = 0
  Multiplicity = 1
  Basis Set: AUG-CC-PVTZ
    Blend: AUG-CC-PVTZ
  Basis Set: (AUG-CC-PVTZ AUX)
    Blend: AUG-CC-PVTZ-JKFIT

    Orbital Energies [Eh]
    ---------------------

    Doubly Occupied:

       1A    -15.567029     2A    -15.552766     3A    -11.292526
       4A    -11.283097     5A    -11.279638     6A    -11.261074
       7A    -11.244667     8A    -11.241849     9A    -11.241283
      10A    -11.240597    11A    -11.233518    12A    -11.225485
      13A    -11.222995    14A     -1.259873    15A     -1.215428
      16A     -1.130683    17A     -1.085888    18A     -1.063151
      19A     -0.997649    20A     -0.981938    21A     -0.875846
      22A     -0.860285    23A     -0.818506    24A     -0.800454
      25A     -0.719513    26A     -0.692768    27A     -0.686402
      28A     -0.664531    29A     -0.651997    30A     -0.626169
      31A     -0.596652    32A     -0.592569    33A     -0.587670
      34A     -0.574644    35A     -0.549002    36A     -0.537410
      37A     -0.520975    38A     -0.504537    39A     -0.496799
      40A     -0.447016    41A     -0.414679    42A     -0.389572
      43A     -0.367179    44A     -0.317869    45A     -0.286396

  @DF-RHF Final Energy:  -531.44945696947366

   => Energetics <=

    Nuclear Repulsion Energy =            714.7493512918512124
    One-Electron Energy =               -2137.9964622017869260
    Two-Electron Energy =                 891.7976539404619416
    Total Energy =                       -531.4494569694736583
  Basis Set: (AUG-CC-PVTZ AUX)
    Blend: AUG-CC-PVTZ-RI
    Molecular point group: c1

    Geometry (in Angstrom), charge = 0, multiplicity = 1:

       Center              X                  Y                   Z               Mass
    ------------   -----------------  -----------------  -----------------  -----------------
         N            1.443428063670     0.922572800861    -0.556627826255    14.003074004430
         N           -0.865943936330     2.168266800861     0.506763173745    14.003074004430
         C           -0.644642936330    -0.208692199139    -0.051865826255    12.000000000000
         C            0.791202063670    -0.140972299139    -0.029489126255    12.000000000000
         C           -1.442741936330     0.938920800861     0.179654173745    12.000000000000
         C           -1.274223936330    -1.433965199139    -0.323888826255    12.000000000000
         C           -2.839414936330     0.790807800861     0.195289173745    12.000000000000
         C            1.568987063670    -1.215975199139     0.544469173745    12.000000000000
         C           -2.660643936330    -1.561564199139    -0.323603826255    12.000000000000
         C           -3.444309936330    -0.436088199139    -0.061210826255    12.000000000000
         C            2.960076063670    -1.175146199139     0.513550173745    12.000000000000
         C            3.587240063670    -0.069598199139    -0.060223826255    12.000000000000
         C            2.786962063670     0.953812800861    -0.565892826255    12.000000000000
         H           -0.655300936330    -2.298540199139    -0.556501826255     1.007825032230
         H           -3.455152936330     1.667616800861     0.392136173745     1.007825032230
         H            1.048470063670    -2.045291199139     1.014470173745     1.007825032230
         H           -3.123206936330    -2.519453199139    -0.546183826255     1.007825032230
         H           -4.529449936330    -0.510893199139    -0.053279826255     1.007825032230
         H            3.544564063670    -1.984406199139     0.944851173745     1.007825032230
         H            0.022258063670     2.313784800861     0.033241173745     1.007825032230
         H           -1.499317936330     2.949795800861     0.372451173745     1.007825032230
         H            4.669878063670     0.008425800861    -0.102663826255     1.007825032230
         H            3.234640063670     1.843729800861    -1.005570826255     1.007825032230

  Basis Set: AUG-CC-PVTZ
    Blend: AUG-CC-PVTZ
  Basis Set: (AUG-CC-PVTZ AUX)
    Blend: AUG-CC-PVTZ-JKFIT
	 Reference Energy          =    -531.4494569694736583 [Eh]
	 Singles Energy            =      -0.0000000000000000 [Eh]
	 Same-Spin Energy          =      -0.5971309826993569 [Eh]
	 Opposite-Spin Energy      =      -1.8216865734782501 [Eh]
	 Correlation Energy        =      -2.4188175561776069 [Eh]
	 Total Energy              =    -533.8682745256512590 [Eh]

	 ================> DF-SCS-MP2 Energies <==================
	-----------------------------------------------------------
	 SCS Same-Spin Scale       =       0.3333333333333333 [-]
	 SCS Opposite-Spin Scale   =       1.2000000000000000 [-]
	 SCS Same-Spin Energy      =      -0.1990436608997856 [Eh]
	 SCS Opposite-Spin Energy  =      -2.1860238881739003 [Eh]
	 SCS Correlation Energy    =      -2.3850675490736859 [Eh]
	 SCS Total Energy          =    -533.8345245185473686 [Eh]
	-----------------------------------------------------------

  Dipole Moment: [D]
     X:     1.3034      Y:    -0.4054      Z:     0.0081     Total:     1.3650

*** Psi4 exiting successfully. Buy a developer a beer!
