                               Psi4 1.3.2 release

  ==> Input File <==

--------------------------------------------------------------------------
#psi4
#
memory 32 gb

molecule  {
0 1
  N        1.4447430     0.9271060    -0.5600120
  N       -0.8646290     2.1728000     0.5033790
  C       -0.6433280    -0.2041590    -0.0552500
  C        0.8343400    -0.1560850    -0.0228830
  C       -1.4000908     0.9698587     0.1825976
  C       -1.2729090    -1.4294320    -0.3272730
  C       -2.8381000     0.7953410     0.1919050
  C        1.5703020    -1.2114420     0.5410850
  C       -2.6593290    -1.5570310    -0.3269880
  C       -3.4429950    -0.4315550    -0.0645950
  C        2.9613910    -1.1706130     0.5101660
  C        3.5885550    -0.0650650    -0.0636080
  C        2.7882770     0.9583460    -0.5692770
  H       -0.6539860    -2.2940070    -0.5598860
  H       -3.4538380     1.6721500     0.3887520
  H        1.0497850    -2.0407580     1.0110860
  H       -3.1218920    -2.5149200    -0.5495680
  H       -4.5281350    -0.5063600    -0.0566640
  H        3.5458790    -1.9798730     0.9414670
  H        0.0235730     2.3183180     0.0298570
  H       -1.4980030     2.9543290     0.3690670
  H        4.6711930     0.0129590    -0.1060480
  H        3.2359550     1.8482630    -1.0089550
units angstrom
no_reorient  #important for SAPT in psi4, default
symmetry c1  #important for SAPT in psi4, default
}

set PROPERTIES_ORIGIN ["COM"]
properties('MP2/aug-cc-pvtz', properties = ['dipole'])
--------------------------------------------------------------------------

    Molecular point group: c1
  Charge       = 0
  Multiplicity = 1
  Basis Set: AUG-CC-PVTZ
    Blend: AUG-CC-PVTZ
  Basis Set: (AUG-CC-PVTZ AUX)
    Blend: AUG-CC-PVTZ-JKFIT

    Orbital Energies [Eh]
    ---------------------

    Doubly Occupied:

       1A    -15.568298     2A    -15.556698     3A    -11.288495
       4A    -11.285256     5A    -11.281168     6A    -11.262926
       7A    -11.241842     8A    -11.240709     9A    -11.238537
      10A    -11.237001    11A    -11.232107    12A    -11.226482
      13A    -11.218805    14A     -1.263378    15A     -1.228169
      16A     -1.127302    17A     -1.088417    18A     -1.059745
      19A     -0.994337    20A     -0.977488    21A     -0.869373
      22A     -0.864023    23A     -0.817933    24A     -0.799170
      25A     -0.717670    26A     -0.693907    27A     -0.691228
      28A     -0.663943    29A     -0.654953    30A     -0.631246
      31A     -0.595900    32A     -0.588865    33A     -0.584550
      34A     -0.574049    35A     -0.550314    36A     -0.537018
      37A     -0.521617    38A     -0.503599    39A     -0.487829
      40A     -0.449591    41A     -0.420145    42A     -0.388642
      43A     -0.367987    44A     -0.317298    45A     -0.281560

  @DF-RHF Final Energy:  -531.44985988169628

   => Energetics <=

    Nuclear Repulsion Energy =            714.6888442069118810
    One-Electron Energy =               -2137.8982758769861903
    Two-Electron Energy =                 891.7595717883780253
    Total Energy =                       -531.4498598816962840
  Basis Set: (AUG-CC-PVTZ AUX)
    Blend: AUG-CC-PVTZ-RI
    Molecular point group: c1

    Geometry (in Angstrom), charge = 0, multiplicity = 1:

       Center              X                  Y                   Z               Mass
    ------------   -----------------  -----------------  -----------------  -----------------
         N            1.437560915302     0.922095945836    -0.557779106455    14.003074004430
         N           -0.871811084698     2.167789945836     0.505611893545    14.003074004430
         C           -0.650510084698    -0.209169054164    -0.053017106455    12.000000000000
         C            0.827157915302    -0.161095054164    -0.020650106455    12.000000000000
         C           -1.407272884698     0.964848645836     0.184830493545    12.000000000000
         C           -1.280091084698    -1.434442054164    -0.325040106455    12.000000000000
         C           -2.845282084698     0.790330945836     0.194137893545    12.000000000000
         C            1.563119915302    -1.216452054164     0.543317893545    12.000000000000
         C           -2.666511084698    -1.562041054164    -0.324755106455    12.000000000000
         C           -3.450177084698    -0.436565054164    -0.062362106455    12.000000000000
         C            2.954208915302    -1.175623054164     0.512398893545    12.000000000000
         C            3.581372915302    -0.070075054164    -0.061375106455    12.000000000000
         C            2.781094915302     0.953335945836    -0.567044106455    12.000000000000
         H           -0.661168084698    -2.299017054164    -0.557653106455     1.007825032230
         H           -3.461020084698     1.667139945836     0.390984893545     1.007825032230
         H            1.042602915302    -2.045768054164     1.013318893545     1.007825032230
         H           -3.129074084698    -2.519930054164    -0.547335106455     1.007825032230
         H           -4.535317084698    -0.511370054164    -0.054431106455     1.007825032230
         H            3.538696915302    -1.984883054164     0.943699893545     1.007825032230
         H            0.016390915302     2.313307945836     0.032089893545     1.007825032230
         H           -1.505185084698     2.949318945836     0.371299893545     1.007825032230
         H            4.664010915302     0.007948945836    -0.103815106455     1.007825032230
         H            3.228772915302     1.843252945836    -1.006722106455     1.007825032230

  Basis Set: AUG-CC-PVTZ
    Blend: AUG-CC-PVTZ
  Basis Set: (AUG-CC-PVTZ AUX)
    Blend: AUG-CC-PVTZ-JKFIT
	 Reference Energy          =    -531.4498598816962840 [Eh]
	 Singles Energy            =      -0.0000000000000000 [Eh]
	 Same-Spin Energy          =      -0.5967908202551431 [Eh]
	 Opposite-Spin Energy      =      -1.8210772838546765 [Eh]
	 Correlation Energy        =      -2.4178681041098198 [Eh]
	 Total Energy              =    -533.8677279858061411 [Eh]

	 ================> DF-SCS-MP2 Energies <==================
	-----------------------------------------------------------
	 SCS Same-Spin Scale       =       0.3333333333333333 [-]
	 SCS Opposite-Spin Scale   =       1.2000000000000000 [-]
	 SCS Same-Spin Energy      =      -0.1989302734183810 [Eh]
	 SCS Opposite-Spin Energy  =      -2.1852927406256115 [Eh]
	 SCS Correlation Energy    =      -2.3842230140439926 [Eh]
	 SCS Total Energy          =    -533.8340828957402664 [Eh]
	-----------------------------------------------------------

  Dipole Moment: [D]
     X:     1.5818      Y:    -0.1656      Z:     0.0807     Total:     1.5925

*** Psi4 exiting successfully. Buy a developer a beer!
