                               Psi4 1.3.2 release

  ==> Input File <==

--------------------------------------------------------------------------
#psi4
#
memory 32 gb

molecule  {
0 1
  N        1.4447430     0.9271060    -0.5600120
  N       -0.8646290     2.1728000     0.5033790
  C       -0.6433280    -0.2041590    -0.0552500
  C        0.9195767    -0.1145504    -0.0478665
  C       -1.4414270     0.9434540     0.1762700
  C       -1.2729090    -1.4294320    -0.3272730
  C       -2.8381000     0.7953410     0.1919050
  C        1.5703020    -1.2114420     0.5410850
  C       -2.6593290    -1.5570310    -0.3269880
  C       -3.4429950    -0.4315550    -0.0645950
  C        2.9613910    -1.1706130     0.5101660
  C        3.5885550    -0.0650650    -0.0636080
  C        2.7882770     0.9583460    -0.5692770
  H       -0.6539860    -2.2940070    -0.5598860
  H       -3.4538380     1.6721500     0.3887520
  H        1.0497850    -2.0407580     1.0110860
  H       -3.1218920    -2.5149200    -0.5495680
  H       -4.5281350    -0.5063600    -0.0566640
  H        3.5458790    -1.9798730     0.9414670
  H        0.0235730     2.3183180     0.0298570
  H       -1.4980030     2.9543290     0.3690670
  H        4.6711930     0.0129590    -0.1060480
  H        3.2359550     1.8482630    -1.0089550
units angstrom
no_reorient  #important for SAPT in psi4, default
symmetry c1  #important for SAPT in psi4, default
}

set PROPERTIES_ORIGIN ["COM"]
properties('MP2/aug-cc-pvtz', properties = ['dipole'])
--------------------------------------------------------------------------

    Molecular point group: c1
  Charge       = 0
  Multiplicity = 1
  Basis Set: AUG-CC-PVTZ
    Blend: AUG-CC-PVTZ
  Basis Set: (AUG-CC-PVTZ AUX)
    Blend: AUG-CC-PVTZ-JKFIT

    Orbital Energies [Eh]
    ---------------------

    Doubly Occupied:

       1A    -15.567129     2A    -15.549285     3A    -11.288673
       4A    -11.283758     5A    -11.276356     6A    -11.264567
       7A    -11.244787     8A    -11.243632     9A    -11.236141
      10A    -11.234795    11A    -11.234435    12A    -11.221307
      13A    -11.218977    14A     -1.289354    15A     -1.212517
      16A     -1.123264    17A     -1.097838    18A     -1.053863
      19A     -0.996781    20A     -0.977328    21A     -0.875567
      22A     -0.861886    23A     -0.816559    24A     -0.799068
      25A     -0.719687    26A     -0.690719    27A     -0.682166
      28A     -0.663340    29A     -0.657297    30A     -0.626814
      31A     -0.591804    32A     -0.589219    33A     -0.584343
      34A     -0.574927    35A     -0.561863    36A     -0.534632
      37A     -0.521330    38A     -0.499510    39A     -0.490491
      40A     -0.442616    41A     -0.420051    42A     -0.397927
      43A     -0.363187    44A     -0.320579    45A     -0.286294

  @DF-RHF Final Energy:  -531.44621890450446

   => Energetics <=

    Nuclear Repulsion Energy =            714.8692618621140582
    One-Electron Energy =               -2138.2576314221237226
    Two-Electron Energy =                 891.9421506555053156
    Total Energy =                       -531.4462189045044624
  Basis Set: (AUG-CC-PVTZ AUX)
    Blend: AUG-CC-PVTZ-RI
    Molecular point group: c1

    Geometry (in Angstrom), charge = 0, multiplicity = 1:

       Center              X                  Y                   Z               Mass
    ------------   -----------------  -----------------  -----------------  -----------------
         N            1.434463594177     0.921028482849    -0.555570007891    14.003074004430
         N           -0.874908405823     2.166722482849     0.507820992109    14.003074004430
         C           -0.653607405823    -0.210236517151    -0.050808007891    12.000000000000
         C            0.909297294177    -0.120627917151    -0.043424507891    12.000000000000
         C           -1.451706405823     0.937376482849     0.180711992109    12.000000000000
         C           -1.283188405823    -1.435509517151    -0.322831007891    12.000000000000
         C           -2.848379405823     0.789263482849     0.196346992109    12.000000000000
         C            1.560022594177    -1.217519517151     0.545526992109    12.000000000000
         C           -2.669608405823    -1.563108517151    -0.322546007891    12.000000000000
         C           -3.453274405823    -0.437632517151    -0.060153007891    12.000000000000
         C            2.951111594177    -1.176690517151     0.514607992109    12.000000000000
         C            3.578275594177    -0.071142517151    -0.059166007891    12.000000000000
         C            2.777997594177     0.952268482849    -0.564835007891    12.000000000000
         H           -0.664265405823    -2.300084517151    -0.555444007891     1.007825032230
         H           -3.464117405823     1.666072482849     0.393193992109     1.007825032230
         H            1.039505594177    -2.046835517151     1.015527992109     1.007825032230
         H           -3.132171405823    -2.520997517151    -0.545126007891     1.007825032230
         H           -4.538414405823    -0.512437517151    -0.052222007891     1.007825032230
         H            3.535599594177    -1.985950517151     0.945908992109     1.007825032230
         H            0.013293594177     2.312240482849     0.034298992109     1.007825032230
         H           -1.508282405823     2.948251482849     0.373508992109     1.007825032230
         H            4.660913594177     0.006881482849    -0.101606007891     1.007825032230
         H            3.225675594177     1.842185482849    -1.004513007891     1.007825032230

  Basis Set: AUG-CC-PVTZ
    Blend: AUG-CC-PVTZ
  Basis Set: (AUG-CC-PVTZ AUX)
    Blend: AUG-CC-PVTZ-JKFIT
	 Reference Energy          =    -531.4462189045044624 [Eh]
	 Singles Energy            =      -0.0000000000000000 [Eh]
	 Same-Spin Energy          =      -0.5950911321470025 [Eh]
	 Opposite-Spin Energy      =      -1.8185699734555265 [Eh]
	 Correlation Energy        =      -2.4136611056025288 [Eh]
	 Total Energy              =    -533.8598800101069628 [Eh]

	 ================> DF-SCS-MP2 Energies <==================
	-----------------------------------------------------------
	 SCS Same-Spin Scale       =       0.3333333333333333 [-]
	 SCS Opposite-Spin Scale   =       1.2000000000000000 [-]
	 SCS Same-Spin Energy      =      -0.1983637107156675 [Eh]
	 SCS Opposite-Spin Energy  =      -2.1822839681466317 [Eh]
	 SCS Correlation Energy    =      -2.3806476788622994 [Eh]
	 SCS Total Energy          =    -533.8268665833667228 [Eh]
	-----------------------------------------------------------

  Dipole Moment: [D]
     X:     1.8752      Y:    -0.4108      Z:    -0.0035     Total:     1.9197

*** Psi4 exiting successfully. Buy a developer a beer!
