                               Psi4 1.3.2 release

  ==> Input File <==

--------------------------------------------------------------------------
#psi4
#
memory 32 gb

molecule  {
0 1
  N        1.4447430     0.9271060    -0.5600120
  N       -0.8646290     2.1728000     0.5033790
  C       -0.6433280    -0.2041590    -0.0552500
  C        0.8553290    -0.1452110    -0.0293914
  C       -1.4414270     0.9434540     0.1762700
  C       -1.2729090    -1.4294320    -0.3272730
  C       -2.8381000     0.7953410     0.1919050
  C        1.5703020    -1.2114420     0.5410850
  C       -2.6593290    -1.5570310    -0.3269880
  C       -3.4429950    -0.4315550    -0.0645950
  C        2.9613910    -1.1706130     0.5101660
  C        3.5885550    -0.0650650    -0.0636080
  C        2.7882770     0.9583460    -0.5692770
  H       -0.6539860    -2.2940070    -0.5598860
  H       -3.4538380     1.6721500     0.3887520
  H        1.0497850    -2.0407580     1.0110860
  H       -3.1218920    -2.5149200    -0.5495680
  H       -4.5281350    -0.5063600    -0.0566640
  H        3.5458790    -1.9798730     0.9414670
  H        0.0235730     2.3183180     0.0298570
  H       -1.4980030     2.9543290     0.3690670
  H        4.6711930     0.0129590    -0.1060480
  H        3.2359550     1.8482630    -1.0089550
units angstrom
no_reorient  #important for SAPT in psi4, default
symmetry c1  #important for SAPT in psi4, default
}

set PROPERTIES_ORIGIN ["COM"]
properties('MP2/aug-cc-pvtz', properties = ['dipole'])
--------------------------------------------------------------------------

    Molecular point group: c1
  Charge       = 0
  Multiplicity = 1
  Basis Set: AUG-CC-PVTZ
    Blend: AUG-CC-PVTZ
  Basis Set: (AUG-CC-PVTZ AUX)
    Blend: AUG-CC-PVTZ-JKFIT

    Orbital Energies [Eh]
    ---------------------

    Doubly Occupied:

       1A    -15.568487     2A    -15.550598     3A    -11.289694
       4A    -11.281961     5A    -11.279749     6A    -11.263743
       7A    -11.243216     8A    -11.242316     9A    -11.238408
      10A    -11.237254    11A    -11.234920    12A    -11.223311
      13A    -11.220692    14A     -1.268561    15A     -1.213759
      16A     -1.126701    17A     -1.091127    18A     -1.059335
      19A     -0.997630    20A     -0.979885    21A     -0.870982
      22A     -0.865211    23A     -0.817024    24A     -0.800390
      25A     -0.718666    26A     -0.690693    27A     -0.684279
      28A     -0.662589    29A     -0.655174    30A     -0.627211
      31A     -0.594544    32A     -0.591551    33A     -0.585672
      34A     -0.574436    35A     -0.553070    36A     -0.536285
      37A     -0.520640    38A     -0.500985    39A     -0.492675
      40A     -0.444611    41A     -0.421710    42A     -0.391109
      43A     -0.367193    44A     -0.319558    45A     -0.286715

  @DF-RHF Final Energy:  -531.45402683860482

   => Energetics <=

    Nuclear Repulsion Energy =            714.6826428542887015
    One-Electron Energy =               -2137.9046957855780420
    Two-Electron Energy =                 891.7680260926846358
    Total Energy =                       -531.4540268386048183
  Basis Set: (AUG-CC-PVTZ AUX)
    Blend: AUG-CC-PVTZ-RI
    Molecular point group: c1

    Geometry (in Angstrom), charge = 0, multiplicity = 1:

       Center              X                  Y                   Z               Mass
    ------------   -----------------  -----------------  -----------------  -----------------
         N            1.438996475544     0.923191686550    -0.556873485472    14.003074004430
         N           -0.870375524456     2.168885686550     0.506517514528    14.003074004430
         C           -0.649074524456    -0.208073313450    -0.052111485472    12.000000000000
         C            0.849582475544    -0.149125313450    -0.026252885472    12.000000000000
         C           -1.447173524456     0.939539686550     0.179408514528    12.000000000000
         C           -1.278655524456    -1.433346313450    -0.324134485472    12.000000000000
         C           -2.843846524456     0.791426686550     0.195043514528    12.000000000000
         C            1.564555475544    -1.215356313450     0.544223514528    12.000000000000
         C           -2.665075524456    -1.560945313450    -0.323849485472    12.000000000000
         C           -3.448741524456    -0.435469313450    -0.061456485472    12.000000000000
         C            2.955644475544    -1.174527313450     0.513304514528    12.000000000000
         C            3.582808475544    -0.068979313450    -0.060469485472    12.000000000000
         C            2.782530475544     0.954431686550    -0.566138485472    12.000000000000
         H           -0.659732524456    -2.297921313450    -0.556747485472     1.007825032230
         H           -3.459584524456     1.668235686550     0.391890514528     1.007825032230
         H            1.044038475544    -2.044672313450     1.014224514528     1.007825032230
         H           -3.127638524456    -2.518834313450    -0.546429485472     1.007825032230
         H           -4.533881524456    -0.510274313450    -0.053525485472     1.007825032230
         H            3.540132475544    -1.983787313450     0.944605514528     1.007825032230
         H            0.017826475544     2.314403686550     0.032995514528     1.007825032230
         H           -1.503749524456     2.950414686550     0.372205514528     1.007825032230
         H            4.665446475544     0.009044686550    -0.102909485472     1.007825032230
         H            3.230208475544     1.844348686550    -1.005816485472     1.007825032230

  Basis Set: AUG-CC-PVTZ
    Blend: AUG-CC-PVTZ
  Basis Set: (AUG-CC-PVTZ AUX)
    Blend: AUG-CC-PVTZ-JKFIT
	 Reference Energy          =    -531.4540268386048183 [Eh]
	 Singles Energy            =      -0.0000000000000000 [Eh]
	 Same-Spin Energy          =      -0.5960878510054599 [Eh]
	 Opposite-Spin Energy      =      -1.8200562186703904 [Eh]
	 Correlation Energy        =      -2.4161440696758500 [Eh]
	 Total Energy              =    -533.8701709082806701 [Eh]

	 ================> DF-SCS-MP2 Energies <==================
	-----------------------------------------------------------
	 SCS Same-Spin Scale       =       0.3333333333333333 [-]
	 SCS Opposite-Spin Scale   =       1.2000000000000000 [-]
	 SCS Same-Spin Energy      =      -0.1986959503351533 [Eh]
	 SCS Opposite-Spin Energy  =      -2.1840674624044683 [Eh]
	 SCS Correlation Energy    =      -2.3827634127396218 [Eh]
	 SCS Total Energy          =    -533.8367902513444960 [Eh]
	-----------------------------------------------------------

  Dipole Moment: [D]
     X:     1.6123      Y:    -0.4199      Z:     0.0101     Total:     1.6661

*** Psi4 exiting successfully. Buy a developer a beer!
