                               Psi4 1.3.2 release

  ==> Input File <==

--------------------------------------------------------------------------
#psi4
#
memory 32 gb

molecule  {
0 1
  N        1.4447430     0.9271060    -0.5600120
  N       -0.8646290     2.1728000     0.5033790
  C       -0.6433280    -0.2041590    -0.0552500
  C        0.8133323    -0.1464255    -0.0277971
  C       -1.4414270     0.9434540     0.1762700
  C       -1.2729090    -1.4294320    -0.3272730
  C       -2.8381000     0.7953410     0.1919050
  C        1.5703020    -1.2114420     0.5410850
  C       -2.6593290    -1.5570310    -0.3269880
  C       -3.4429950    -0.4315550    -0.0645950
  C        2.9613910    -1.1706130     0.5101660
  C        3.5885550    -0.0650650    -0.0636080
  C        2.7882770     0.9583460    -0.5692770
  H       -0.6539860    -2.2940070    -0.5598860
  H       -3.4538380     1.6721500     0.3887520
  H        1.0497850    -2.0407580     1.0110860
  H       -3.1218920    -2.5149200    -0.5495680
  H       -4.5281350    -0.5063600    -0.0566640
  H        3.5458790    -1.9798730     0.9414670
  H        0.0235730     2.3183180     0.0298570
  H       -1.4980030     2.9543290     0.3690670
  H        4.6711930     0.0129590    -0.1060480
  H        3.2359550     1.8482630    -1.0089550
units angstrom
no_reorient  #important for SAPT in psi4, default
symmetry c1  #important for SAPT in psi4, default
}

set PROPERTIES_ORIGIN ["COM"]
properties('MP2/aug-cc-pvtz', properties = ['dipole'])
--------------------------------------------------------------------------

    Molecular point group: c1
  Charge       = 0
  Multiplicity = 1
  Basis Set: AUG-CC-PVTZ
    Blend: AUG-CC-PVTZ
  Basis Set: (AUG-CC-PVTZ AUX)
    Blend: AUG-CC-PVTZ-JKFIT

    Orbital Energies [Eh]
    ---------------------

    Doubly Occupied:

       1A    -15.567944     2A    -15.551896     3A    -11.291319
       4A    -11.281985     5A    -11.280523     6A    -11.262296
       7A    -11.243389     8A    -11.242015     9A    -11.240493
      10A    -11.239381    11A    -11.234086    12A    -11.224718
      13A    -11.222104    14A     -1.261150    15A     -1.214726
      16A     -1.129273    17A     -1.087339    18A     -1.062193
      19A     -0.997725    20A     -0.981366    21A     -0.873693
      22A     -0.862346    23A     -0.817746    24A     -0.800639
      25A     -0.719066    26A     -0.691707    27A     -0.685680
      28A     -0.663834    29A     -0.652735    30A     -0.626693
      31A     -0.596045    32A     -0.592653    33A     -0.586899
      34A     -0.574517    35A     -0.549791    36A     -0.537076
      37A     -0.520551    38A     -0.503018    39A     -0.495435
      40A     -0.446119    41A     -0.417869    42A     -0.389262
      43A     -0.367882    44A     -0.318498    45A     -0.286600

  @DF-RHF Final Energy:  -531.45218566203664

   => Energetics <=

    Nuclear Repulsion Energy =            714.6890701271546504
    One-Electron Energy =               -2137.8979595551013517
    Two-Electron Energy =                 891.7567037659101743
    Total Energy =                       -531.4521856620366407
  Basis Set: (AUG-CC-PVTZ AUX)
    Blend: AUG-CC-PVTZ-RI
    Molecular point group: c1

    Geometry (in Angstrom), charge = 0, multiplicity = 1:

       Center              X                  Y                   Z               Mass
    ------------   -----------------  -----------------  -----------------  -----------------
         N            1.441959477471     0.923277373422    -0.556985968452    14.003074004430
         N           -0.867412522529     2.168971373422     0.506405031548    14.003074004430
         C           -0.646111522529    -0.207987626578    -0.052223968452    12.000000000000
         C            0.810548777471    -0.150254126578    -0.024771068452    12.000000000000
         C           -1.444210522529     0.939625373422     0.179296031548    12.000000000000
         C           -1.275692522529    -1.433260626578    -0.324246968452    12.000000000000
         C           -2.840883522529     0.791512373422     0.194931031548    12.000000000000
         C            1.567518477471    -1.215270626578     0.544111031548    12.000000000000
         C           -2.662112522529    -1.560859626578    -0.323961968452    12.000000000000
         C           -3.445778522529    -0.435383626578    -0.061568968452    12.000000000000
         C            2.958607477471    -1.174441626578     0.513192031548    12.000000000000
         C            3.585771477471    -0.068893626578    -0.060581968452    12.000000000000
         C            2.785493477471     0.954517373422    -0.566250968452    12.000000000000
         H           -0.656769522529    -2.297835626578    -0.556859968452     1.007825032230
         H           -3.456621522529     1.668321373422     0.391778031548     1.007825032230
         H            1.047001477471    -2.044586626578     1.014112031548     1.007825032230
         H           -3.124675522529    -2.518748626578    -0.546541968452     1.007825032230
         H           -4.530918522529    -0.510188626578    -0.053637968452     1.007825032230
         H            3.543095477471    -1.983701626578     0.944493031548     1.007825032230
         H            0.020789477471     2.314489373422     0.032883031548     1.007825032230
         H           -1.500786522529     2.950500373422     0.372093031548     1.007825032230
         H            4.668409477471     0.009130373422    -0.103021968452     1.007825032230
         H            3.233171477471     1.844434373422    -1.005928968452     1.007825032230

  Basis Set: AUG-CC-PVTZ
    Blend: AUG-CC-PVTZ
  Basis Set: (AUG-CC-PVTZ AUX)
    Blend: AUG-CC-PVTZ-JKFIT
	 Reference Energy          =    -531.4521856620366407 [Eh]
	 Singles Energy            =      -0.0000000000000000 [Eh]
	 Same-Spin Energy          =      -0.5968021389045182 [Eh]
	 Opposite-Spin Energy      =      -1.8211840450257484 [Eh]
	 Correlation Energy        =      -2.4179861839302665 [Eh]
	 Total Energy              =    -533.8701718459668655 [Eh]

	 ================> DF-SCS-MP2 Energies <==================
	-----------------------------------------------------------
	 SCS Same-Spin Scale       =       0.3333333333333333 [-]
	 SCS Opposite-Spin Scale   =       1.2000000000000000 [-]
	 SCS Same-Spin Energy      =      -0.1989340463015060 [Eh]
	 SCS Opposite-Spin Energy  =      -2.1854208540308981 [Eh]
	 SCS Correlation Energy    =      -2.3843549003324043 [Eh]
	 SCS Total Energy          =    -533.8365405623690094 [Eh]
	-----------------------------------------------------------

  Dipole Moment: [D]
     X:     1.4157      Y:    -0.4135      Z:     0.0111     Total:     1.4749

*** Psi4 exiting successfully. Buy a developer a beer!
