                               Psi4 1.3.2 release

  ==> Input File <==

--------------------------------------------------------------------------
#psi4
#
memory 32 gb

molecule  {
0 1
  N        1.5275563     0.8876152    -0.5372205
  N       -0.8646290     2.1728000     0.5033790
  C       -0.6433280    -0.2041590    -0.0552500
  C        0.8343400    -0.1560850    -0.0228830
  C       -1.4414270     0.9434540     0.1762700
  C       -1.2729090    -1.4294320    -0.3272730
  C       -2.8381000     0.7953410     0.1919050
  C        1.5703020    -1.2114420     0.5410850
  C       -2.6593290    -1.5570310    -0.3269880
  C       -3.4429950    -0.4315550    -0.0645950
  C        2.9613910    -1.1706130     0.5101660
  C        3.5885550    -0.0650650    -0.0636080
  C        2.7882770     0.9583460    -0.5692770
  H       -0.6539860    -2.2940070    -0.5598860
  H       -3.4538380     1.6721500     0.3887520
  H        1.0497850    -2.0407580     1.0110860
  H       -3.1218920    -2.5149200    -0.5495680
  H       -4.5281350    -0.5063600    -0.0566640
  H        3.5458790    -1.9798730     0.9414670
  H        0.0235730     2.3183180     0.0298570
  H       -1.4980030     2.9543290     0.3690670
  H        4.6711930     0.0129590    -0.1060480
  H        3.2359550     1.8482630    -1.0089550
units angstrom
no_reorient  #important for SAPT in psi4, default
symmetry c1  #important for SAPT in psi4, default
}

set PROPERTIES_ORIGIN ["COM"]
properties('MP2/aug-cc-pvtz', properties = ['dipole'])
--------------------------------------------------------------------------

    Molecular point group: c1
  Charge       = 0
  Multiplicity = 1
  Basis Set: AUG-CC-PVTZ
    Blend: AUG-CC-PVTZ
  Basis Set: (AUG-CC-PVTZ AUX)
    Blend: AUG-CC-PVTZ-JKFIT

    Orbital Energies [Eh]
    ---------------------

    Doubly Occupied:

       1A    -15.556649     2A    -15.553988     3A    -11.289406
       4A    -11.282242     5A    -11.270503     6A    -11.258863
       7A    -11.240558     8A    -11.240287     9A    -11.239337
      10A    -11.238806    11A    -11.237136    12A    -11.225145
      13A    -11.222428    14A     -1.279711    15A     -1.217801
      16A     -1.130009    17A     -1.086978    18A     -1.065224
      19A     -0.999041    20A     -0.981672    21A     -0.877028
      22A     -0.858873    23A     -0.820058    24A     -0.804204
      25A     -0.721113    26A     -0.694657    27A     -0.686251
      28A     -0.663087    29A     -0.655910    30A     -0.628160
      31A     -0.598694    32A     -0.592856    33A     -0.587027
      34A     -0.574844    35A     -0.558026    36A     -0.537303
      37A     -0.525147    38A     -0.504735    39A     -0.494820
      40A     -0.446653    41A     -0.403908    42A     -0.389247
      43A     -0.372332    44A     -0.318406    45A     -0.286958

  @DF-RHF Final Energy:  -531.45002203006595

   => Energetics <=

    Nuclear Repulsion Energy =            715.6316504963619991
    One-Electron Energy =               -2139.7311808578247110
    Two-Electron Energy =                 892.6495083313967598
    Total Energy =                       -531.4500220300659521
  Basis Set: (AUG-CC-PVTZ AUX)
    Blend: AUG-CC-PVTZ-RI
    Molecular point group: c1

    Geometry (in Angstrom), charge = 0, multiplicity = 1:

       Center              X                  Y                   Z               Mass
    ------------   -----------------  -----------------  -----------------  -----------------
         N            1.516472585435     0.887719365620    -0.536417601584    14.003074004430
         N           -0.875712714565     2.172904165620     0.504181898416    14.003074004430
         C           -0.654411714565    -0.204054834380    -0.054447101584    12.000000000000
         C            0.823256285435    -0.155980834380    -0.022080101584    12.000000000000
         C           -1.452510714565     0.943558165620     0.177072898416    12.000000000000
         C           -1.283992714565    -1.429327834380    -0.326470101584    12.000000000000
         C           -2.849183714565     0.795445165620     0.192707898416    12.000000000000
         C            1.559218285435    -1.211337834380     0.541887898416    12.000000000000
         C           -2.670412714565    -1.556926834380    -0.326185101584    12.000000000000
         C           -3.454078714565    -0.431450834380    -0.063792101584    12.000000000000
         C            2.950307285435    -1.170508834380     0.510968898416    12.000000000000
         C            3.577471285435    -0.064960834380    -0.062805101584    12.000000000000
         C            2.777193285435     0.958450165620    -0.568474101584    12.000000000000
         H           -0.665069714565    -2.293902834380    -0.559083101584     1.007825032230
         H           -3.464921714565     1.672254165620     0.389554898416     1.007825032230
         H            1.038701285435    -2.040653834380     1.011888898416     1.007825032230
         H           -3.132975714565    -2.514815834380    -0.548765101584     1.007825032230
         H           -4.539218714565    -0.506255834380    -0.055861101584     1.007825032230
         H            3.534795285435    -1.979768834380     0.942269898416     1.007825032230
         H            0.012489285435     2.318422165620     0.030659898416     1.007825032230
         H           -1.509086714565     2.954433165620     0.369869898416     1.007825032230
         H            4.660109285435     0.013063165620    -0.105245101584     1.007825032230
         H            3.224871285435     1.848367165620    -1.008152101584     1.007825032230

  Basis Set: AUG-CC-PVTZ
    Blend: AUG-CC-PVTZ
  Basis Set: (AUG-CC-PVTZ AUX)
    Blend: AUG-CC-PVTZ-JKFIT
	 Reference Energy          =    -531.4500220300659521 [Eh]
	 Singles Energy            =      -0.0000000000000000 [Eh]
	 Same-Spin Energy          =      -0.5957107688191254 [Eh]
	 Opposite-Spin Energy      =      -1.8183041083670224 [Eh]
	 Correlation Energy        =      -2.4140148771861476 [Eh]
	 Total Energy              =    -533.8640369072520571 [Eh]

	 ================> DF-SCS-MP2 Energies <==================
	-----------------------------------------------------------
	 SCS Same-Spin Scale       =       0.3333333333333333 [-]
	 SCS Opposite-Spin Scale   =       1.2000000000000000 [-]
	 SCS Same-Spin Energy      =      -0.1985702562730418 [Eh]
	 SCS Opposite-Spin Energy  =      -2.1819649300404267 [Eh]
	 SCS Correlation Energy    =      -2.3805351863134687 [Eh]
	 SCS Total Energy          =    -533.8305572163794750 [Eh]
	-----------------------------------------------------------

  Dipole Moment: [D]
     X:     1.2627      Y:    -0.3197      Z:    -0.0339     Total:     1.3030

*** Psi4 exiting successfully. Buy a developer a beer!
