                               Psi4 1.3.2 release

  ==> Input File <==

--------------------------------------------------------------------------
#psi4
#
memory 32 gb

molecule  {
0 1
  N        1.4657353     0.9178086    -0.5543852
  N       -0.8646290     2.1728000     0.5033790
  C       -0.6433280    -0.2041590    -0.0552500
  C        0.8343400    -0.1560850    -0.0228830
  C       -1.4414270     0.9434540     0.1762700
  C       -1.2729090    -1.4294320    -0.3272730
  C       -2.8381000     0.7953410     0.1919050
  C        1.5703020    -1.2114420     0.5410850
  C       -2.6593290    -1.5570310    -0.3269880
  C       -3.4429950    -0.4315550    -0.0645950
  C        2.9613910    -1.1706130     0.5101660
  C        3.5885550    -0.0650650    -0.0636080
  C        2.7882770     0.9583460    -0.5692770
  H       -0.6539860    -2.2940070    -0.5598860
  H       -3.4538380     1.6721500     0.3887520
  H        1.0497850    -2.0407580     1.0110860
  H       -3.1218920    -2.5149200    -0.5495680
  H       -4.5281350    -0.5063600    -0.0566640
  H        3.5458790    -1.9798730     0.9414670
  H        0.0235730     2.3183180     0.0298570
  H       -1.4980030     2.9543290     0.3690670
  H        4.6711930     0.0129590    -0.1060480
  H        3.2359550     1.8482630    -1.0089550
units angstrom
no_reorient  #important for SAPT in psi4, default
symmetry c1  #important for SAPT in psi4, default
}

set PROPERTIES_ORIGIN ["COM"]
properties('MP2/aug-cc-pvtz', properties = ['dipole'])
--------------------------------------------------------------------------

    Molecular point group: c1
  Charge       = 0
  Multiplicity = 1
  Basis Set: AUG-CC-PVTZ
    Blend: AUG-CC-PVTZ
  Basis Set: (AUG-CC-PVTZ AUX)
    Blend: AUG-CC-PVTZ-JKFIT

    Orbital Energies [Eh]
    ---------------------

    Doubly Occupied:

       1A    -15.565899     2A    -15.551783     3A    -11.289846
       4A    -11.281248     5A    -11.278769     6A    -11.262357
       7A    -11.241744     8A    -11.241540     9A    -11.239537
      10A    -11.238496    11A    -11.235205    12A    -11.224260
      13A    -11.221536    14A     -1.266388    15A     -1.215034
      16A     -1.128442    17A     -1.088238    18A     -1.062615
      19A     -0.998096    20A     -0.980909    21A     -0.873011
      22A     -0.863095    23A     -0.817659    24A     -0.801688
      25A     -0.719296    26A     -0.691544    27A     -0.685267
      28A     -0.663363    29A     -0.653990    30A     -0.627446
      31A     -0.596385    32A     -0.592464    33A     -0.586412
      34A     -0.574477    35A     -0.552369    36A     -0.536884
      37A     -0.521402    38A     -0.502287    39A     -0.494039
      40A     -0.445553    41A     -0.417066    42A     -0.388746
      43A     -0.369871    44A     -0.318953    45A     -0.286751

  @DF-RHF Final Energy:  -531.45435079151719

   => Energetics <=

    Nuclear Repulsion Energy =            714.8672335227530539
    One-Electron Energy =               -2138.2592499463103195
    Two-Electron Energy =                 891.9376656320401935
    Total Energy =                       -531.4543507915171858
  Basis Set: (AUG-CC-PVTZ AUX)
    Blend: AUG-CC-PVTZ-RI
    Molecular point group: c1

    Geometry (in Angstrom), charge = 0, multiplicity = 1:

       Center              X                  Y                   Z               Mass
    ------------   -----------------  -----------------  -----------------  -----------------
         N            1.459741317630     0.915426938473    -0.552169129260    14.003074004430
         N           -0.870622982370     2.170418338473     0.505595070740    14.003074004430
         C           -0.649321982370    -0.206540661527    -0.053033929260    12.000000000000
         C            0.828346017630    -0.158466661527    -0.020666929260    12.000000000000
         C           -1.447420982370     0.941072338473     0.178486070740    12.000000000000
         C           -1.278902982370    -1.431813661527    -0.325056929260    12.000000000000
         C           -2.844093982370     0.792959338473     0.194121070740    12.000000000000
         C            1.564308017630    -1.213823661527     0.543301070740    12.000000000000
         C           -2.665322982370    -1.559412661527    -0.324771929260    12.000000000000
         C           -3.448988982370    -0.433936661527    -0.062378929260    12.000000000000
         C            2.955397017630    -1.172994661527     0.512382070740    12.000000000000
         C            3.582561017630    -0.067446661527    -0.061391929260    12.000000000000
         C            2.782283017630     0.955964338473    -0.567060929260    12.000000000000
         H           -0.659979982370    -2.296388661527    -0.557669929260     1.007825032230
         H           -3.459831982370     1.669768338473     0.390968070740     1.007825032230
         H            1.043791017630    -2.043139661527     1.013302070740     1.007825032230
         H           -3.127885982370    -2.517301661527    -0.547351929260     1.007825032230
         H           -4.534128982370    -0.508741661527    -0.054447929260     1.007825032230
         H            3.539885017630    -1.982254661527     0.943683070740     1.007825032230
         H            0.017579017630     2.315936338473     0.032073070740     1.007825032230
         H           -1.503996982370     2.951947338473     0.371283070740     1.007825032230
         H            4.665199017630     0.010577338473    -0.103831929260     1.007825032230
         H            3.229961017630     1.845881338473    -1.006738929260     1.007825032230

  Basis Set: AUG-CC-PVTZ
    Blend: AUG-CC-PVTZ
  Basis Set: (AUG-CC-PVTZ AUX)
    Blend: AUG-CC-PVTZ-JKFIT
	 Reference Energy          =    -531.4543507915171858 [Eh]
	 Singles Energy            =      -0.0000000000000000 [Eh]
	 Same-Spin Energy          =      -0.5962844096668589 [Eh]
	 Opposite-Spin Energy      =      -1.8200478269781430 [Eh]
	 Correlation Energy        =      -2.4163322366450020 [Eh]
	 Total Energy              =    -533.8706830281621478 [Eh]

	 ================> DF-SCS-MP2 Energies <==================
	-----------------------------------------------------------
	 SCS Same-Spin Scale       =       0.3333333333333333 [-]
	 SCS Opposite-Spin Scale   =       1.2000000000000000 [-]
	 SCS Same-Spin Energy      =      -0.1987614698889530 [Eh]
	 SCS Opposite-Spin Energy  =      -2.1840573923737714 [Eh]
	 SCS Correlation Energy    =      -2.3828188622627242 [Eh]
	 SCS Total Energy          =    -533.8371696537799380 [Eh]
	-----------------------------------------------------------

  Dipole Moment: [D]
     X:     1.4659      Y:    -0.3968      Z:     0.0027     Total:     1.5187

*** Psi4 exiting successfully. Buy a developer a beer!
