                               Psi4 1.3.2 release

  ==> Input File <==

--------------------------------------------------------------------------
#psi4
#
memory 32 gb

molecule  {
0 1
  N        1.4657412     0.9177210    -0.5545553
  N       -0.8646290     2.1728000     0.5033790
  C       -0.6433280    -0.2041590    -0.0552500
  C        0.8343400    -0.1560850    -0.0228830
  C       -1.4414270     0.9434540     0.1762700
  C       -1.2729090    -1.4294320    -0.3272730
  C       -2.8381000     0.7953410     0.1919050
  C        1.5703020    -1.2114420     0.5410850
  C       -2.6593290    -1.5570310    -0.3269880
  C       -3.4429950    -0.4315550    -0.0645950
  C        2.9613910    -1.1706130     0.5101660
  C        3.5885550    -0.0650650    -0.0636080
  C        2.7882770     0.9583460    -0.5692770
  H       -0.6539860    -2.2940070    -0.5598860
  H       -3.4538380     1.6721500     0.3887520
  H        1.0497850    -2.0407580     1.0110860
  H       -3.1218920    -2.5149200    -0.5495680
  H       -4.5281350    -0.5063600    -0.0566640
  H        3.5458790    -1.9798730     0.9414670
  H        0.0235730     2.3183180     0.0298570
  H       -1.4980030     2.9543290     0.3690670
  H        4.6711930     0.0129590    -0.1060480
  H        3.2359550     1.8482630    -1.0089550
units angstrom
no_reorient  #important for SAPT in psi4, default
symmetry c1  #important for SAPT in psi4, default
}

set PROPERTIES_ORIGIN ["COM"]
properties('MP2/aug-cc-pvtz', properties = ['dipole'])
--------------------------------------------------------------------------

    Molecular point group: c1
  Charge       = 0
  Multiplicity = 1
  Basis Set: AUG-CC-PVTZ
    Blend: AUG-CC-PVTZ
  Basis Set: (AUG-CC-PVTZ AUX)
    Blend: AUG-CC-PVTZ-JKFIT

    Orbital Energies [Eh]
    ---------------------

    Doubly Occupied:

       1A    -15.565898     2A    -15.551787     3A    -11.289845
       4A    -11.281249     5A    -11.278767     6A    -11.262357
       7A    -11.241744     8A    -11.241540     9A    -11.239537
      10A    -11.238496    11A    -11.235205    12A    -11.224261
      13A    -11.221536    14A     -1.266388    15A     -1.215036
      16A     -1.128442    17A     -1.088238    18A     -1.062615
      19A     -0.998096    20A     -0.980910    21A     -0.873011
      22A     -0.863094    23A     -0.817661    24A     -0.801688
      25A     -0.719297    26A     -0.691542    27A     -0.685268
      28A     -0.663362    29A     -0.653992    30A     -0.627446
      31A     -0.596385    32A     -0.592464    33A     -0.586412
      34A     -0.574478    35A     -0.552367    36A     -0.536884
      37A     -0.521402    38A     -0.502288    39A     -0.494038
      40A     -0.445555    41A     -0.417063    42A     -0.388747
      43A     -0.369868    44A     -0.318954    45A     -0.286753

  @DF-RHF Final Energy:  -531.45435102839326

   => Energetics <=

    Nuclear Repulsion Energy =            714.8668440790535215
    One-Electron Energy =               -2138.2584557825557567
    Two-Electron Energy =                 891.9372606751090871
    Total Energy =                       -531.4543510283932619
  Basis Set: (AUG-CC-PVTZ AUX)
    Blend: AUG-CC-PVTZ-RI
    Molecular point group: c1

    Geometry (in Angstrom), charge = 0, multiplicity = 1:

       Center              X                  Y                   Z               Mass
    ------------   -----------------  -----------------  -----------------  -----------------
         N            1.459746731882     0.915346550595    -0.552325224902    14.003074004430
         N           -0.870623468118     2.170425550595     0.505609075098    14.003074004430
         C           -0.649322468118    -0.206533449405    -0.053019924902    12.000000000000
         C            0.828345531882    -0.158459449405    -0.020652924902    12.000000000000
         C           -1.447421468118     0.941079550595     0.178500075098    12.000000000000
         C           -1.278903468118    -1.431806449405    -0.325042924902    12.000000000000
         C           -2.844094468118     0.792966550595     0.194135075098    12.000000000000
         C            1.564307531882    -1.213816449405     0.543315075098    12.000000000000
         C           -2.665323468118    -1.559405449405    -0.324757924902    12.000000000000
         C           -3.448989468118    -0.433929449405    -0.062364924902    12.000000000000
         C            2.955396531882    -1.172987449405     0.512396075098    12.000000000000
         C            3.582560531882    -0.067439449405    -0.061377924902    12.000000000000
         C            2.782282531882     0.955971550595    -0.567046924902    12.000000000000
         H           -0.659980468118    -2.296381449405    -0.557655924902     1.007825032230
         H           -3.459832468118     1.669775550595     0.390982075098     1.007825032230
         H            1.043790531882    -2.043132449405     1.013316075098     1.007825032230
         H           -3.127886468118    -2.517294449405    -0.547337924902     1.007825032230
         H           -4.534129468118    -0.508734449405    -0.054433924902     1.007825032230
         H            3.539884531882    -1.982247449405     0.943697075098     1.007825032230
         H            0.017578531882     2.315943550595     0.032087075098     1.007825032230
         H           -1.503997468118     2.951954550595     0.371297075098     1.007825032230
         H            4.665198531882     0.010584550595    -0.103817924902     1.007825032230
         H            3.229960531882     1.845888550595    -1.006724924902     1.007825032230

  Basis Set: AUG-CC-PVTZ
    Blend: AUG-CC-PVTZ
  Basis Set: (AUG-CC-PVTZ AUX)
    Blend: AUG-CC-PVTZ-JKFIT
	 Reference Energy          =    -531.4543510283932619 [Eh]
	 Singles Energy            =      -0.0000000000000000 [Eh]
	 Same-Spin Energy          =      -0.5962839797938202 [Eh]
	 Opposite-Spin Energy      =      -1.8200472482738790 [Eh]
	 Correlation Energy        =      -2.4163312280676994 [Eh]
	 Total Energy              =    -533.8706822564610093 [Eh]

	 ================> DF-SCS-MP2 Energies <==================
	-----------------------------------------------------------
	 SCS Same-Spin Scale       =       0.3333333333333333 [-]
	 SCS Opposite-Spin Scale   =       1.2000000000000000 [-]
	 SCS Same-Spin Energy      =      -0.1987613265979400 [Eh]
	 SCS Opposite-Spin Energy  =      -2.1840566979286549 [Eh]
	 SCS Correlation Energy    =      -2.3828180245265949 [Eh]
	 SCS Total Energy          =    -533.8371690529198759 [Eh]
	-----------------------------------------------------------

  Dipole Moment: [D]
     X:     1.4659      Y:    -0.3967      Z:     0.0029     Total:     1.5186

*** Psi4 exiting successfully. Buy a developer a beer!
