                               Psi4 1.3.2 release

  ==> Input File <==

--------------------------------------------------------------------------
#psi4
#
memory 32 gb

molecule  {
0 1
  N        1.4447430     0.9271060    -0.5600120
  N       -0.8646290     2.1728000     0.5033790
  C       -0.6433280    -0.2041590    -0.0552500
  C        0.7344168    -0.1593359    -0.0250717
  C       -1.4414270     0.9434540     0.1762700
  C       -1.2729090    -1.4294320    -0.3272730
  C       -2.8381000     0.7953410     0.1919050
  C        1.5703020    -1.2114420     0.5410850
  C       -2.6593290    -1.5570310    -0.3269880
  C       -3.4429950    -0.4315550    -0.0645950
  C        2.9613910    -1.1706130     0.5101660
  C        3.5885550    -0.0650650    -0.0636080
  C        2.7882770     0.9583460    -0.5692770
  H       -0.6539860    -2.2940070    -0.5598860
  H       -3.4538380     1.6721500     0.3887520
  H        1.0497850    -2.0407580     1.0110860
  H       -3.1218920    -2.5149200    -0.5495680
  H       -4.5281350    -0.5063600    -0.0566640
  H        3.5458790    -1.9798730     0.9414670
  H        0.0235730     2.3183180     0.0298570
  H       -1.4980030     2.9543290     0.3690670
  H        4.6711930     0.0129590    -0.1060480
  H        3.2359550     1.8482630    -1.0089550
units angstrom
no_reorient  #important for SAPT in psi4, default
symmetry c1  #important for SAPT in psi4, default
}

set PROPERTIES_ORIGIN ["COM"]
properties('MP2/aug-cc-pvtz', properties = ['dipole'])
--------------------------------------------------------------------------

    Molecular point group: c1
  Charge       = 0
  Multiplicity = 1
  Basis Set: AUG-CC-PVTZ
    Blend: AUG-CC-PVTZ
  Basis Set: (AUG-CC-PVTZ AUX)
    Blend: AUG-CC-PVTZ-JKFIT

    Orbital Energies [Eh]
    ---------------------

    Doubly Occupied:

       1A    -15.566839     2A    -15.554587     3A    -11.294161
       4A    -11.286876     5A    -11.277807     6A    -11.259761
       7A    -11.244931     8A    -11.244650     9A    -11.243827
      10A    -11.239201    11A    -11.231220    12A    -11.227626
      13A    -11.224891    14A     -1.248583    15A     -1.214894
      16A     -1.135083    17A     -1.080911    18A     -1.069758
      19A     -0.997917    20A     -0.983057    21A     -0.881272
      22A     -0.856542    23A     -0.818158    24A     -0.800265
      25A     -0.722047    26A     -0.693426    27A     -0.688185
      28A     -0.667711    29A     -0.646214    30A     -0.625931
      31A     -0.599226    32A     -0.594451    33A     -0.589860
      34A     -0.573713    35A     -0.545343    36A     -0.537558
      37A     -0.518847    38A     -0.505771    39A     -0.500171
      40A     -0.449084    41A     -0.408979    42A     -0.385709
      43A     -0.369945    44A     -0.316850    45A     -0.284602

  @DF-RHF Final Energy:  -531.43515355343641

   => Energetics <=

    Nuclear Repulsion Energy =            714.7536586584461702
    One-Electron Energy =               -2137.9647447329639363
    Two-Electron Energy =                 891.7759325210814723
    Total Energy =                       -531.4351535534364075
  Basis Set: (AUG-CC-PVTZ AUX)
    Blend: AUG-CC-PVTZ-RI
    Molecular point group: c1

    Geometry (in Angstrom), charge = 0, multiplicity = 1:

       Center              X                  Y                   Z               Mass
    ------------   -----------------  -----------------  -----------------  -----------------
         N            1.447527219188     0.924188243563    -0.557178254166    14.003074004430
         N           -0.861844780812     2.169882243563     0.506212745834    14.003074004430
         C           -0.640543780812    -0.207076756437    -0.052416254166    12.000000000000
         C            0.737201019188    -0.162253656437    -0.022237954166    12.000000000000
         C           -1.438642780812     0.940536243563     0.179103745834    12.000000000000
         C           -1.270124780812    -1.432349756437    -0.324439254166    12.000000000000
         C           -2.835315780812     0.792423243563     0.194738745834    12.000000000000
         C            1.573086219188    -1.214359756437     0.543918745834    12.000000000000
         C           -2.656544780812    -1.559948756437    -0.324154254166    12.000000000000
         C           -3.440210780812    -0.434472756437    -0.061761254166    12.000000000000
         C            2.964175219188    -1.173530756437     0.512999745834    12.000000000000
         C            3.591339219188    -0.067982756437    -0.060774254166    12.000000000000
         C            2.791061219188     0.955428243563    -0.566443254166    12.000000000000
         H           -0.651201780812    -2.296924756437    -0.557052254166     1.007825032230
         H           -3.451053780812     1.669232243563     0.391585745834     1.007825032230
         H            1.052569219188    -2.043675756437     1.013919745834     1.007825032230
         H           -3.119107780812    -2.517837756437    -0.546734254166     1.007825032230
         H           -4.525350780812    -0.509277756437    -0.053830254166     1.007825032230
         H            3.548663219188    -1.982790756437     0.944300745834     1.007825032230
         H            0.026357219188     2.315400243563     0.032690745834     1.007825032230
         H           -1.495218780812     2.951411243563     0.371900745834     1.007825032230
         H            4.673977219188     0.010041243563    -0.103214254166     1.007825032230
         H            3.238739219188     1.845345243563    -1.006121254166     1.007825032230

  Basis Set: AUG-CC-PVTZ
    Blend: AUG-CC-PVTZ
  Basis Set: (AUG-CC-PVTZ AUX)
    Blend: AUG-CC-PVTZ-JKFIT
	 Reference Energy          =    -531.4351535534364075 [Eh]
	 Singles Energy            =      -0.0000000000000000 [Eh]
	 Same-Spin Energy          =      -0.5987988251736778 [Eh]
	 Opposite-Spin Energy      =      -1.8244869311472049 [Eh]
	 Correlation Energy        =      -2.4232857563208827 [Eh]
	 Total Energy              =    -533.8584393097572729 [Eh]

	 ================> DF-SCS-MP2 Energies <==================
	-----------------------------------------------------------
	 SCS Same-Spin Scale       =       0.3333333333333333 [-]
	 SCS Opposite-Spin Scale   =       1.2000000000000000 [-]
	 SCS Same-Spin Energy      =      -0.1995996083912259 [Eh]
	 SCS Opposite-Spin Energy  =      -2.1893843173766458 [Eh]
	 SCS Correlation Energy    =      -2.3889839257678718 [Eh]
	 SCS Total Energy          =    -533.8241374792042961 [Eh]
	-----------------------------------------------------------

  Dipole Moment: [D]
     X:     1.0365      Y:    -0.3985      Z:     0.0160     Total:     1.1105

*** Psi4 exiting successfully. Buy a developer a beer!
