                               Psi4 1.3.2 release

  ==> Input File <==

--------------------------------------------------------------------------
#psi4
#
memory 32 gb

molecule  {
0 1
  N        1.4447430     0.9271060    -0.5600120
  N       -0.8646290     2.1728000     0.5033790
  C       -0.6433280    -0.2041590    -0.0552500
  C        0.8343400    -0.1560850    -0.0228830
  C       -1.5240168     0.7674280     0.1294323
  C       -1.2729090    -1.4294320    -0.3272730
  C       -2.8381000     0.7953410     0.1919050
  C        1.5703020    -1.2114420     0.5410850
  C       -2.6593290    -1.5570310    -0.3269880
  C       -3.4429950    -0.4315550    -0.0645950
  C        2.9613910    -1.1706130     0.5101660
  C        3.5885550    -0.0650650    -0.0636080
  C        2.7882770     0.9583460    -0.5692770
  H       -0.6539860    -2.2940070    -0.5598860
  H       -3.4538380     1.6721500     0.3887520
  H        1.0497850    -2.0407580     1.0110860
  H       -3.1218920    -2.5149200    -0.5495680
  H       -4.5281350    -0.5063600    -0.0566640
  H        3.5458790    -1.9798730     0.9414670
  H        0.0235730     2.3183180     0.0298570
  H       -1.4980030     2.9543290     0.3690670
  H        4.6711930     0.0129590    -0.1060480
  H        3.2359550     1.8482630    -1.0089550
units angstrom
no_reorient  #important for SAPT in psi4, default
symmetry c1  #important for SAPT in psi4, default
}

set PROPERTIES_ORIGIN ["COM"]
properties('MP2/aug-cc-pvtz', properties = ['dipole'])
--------------------------------------------------------------------------

    Molecular point group: c1
  Charge       = 0
  Multiplicity = 1
  Basis Set: AUG-CC-PVTZ
    Blend: AUG-CC-PVTZ
  Basis Set: (AUG-CC-PVTZ AUX)
    Blend: AUG-CC-PVTZ-JKFIT

    Orbital Energies [Eh]
    ---------------------

    Doubly Occupied:

       1A    -15.570728     2A    -15.528256     3A    -11.295907
       4A    -11.282292     5A    -11.267236     6A    -11.265603
       7A    -11.246552     8A    -11.245647     9A    -11.243467
      10A    -11.242276    11A    -11.235133    12A    -11.229365
      13A    -11.223932    14A     -1.263454    15A     -1.191801
      16A     -1.109421    17A     -1.090442    18A     -1.070610
      19A     -1.010218    20A     -0.993920    21A     -0.877093
      22A     -0.868213    23A     -0.829338    24A     -0.801406
      25A     -0.726053    26A     -0.686399    27A     -0.679637
      28A     -0.659446    29A     -0.645202    30A     -0.624256
      31A     -0.609418    32A     -0.591061    33A     -0.574049
      34A     -0.572085    35A     -0.551866    36A     -0.535968
      37A     -0.523846    38A     -0.514474    39A     -0.476372
      40A     -0.424698    41A     -0.412347    42A     -0.389939
      43A     -0.372387    44A     -0.326082    45A     -0.308143

  @DF-RHF Final Energy:  -531.41119455032447

   => Energetics <=

    Nuclear Repulsion Energy =            715.8022459823928330
    One-Electron Energy =               -2140.0548072544543174
    Two-Electron Energy =                 892.8413667217370175
    Total Energy =                       -531.4111945503244669
  Basis Set: (AUG-CC-PVTZ AUX)
    Blend: AUG-CC-PVTZ-RI
    Molecular point group: c1

    Geometry (in Angstrom), charge = 0, multiplicity = 1:

       Center              X                  Y                   Z               Mass
    ------------   -----------------  -----------------  -----------------  -----------------
         N            1.446304292206     0.936378081199    -0.554028123964    14.003074004430
         N           -0.863067707794     2.182072081199     0.509362876036    14.003074004430
         C           -0.641766707794    -0.194886918801    -0.049266123964    12.000000000000
         C            0.835901292206    -0.146812918801    -0.016899123964    12.000000000000
         C           -1.522455507794     0.776700081199     0.135416176036    12.000000000000
         C           -1.271347707794    -1.420159918801    -0.321289123964    12.000000000000
         C           -2.836538707794     0.804613081199     0.197888876036    12.000000000000
         C            1.571863292206    -1.202169918801     0.547068876036    12.000000000000
         C           -2.657767707794    -1.547758918801    -0.321004123964    12.000000000000
         C           -3.441433707794    -0.422282918801    -0.058611123964    12.000000000000
         C            2.962952292206    -1.161340918801     0.516149876036    12.000000000000
         C            3.590116292206    -0.055792918801    -0.057624123964    12.000000000000
         C            2.789838292206     0.967618081199    -0.563293123964    12.000000000000
         H           -0.652424707794    -2.284734918801    -0.553902123964     1.007825032230
         H           -3.452276707794     1.681422081199     0.394735876036     1.007825032230
         H            1.051346292206    -2.031485918801     1.017069876036     1.007825032230
         H           -3.120330707794    -2.505647918801    -0.543584123964     1.007825032230
         H           -4.526573707794    -0.497087918801    -0.050680123964     1.007825032230
         H            3.547440292206    -1.970600918801     0.947450876036     1.007825032230
         H            0.025134292206     2.327590081199     0.035840876036     1.007825032230
         H           -1.496441707794     2.963601081199     0.375050876036     1.007825032230
         H            4.672754292206     0.022231081199    -0.100064123964     1.007825032230
         H            3.237516292206     1.857535081199    -1.002971123964     1.007825032230

  Basis Set: AUG-CC-PVTZ
    Blend: AUG-CC-PVTZ
  Basis Set: (AUG-CC-PVTZ AUX)
    Blend: AUG-CC-PVTZ-JKFIT
	 Reference Energy          =    -531.4111945503244669 [Eh]
	 Singles Energy            =      -0.0000000000000000 [Eh]
	 Same-Spin Energy          =      -0.5966810696724234 [Eh]
	 Opposite-Spin Energy      =      -1.8227684649308304 [Eh]
	 Correlation Energy        =      -2.4194495346032538 [Eh]
	 Total Energy              =    -533.8306440849277124 [Eh]

	 ================> DF-SCS-MP2 Energies <==================
	-----------------------------------------------------------
	 SCS Same-Spin Scale       =       0.3333333333333333 [-]
	 SCS Opposite-Spin Scale   =       1.2000000000000000 [-]
	 SCS Same-Spin Energy      =      -0.1988936898908078 [Eh]
	 SCS Opposite-Spin Energy  =      -2.1873221579169964 [Eh]
	 SCS Correlation Energy    =      -2.3862158478078044 [Eh]
	 SCS Total Energy          =    -533.7974103981322287 [Eh]
	-----------------------------------------------------------

  Dipole Moment: [D]
     X:     1.2510      Y:    -1.4263      Z:    -0.2459     Total:     1.9131

*** Psi4 exiting successfully. Buy a developer a beer!
