                               Psi4 1.3.2 release

  ==> Input File <==

--------------------------------------------------------------------------
#psi4
#
memory 32 gb

molecule  {
0 1
  N        1.4447430     0.9271060    -0.5600120
  N       -0.8646290     2.1728000     0.5033790
  C       -0.6433280    -0.2041590    -0.0552500
  C        0.8343400    -0.1560850    -0.0228830
  C       -1.4414270     0.9434540     0.1762700
  C       -1.2729090    -1.4294320    -0.3272730
  C       -2.8381000     0.7953410     0.1919050
  C        1.5703020    -1.2114420     0.5410850
  C       -2.6593290    -1.5570310    -0.3269880
  C       -3.4429950    -0.4315550    -0.0645950
  C        2.9613910    -1.1706130     0.5101660
  C        3.5885550    -0.0650650    -0.0636080
  C        2.8882476     0.9606705    -0.5699664
  H       -0.6539860    -2.2940070    -0.5598860
  H       -3.4538380     1.6721500     0.3887520
  H        1.0497850    -2.0407580     1.0110860
  H       -3.1218920    -2.5149200    -0.5495680
  H       -4.5281350    -0.5063600    -0.0566640
  H        3.5458790    -1.9798730     0.9414670
  H        0.0235730     2.3183180     0.0298570
  H       -1.4980030     2.9543290     0.3690670
  H        4.6711930     0.0129590    -0.1060480
  H        3.2359550     1.8482630    -1.0089550
units angstrom
no_reorient  #important for SAPT in psi4, default
symmetry c1  #important for SAPT in psi4, default
}

set PROPERTIES_ORIGIN ["COM"]
properties('MP2/aug-cc-pvtz', properties = ['dipole'])
--------------------------------------------------------------------------

    Molecular point group: c1
  Charge       = 0
  Multiplicity = 1
  Basis Set: AUG-CC-PVTZ
    Blend: AUG-CC-PVTZ
  Basis Set: (AUG-CC-PVTZ AUX)
    Blend: AUG-CC-PVTZ-JKFIT

    Orbital Energies [Eh]
    ---------------------

    Doubly Occupied:

       1A    -15.571656     2A    -15.550066     3A    -11.289948
       4A    -11.280815     5A    -11.278481     6A    -11.265314
       7A    -11.244232     8A    -11.239515     9A    -11.239497
      10A    -11.238253    11A    -11.234511    12A    -11.223801
      13A    -11.221243    14A     -1.244090    15A     -1.210280
      16A     -1.127309    17A     -1.087887    18A     -1.059987
      19A     -1.001485    20A     -0.982117    21A     -0.872747
      22A     -0.864530    23A     -0.816756    24A     -0.798487
      25A     -0.720509    26A     -0.688432    27A     -0.685497
      28A     -0.659695    29A     -0.653567    30A     -0.630969
      31A     -0.600086    32A     -0.591785    33A     -0.585971
      34A     -0.574099    35A     -0.544074    36A     -0.533821
      37A     -0.516370    38A     -0.500768    39A     -0.495111
      40A     -0.444641    41A     -0.419291    42A     -0.388829
      43A     -0.363285    44A     -0.322624    45A     -0.287949

  @DF-RHF Final Energy:  -531.43960593785005

   => Energetics <=

    Nuclear Repulsion Energy =            713.1409992099074771
    One-Electron Energy =               -2134.8604580672758857
    Two-Electron Energy =                 890.2798529195183619
    Total Energy =                       -531.4396059378500468
  Basis Set: (AUG-CC-PVTZ AUX)
    Blend: AUG-CC-PVTZ-RI
    Molecular point group: c1

    Geometry (in Angstrom), charge = 0, multiplicity = 1:

       Center              X                  Y                   Z               Mass
    ------------   -----------------  -----------------  -----------------  -----------------
         N            1.433424070260     0.923794881205    -0.557284034591    14.003074004430
         N           -0.875947929740     2.169488881205     0.506106965409    14.003074004430
         C           -0.654646929740    -0.207470118795    -0.052522034591    12.000000000000
         C            0.823021070260    -0.159396118795    -0.020155034591    12.000000000000
         C           -1.452745929740     0.940142881205     0.178997965409    12.000000000000
         C           -1.284227929740    -1.432743118795    -0.324545034591    12.000000000000
         C           -2.849418929740     0.792029881205     0.194632965409    12.000000000000
         C            1.558983070260    -1.214753118795     0.543812965409    12.000000000000
         C           -2.670647929740    -1.560342118795    -0.324260034591    12.000000000000
         C           -3.454313929740    -0.434866118795    -0.061867034591    12.000000000000
         C            2.950072070260    -1.173924118795     0.512893965409    12.000000000000
         C            3.577236070260    -0.068376118795    -0.060880034591    12.000000000000
         C            2.876928670260     0.957359381205    -0.567238434591    12.000000000000
         H           -0.665304929740    -2.297318118795    -0.557158034591     1.007825032230
         H           -3.465156929740     1.668838881205     0.391479965409     1.007825032230
         H            1.038466070260    -2.044069118795     1.013813965409     1.007825032230
         H           -3.133210929740    -2.518231118795    -0.546840034591     1.007825032230
         H           -4.539453929740    -0.509671118795    -0.053936034591     1.007825032230
         H            3.534560070260    -1.983184118795     0.944194965409     1.007825032230
         H            0.012254070260     2.315006881205     0.032584965409     1.007825032230
         H           -1.509321929740     2.951017881205     0.371794965409     1.007825032230
         H            4.659874070260     0.009647881205    -0.103320034591     1.007825032230
         H            3.224636070260     1.844951881205    -1.006227034591     1.007825032230

  Basis Set: AUG-CC-PVTZ
    Blend: AUG-CC-PVTZ
  Basis Set: (AUG-CC-PVTZ AUX)
    Blend: AUG-CC-PVTZ-JKFIT
	 Reference Energy          =    -531.4396059378500468 [Eh]
	 Singles Energy            =      -0.0000000000000000 [Eh]
	 Same-Spin Energy          =      -0.5969345411835416 [Eh]
	 Opposite-Spin Energy      =      -1.8232394694896530 [Eh]
	 Correlation Energy        =      -2.4201740106731946 [Eh]
	 Total Energy              =    -533.8597799485232827 [Eh]

	 ================> DF-SCS-MP2 Energies <==================
	-----------------------------------------------------------
	 SCS Same-Spin Scale       =       0.3333333333333333 [-]
	 SCS Opposite-Spin Scale   =       1.2000000000000000 [-]
	 SCS Same-Spin Energy      =      -0.1989781803945139 [Eh]
	 SCS Opposite-Spin Energy  =      -2.1878873633875835 [Eh]
	 SCS Correlation Energy    =      -2.3868655437820974 [Eh]
	 SCS Total Energy          =    -533.8264714816320975 [Eh]
	-----------------------------------------------------------

  Dipole Moment: [D]
     X:     1.5443      Y:    -0.4211      Z:     0.0186     Total:     1.6008

*** Psi4 exiting successfully. Buy a developer a beer!
