                               Psi4 1.3.2 release

  ==> Input File <==

--------------------------------------------------------------------------
#psi4
#
memory 32 gb

molecule  {
0 1
  N        1.4447430     0.9271060    -0.5600120
  N       -0.8646290     2.1728000     0.5033790
  C       -0.6433280    -0.2041590    -0.0552500
  C        0.8343400    -0.1560850    -0.0228830
  C       -1.3588372     1.1194800     0.2231077
  C       -1.2729090    -1.4294320    -0.3272730
  C       -2.8381000     0.7953410     0.1919050
  C        1.5703020    -1.2114420     0.5410850
  C       -2.6593290    -1.5570310    -0.3269880
  C       -3.4429950    -0.4315550    -0.0645950
  C        2.9613910    -1.1706130     0.5101660
  C        3.5885550    -0.0650650    -0.0636080
  C        2.7882770     0.9583460    -0.5692770
  H       -0.6539860    -2.2940070    -0.5598860
  H       -3.4538380     1.6721500     0.3887520
  H        1.0497850    -2.0407580     1.0110860
  H       -3.1218920    -2.5149200    -0.5495680
  H       -4.5281350    -0.5063600    -0.0566640
  H        3.5458790    -1.9798730     0.9414670
  H        0.0235730     2.3183180     0.0298570
  H       -1.4980030     2.9543290     0.3690670
  H        4.6711930     0.0129590    -0.1060480
  H        3.2359550     1.8482630    -1.0089550
units angstrom
no_reorient  #important for SAPT in psi4, default
symmetry c1  #important for SAPT in psi4, default
}

set PROPERTIES_ORIGIN ["COM"]
properties('MP2/aug-cc-pvtz', properties = ['dipole'])
--------------------------------------------------------------------------

    Molecular point group: c1
  Charge       = 0
  Multiplicity = 1
  Basis Set: AUG-CC-PVTZ
    Blend: AUG-CC-PVTZ
  Basis Set: (AUG-CC-PVTZ AUX)
    Blend: AUG-CC-PVTZ-JKFIT

    Orbital Energies [Eh]
    ---------------------

    Doubly Occupied:

       1A    -15.582620     2A    -15.566506     3A    -11.301672
       4A    -11.284307     5A    -11.280414     6A    -11.260819
       7A    -11.238599     8A    -11.236181     9A    -11.235311
      10A    -11.234541    11A    -11.231716    12A    -11.222872
      13A    -11.205215    14A     -1.319703    15A     -1.256265
      16A     -1.116507    17A     -1.086147    18A     -1.053399
      19A     -0.986019    20A     -0.960695    21A     -0.866343
      22A     -0.860344    23A     -0.822393    24A     -0.803679
      25A     -0.727118    26A     -0.722251    27A     -0.706754
      28A     -0.660704    29A     -0.658222    30A     -0.633895
      31A     -0.594377    32A     -0.584540    33A     -0.577187
      34A     -0.573330    35A     -0.557119    36A     -0.543499
      37A     -0.528201    38A     -0.502440    39A     -0.463161
      40A     -0.455315    41A     -0.414600    42A     -0.387446
      43A     -0.364510    44A     -0.313152    45A     -0.258360

  @DF-RHF Final Energy:  -531.38864729064153

   => Energetics <=

    Nuclear Repulsion Energy =            714.1513078907727277
    One-Electron Energy =               -2136.6030152980729326
    Two-Electron Energy =                 891.0630601166585620
    Total Energy =                       -531.3886472906415293
  Basis Set: (AUG-CC-PVTZ AUX)
    Blend: AUG-CC-PVTZ-RI
    Molecular point group: c1

    Geometry (in Angstrom), charge = 0, multiplicity = 1:

       Center              X                  Y                   Z               Mass
    ------------   -----------------  -----------------  -----------------  -----------------
         N            1.434650341465     0.911539683077    -0.560637223982    14.003074004430
         N           -0.874721658535     2.157233683077     0.502753776018    14.003074004430
         C           -0.653420658535    -0.219725316923    -0.055875223982    12.000000000000
         C            0.824247341465    -0.171651316923    -0.023508223982    12.000000000000
         C           -1.368929858535     1.103913683077     0.222482476018    12.000000000000
         C           -1.283001658535    -1.444998316923    -0.327898223982    12.000000000000
         C           -2.848192658535     0.779774683077     0.191279776018    12.000000000000
         C            1.560209341465    -1.227008316923     0.540459776018    12.000000000000
         C           -2.669421658535    -1.572597316923    -0.327613223982    12.000000000000
         C           -3.453087658535    -0.447121316923    -0.065220223982    12.000000000000
         C            2.951298341465    -1.186179316923     0.509540776018    12.000000000000
         C            3.578462341465    -0.080631316923    -0.064233223982    12.000000000000
         C            2.778184341465     0.942779683077    -0.569902223982    12.000000000000
         H           -0.664078658535    -2.309573316923    -0.560511223982     1.007825032230
         H           -3.463930658535     1.656583683077     0.388126776018     1.007825032230
         H            1.039692341465    -2.056324316923     1.010460776018     1.007825032230
         H           -3.131984658535    -2.530486316923    -0.550193223982     1.007825032230
         H           -4.538227658535    -0.521926316923    -0.057289223982     1.007825032230
         H            3.535786341465    -1.995439316923     0.940841776018     1.007825032230
         H            0.013480341465     2.302751683077     0.029231776018     1.007825032230
         H           -1.508095658535     2.938762683077     0.368441776018     1.007825032230
         H            4.661100341465    -0.002607316923    -0.106673223982     1.007825032230
         H            3.225862341465     1.832696683077    -1.009580223982     1.007825032230

  Basis Set: AUG-CC-PVTZ
    Blend: AUG-CC-PVTZ
  Basis Set: (AUG-CC-PVTZ AUX)
    Blend: AUG-CC-PVTZ-JKFIT
	 Reference Energy          =    -531.3886472906415293 [Eh]
	 Singles Energy            =      -0.0000000000000000 [Eh]
	 Same-Spin Energy          =      -0.5984767953559345 [Eh]
	 Opposite-Spin Energy      =      -1.8230258395386039 [Eh]
	 Correlation Energy        =      -2.4215026348945381 [Eh]
	 Total Energy              =    -533.8101499255360523 [Eh]

	 ================> DF-SCS-MP2 Energies <==================
	-----------------------------------------------------------
	 SCS Same-Spin Scale       =       0.3333333333333333 [-]
	 SCS Opposite-Spin Scale   =       1.2000000000000000 [-]
	 SCS Same-Spin Energy      =      -0.1994922651186448 [Eh]
	 SCS Opposite-Spin Energy  =      -2.1876310074463245 [Eh]
	 SCS Correlation Energy    =      -2.3871232725649696 [Eh]
	 SCS Total Energy          =    -533.7757705632064926 [Eh]
	-----------------------------------------------------------

  Dipole Moment: [D]
     X:     1.9042      Y:     0.9005      Z:     0.3697     Total:     2.1386

*** Psi4 exiting successfully. Buy a developer a beer!
