                               Psi4 1.4a3.dev225

  ==> Input File <==

--------------------------------------------------------------------------
#psi4
#
memory 32 gb

molecule  {
0 1
  N        1.4447430     0.9271060    -0.5600120
  N       -0.8646290     2.1728000     0.5033790
  C       -0.6433280    -0.2041590    -0.0552500
  C        0.8343400    -0.1560850    -0.0228830
  C       -1.4414270     0.9434540     0.1762700
  C       -1.2729090    -1.4294320    -0.3272730
  C       -2.8381000     0.7953410     0.1919050
  C        1.5964964    -1.2490044     0.5611578
  C       -2.6593290    -1.5570310    -0.3269880
  C       -3.4429950    -0.4315550    -0.0645950
  C        2.9613910    -1.1706130     0.5101660
  C        3.5885550    -0.0650650    -0.0636080
  C        2.7882770     0.9583460    -0.5692770
  H       -0.6539860    -2.2940070    -0.5598860
  H       -3.4538380     1.6721500     0.3887520
  H        1.0497850    -2.0407580     1.0110860
  H       -3.1218920    -2.5149200    -0.5495680
  H       -4.5281350    -0.5063600    -0.0566640
  H        3.5458790    -1.9798730     0.9414670
  H        0.0235730     2.3183180     0.0298570
  H       -1.4980030     2.9543290     0.3690670
  H        4.6711930     0.0129590    -0.1060480
  H        3.2359550     1.8482630    -1.0089550
units angstrom
no_reorient  #important for SAPT in psi4, default
symmetry c1  #important for SAPT in psi4, default
}

set PROPERTIES_ORIGIN ["COM"]
properties('MP2/aug-cc-pvtz', properties = ['dipole'])
--------------------------------------------------------------------------

    Molecular point group: c1
  Charge       = 0
  Multiplicity = 1
  Basis Set: AUG-CC-PVTZ
    Blend: AUG-CC-PVTZ
  Basis Set: (AUG-CC-PVTZ AUX)
    Blend: AUG-CC-PVTZ-JKFIT

    Orbital Energies [Eh]
    ---------------------

    Doubly Occupied:

       1A    -15.568797     2A    -15.551820     3A    -11.296733
       4A    -11.282235     5A    -11.280247     6A    -11.259417
       7A    -11.242715     8A    -11.241372     9A    -11.240546
      10A    -11.239404    11A    -11.235895    12A    -11.224938
      13A    -11.222234    14A     -1.260721    15A     -1.214678
      16A     -1.128730    17A     -1.091416    18A     -1.058655
      19A     -0.997845    20A     -0.981330    21A     -0.874338
      22A     -0.860115    23A     -0.818525    24A     -0.799674
      25A     -0.718310    26A     -0.692086    27A     -0.685385
      28A     -0.667570    29A     -0.652009    30A     -0.626403
      31A     -0.596516    32A     -0.592183    33A     -0.587332
      34A     -0.570134    35A     -0.548910    36A     -0.541735
      37A     -0.521097    38A     -0.503365    39A     -0.495299
      40A     -0.446052    41A     -0.418240    42A     -0.392616
      43A     -0.366327    44A     -0.318273    45A     -0.286793

  @DF-RHF Final Energy:  -531.45060859141915

   => Energetics <=

    Nuclear Repulsion Energy =            713.8395644003419420
    One-Electron Energy =               -2136.1823157584594810
    Two-Electron Energy =                 890.8921427666983845
    Total Energy =                       -531.4506085914191544
  Basis Set: (AUG-CC-PVTZ AUX)
    Blend: AUG-CC-PVTZ-RI
    Molecular point group: c1

    Geometry (in Angstrom), charge = 0, multiplicity = 1:

       Center              X                  Y                   Z               Mass
    ------------   -----------------  -----------------  -----------------  -----------------
         N            1.438629217873     0.926609029973    -0.558748874415    14.003074004430
         N           -0.870742782127     2.172303029973     0.504642125585    14.003074004430
         C           -0.649441782127    -0.204655970027    -0.053986874415    12.000000000000
         C            0.828226217873    -0.156581970027    -0.021619874415    12.000000000000
         C           -1.447540782127     0.942957029973     0.177533125585    12.000000000000
         C           -1.279022782127    -1.429928970027    -0.326009874415    12.000000000000
         C           -2.844213782127     0.794844029973     0.193168125585    12.000000000000
         C            1.590382617873    -1.249501370027     0.562420925585    12.000000000000
         C           -2.665442782127    -1.557527970027    -0.325724874415    12.000000000000
         C           -3.449108782127    -0.432051970027    -0.063331874415    12.000000000000
         C            2.955277217873    -1.171109970027     0.511429125585    12.000000000000
         C            3.582441217873    -0.065561970027    -0.062344874415    12.000000000000
         C            2.782163217873     0.957849029973    -0.568013874415    12.000000000000
         H           -0.660099782127    -2.294503970027    -0.558622874415     1.007825032230
         H           -3.459951782127     1.671653029973     0.390015125585     1.007825032230
         H            1.043671217873    -2.041254970027     1.012349125585     1.007825032230
         H           -3.128005782127    -2.515416970027    -0.548304874415     1.007825032230
         H           -4.534248782127    -0.506856970027    -0.055400874415     1.007825032230
         H            3.539765217873    -1.980369970027     0.942730125585     1.007825032230
         H            0.017459217873     2.317821029973     0.031120125585     1.007825032230
         H           -1.504116782127     2.953832029973     0.370330125585     1.007825032230
         H            4.665079217873     0.012462029973    -0.104784874415     1.007825032230
         H            3.229841217873     1.847766029973    -1.007691874415     1.007825032230

  Basis Set: AUG-CC-PVTZ
    Blend: AUG-CC-PVTZ
  Basis Set: (AUG-CC-PVTZ AUX)
    Blend: AUG-CC-PVTZ-JKFIT
	 Reference Energy          =    -531.4506085914191544 [Eh]
	 Singles Energy            =      -0.0000000000000000 [Eh]
	 Same-Spin Energy          =      -0.5963518548861256 [Eh]
	 Opposite-Spin Energy      =      -1.8207808830754275 [Eh]
	 Correlation Energy        =      -2.4171327379615533 [Eh]
	 Total Energy              =    -533.8677413293806922 [Eh]

	 ================> DF-SCS-MP2 Energies <==================
	-----------------------------------------------------------
	 SCS Same-Spin Scale       =       0.3333333333333333 [-]
	 SCS Opposite-Spin Scale   =       1.2000000000000000 [-]
	 SCS Same-Spin Energy      =      -0.1987839516287085 [Eh]
	 SCS Opposite-Spin Energy  =      -2.1849370596905131 [Eh]
	 SCS Correlation Energy    =      -2.3837210113192215 [Eh]
	 SCS Total Energy          =    -533.8343296027384213 [Eh]
	-----------------------------------------------------------

  Dipole Moment: [D]
     X:     1.4340      Y:    -0.4103      Z:     0.0132     Total:     1.4916

*** Psi4 exiting successfully. Buy a developer a beer!
