                               Psi4 1.3.2 release

  ==> Input File <==

--------------------------------------------------------------------------
#psi4
#
memory 32 gb

molecule  {
0 1
  N        1.5676858     0.8664751    -0.5238590
  N       -0.8646290     2.1728000     0.5033790
  C       -0.6433280    -0.2041590    -0.0552500
  C        0.8343400    -0.1560850    -0.0228830
  C       -1.4414270     0.9434540     0.1762700
  C       -1.2729090    -1.4294320    -0.3272730
  C       -2.8381000     0.7953410     0.1919050
  C        1.5703020    -1.2114420     0.5410850
  C       -2.6593290    -1.5570310    -0.3269880
  C       -3.4429950    -0.4315550    -0.0645950
  C        2.9613910    -1.1706130     0.5101660
  C        3.5885550    -0.0650650    -0.0636080
  C        2.7882770     0.9583460    -0.5692770
  H       -0.6539860    -2.2940070    -0.5598860
  H       -3.4538380     1.6721500     0.3887520
  H        1.0497850    -2.0407580     1.0110860
  H       -3.1218920    -2.5149200    -0.5495680
  H       -4.5281350    -0.5063600    -0.0566640
  H        3.5458790    -1.9798730     0.9414670
  H        0.0235730     2.3183180     0.0298570
  H       -1.4980030     2.9543290     0.3690670
  H        4.6711930     0.0129590    -0.1060480
  H        3.2359550     1.8482630    -1.0089550
units angstrom
no_reorient  #important for SAPT in psi4, default
symmetry c1  #important for SAPT in psi4, default
}

set PROPERTIES_ORIGIN ["COM"]
properties('MP2/aug-cc-pvtz', properties = ['dipole'])
--------------------------------------------------------------------------

    Molecular point group: c1
  Charge       = 0
  Multiplicity = 1
  Basis Set: AUG-CC-PVTZ
    Blend: AUG-CC-PVTZ
  Basis Set: (AUG-CC-PVTZ AUX)
    Blend: AUG-CC-PVTZ-JKFIT

    Orbital Energies [Eh]
    ---------------------

    Doubly Occupied:

       1A    -15.555455     2A    -15.550278     3A    -11.289345
       4A    -11.282873     5A    -11.264875     6A    -11.256466
       7A    -11.241211     8A    -11.239860     9A    -11.239593
      10A    -11.238447    11A    -11.236841    12A    -11.225737
      13A    -11.223020    14A     -1.289864    15A     -1.219408
      16A     -1.131067    17A     -1.087279    18A     -1.065810
      19A     -0.999729    20A     -0.982221    21A     -0.879420
      22A     -0.856179    23A     -0.821930    24A     -0.805420
      25A     -0.722641    26A     -0.697053    27A     -0.686980
      28A     -0.663083    29A     -0.656886    30A     -0.628618
      31A     -0.600169    32A     -0.593287    33A     -0.587454
      34A     -0.574928    35A     -0.562403    36A     -0.537361
      37A     -0.527449    38A     -0.506279    39A     -0.495371
      40A     -0.447465    41A     -0.394614    42A     -0.390302
      43A     -0.372839    44A     -0.318077    45A     -0.287018

  @DF-RHF Final Energy:  -531.44072634967051

   => Energetics <=

    Nuclear Repulsion Energy =            716.2056194606720965
    One-Electron Energy =               -2140.8274818058707751
    Two-Electron Energy =                 893.1811359955281659
    Total Energy =                       -531.4407263496705127
  Basis Set: (AUG-CC-PVTZ AUX)
    Blend: AUG-CC-PVTZ-RI
    Molecular point group: c1

    Geometry (in Angstrom), charge = 0, multiplicity = 1:

       Center              X                  Y                   Z               Mass
    ------------   -----------------  -----------------  -----------------  -----------------
         N            1.553298217686     0.868319733222    -0.524156155881    14.003074004430
         N           -0.879016582314     2.174644633222     0.503081844119    14.003074004430
         C           -0.657715582314    -0.202314366778    -0.055547155881    12.000000000000
         C            0.819952417686    -0.154240366778    -0.023180155881    12.000000000000
         C           -1.455814582314     0.945298633222     0.175972844119    12.000000000000
         C           -1.287296582314    -1.427587366778    -0.327570155881    12.000000000000
         C           -2.852487582314     0.797185633222     0.191607844119    12.000000000000
         C            1.555914417686    -1.209597366778     0.540787844119    12.000000000000
         C           -2.673716582314    -1.555186366778    -0.327285155881    12.000000000000
         C           -3.457382582314    -0.429710366778    -0.064892155881    12.000000000000
         C            2.947003417686    -1.168768366778     0.509868844119    12.000000000000
         C            3.574167417686    -0.063220366778    -0.063905155881    12.000000000000
         C            2.773889417686     0.960190633222    -0.569574155881    12.000000000000
         H           -0.668373582314    -2.292162366778    -0.560183155881     1.007825032230
         H           -3.468225582314     1.673994633222     0.388454844119     1.007825032230
         H            1.035397417686    -2.038913366778     1.010788844119     1.007825032230
         H           -3.136279582314    -2.513075366778    -0.549865155881     1.007825032230
         H           -4.542522582314    -0.504515366778    -0.056961155881     1.007825032230
         H            3.531491417686    -1.978028366778     0.941169844119     1.007825032230
         H            0.009185417686     2.320162633222     0.029559844119     1.007825032230
         H           -1.512390582314     2.956173633222     0.368769844119     1.007825032230
         H            4.656805417686     0.014803633222    -0.106345155881     1.007825032230
         H            3.221567417686     1.850107633222    -1.009252155881     1.007825032230

  Basis Set: AUG-CC-PVTZ
    Blend: AUG-CC-PVTZ
  Basis Set: (AUG-CC-PVTZ AUX)
    Blend: AUG-CC-PVTZ-JKFIT
	 Reference Energy          =    -531.4407263496705127 [Eh]
	 Singles Energy            =      -0.0000000000000000 [Eh]
	 Same-Spin Energy          =      -0.5954274258626805 [Eh]
	 Opposite-Spin Energy      =      -1.8175098286064162 [Eh]
	 Correlation Energy        =      -2.4129372544690968 [Eh]
	 Total Energy              =    -533.8536636041395695 [Eh]

	 ================> DF-SCS-MP2 Energies <==================
	-----------------------------------------------------------
	 SCS Same-Spin Scale       =       0.3333333333333333 [-]
	 SCS Opposite-Spin Scale   =       1.2000000000000000 [-]
	 SCS Same-Spin Energy      =      -0.1984758086208935 [Eh]
	 SCS Opposite-Spin Energy  =      -2.1810117943276994 [Eh]
	 SCS Correlation Energy    =      -2.3794876029485930 [Eh]
	 SCS Total Energy          =    -533.8202139526191559 [Eh]
	-----------------------------------------------------------

  Dipole Moment: [D]
     X:     1.1074      Y:    -0.2654      Z:    -0.0619     Total:     1.1404

*** Psi4 exiting successfully. Buy a developer a beer!
