                               Psi4 1.3.2 release

  ==> Input File <==

--------------------------------------------------------------------------
#psi4
#
memory 32 gb

molecule  {
0 1
  N        1.4447430     0.9271060    -0.5600120
  N       -0.9093342     2.1909371     0.5104121
  C       -0.6433280    -0.2041590    -0.0552500
  C        0.8343400    -0.1560850    -0.0228830
  C       -1.4414270     0.9434540     0.1762700
  C       -1.2729090    -1.4294320    -0.3272730
  C       -2.8381000     0.7953410     0.1919050
  C        1.5703020    -1.2114420     0.5410850
  C       -2.6593290    -1.5570310    -0.3269880
  C       -3.4429950    -0.4315550    -0.0645950
  C        2.9613910    -1.1706130     0.5101660
  C        3.5885550    -0.0650650    -0.0636080
  C        2.7882770     0.9583460    -0.5692770
  H       -0.6539860    -2.2940070    -0.5598860
  H       -3.4538380     1.6721500     0.3887520
  H        1.0497850    -2.0407580     1.0110860
  H       -3.1218920    -2.5149200    -0.5495680
  H       -4.5281350    -0.5063600    -0.0566640
  H        3.5458790    -1.9798730     0.9414670
  H        0.0235730     2.3183180     0.0298570
  H       -1.4980030     2.9543290     0.3690670
  H        4.6711930     0.0129590    -0.1060480
  H        3.2359550     1.8482630    -1.0089550
units angstrom
no_reorient  #important for SAPT in psi4, default
symmetry c1  #important for SAPT in psi4, default
}

set PROPERTIES_ORIGIN ["COM"]
properties('MP2/aug-cc-pvtz', properties = ['dipole'])
--------------------------------------------------------------------------

    Molecular point group: c1
  Charge       = 0
  Multiplicity = 1
  Basis Set: AUG-CC-PVTZ
    Blend: AUG-CC-PVTZ
  Basis Set: (AUG-CC-PVTZ AUX)
    Blend: AUG-CC-PVTZ-JKFIT

    Orbital Energies [Eh]
    ---------------------

    Doubly Occupied:

       1A    -15.569616     2A    -15.549926     3A    -11.290602
       4A    -11.281939     5A    -11.281045     6A    -11.263923
       7A    -11.243019     8A    -11.242256     9A    -11.239487
      10A    -11.237619    11A    -11.235416    12A    -11.222796
      13A    -11.221061    14A     -1.262810    15A     -1.214463
      16A     -1.128135    17A     -1.089462    18A     -1.061612
      19A     -0.997535    20A     -0.980992    21A     -0.871466
      22A     -0.865238    23A     -0.818216    24A     -0.800182
      25A     -0.719363    26A     -0.691151    27A     -0.686630
      28A     -0.664868    29A     -0.650586    30A     -0.628116
      31A     -0.596210    32A     -0.590209    33A     -0.587692
      34A     -0.573395    35A     -0.550867    36A     -0.536448
      37A     -0.520333    38A     -0.501122    39A     -0.493815
      40A     -0.444929    41A     -0.420984    42A     -0.389524
      43A     -0.368991    44A     -0.318965    45A     -0.286318

  @DF-RHF Final Energy:  -531.45033561368678

   => Energetics <=

    Nuclear Repulsion Energy =            714.2086046953407958
    One-Electron Energy =               -2136.9392243388547286
    Two-Electron Energy =                 891.2802840298270439
    Total Energy =                       -531.4503356136867751
  Basis Set: (AUG-CC-PVTZ AUX)
    Blend: AUG-CC-PVTZ-RI
    Molecular point group: c1

    Geometry (in Angstrom), charge = 0, multiplicity = 1:

       Center              X                  Y                   Z               Mass
    ------------   -----------------  -----------------  -----------------  -----------------
         N            1.444157902651     0.922465651977    -0.557911710150    14.003074004430
         N           -0.909919297349     2.186296751977     0.512512389850    14.003074004430
         C           -0.643913097349    -0.208799348023    -0.053149710150    12.000000000000
         C            0.833754902651    -0.160725348023    -0.020782710150    12.000000000000
         C           -1.442012097349     0.938813651977     0.178370289850    12.000000000000
         C           -1.273494097349    -1.434072348023    -0.325172710150    12.000000000000
         C           -2.838685097349     0.790700651977     0.194005289850    12.000000000000
         C            1.569716902651    -1.216082348023     0.543185289850    12.000000000000
         C           -2.659914097349    -1.561671348023    -0.324887710150    12.000000000000
         C           -3.443580097349    -0.436195348023    -0.062494710150    12.000000000000
         C            2.960805902651    -1.175253348023     0.512266289850    12.000000000000
         C            3.587969902651    -0.069705348023    -0.061507710150    12.000000000000
         C            2.787691902651     0.953705651977    -0.567176710150    12.000000000000
         H           -0.654571097349    -2.298647348023    -0.557785710150     1.007825032230
         H           -3.454423097349     1.667509651977     0.390852289850     1.007825032230
         H            1.049199902651    -2.045398348023     1.013186289850     1.007825032230
         H           -3.122477097349    -2.519560348023    -0.547467710150     1.007825032230
         H           -4.528720097349    -0.511000348023    -0.054563710150     1.007825032230
         H            3.545293902651    -1.984513348023     0.943567289850     1.007825032230
         H            0.022987902651     2.313677651977     0.031957289850     1.007825032230
         H           -1.498588097349     2.949688651977     0.371167289850     1.007825032230
         H            4.670607902651     0.008318651977    -0.103947710150     1.007825032230
         H            3.235369902651     1.843622651977    -1.006854710150     1.007825032230

  Basis Set: AUG-CC-PVTZ
    Blend: AUG-CC-PVTZ
  Basis Set: (AUG-CC-PVTZ AUX)
    Blend: AUG-CC-PVTZ-JKFIT
	 Reference Energy          =    -531.4503356136867751 [Eh]
	 Singles Energy            =      -0.0000000000000000 [Eh]
	 Same-Spin Energy          =      -0.5965368322780078 [Eh]
	 Opposite-Spin Energy      =      -1.8208162128923986 [Eh]
	 Correlation Energy        =      -2.4173530451704064 [Eh]
	 Total Energy              =    -533.8676886588572188 [Eh]

	 ================> DF-SCS-MP2 Energies <==================
	-----------------------------------------------------------
	 SCS Same-Spin Scale       =       0.3333333333333333 [-]
	 SCS Opposite-Spin Scale   =       1.2000000000000000 [-]
	 SCS Same-Spin Energy      =      -0.1988456107593359 [Eh]
	 SCS Opposite-Spin Energy  =      -2.1849794554708781 [Eh]
	 SCS Correlation Energy    =      -2.3838250662302141 [Eh]
	 SCS Total Energy          =    -533.8341606799169767 [Eh]
	-----------------------------------------------------------

  Dipole Moment: [D]
     X:     1.5927      Y:    -0.4447      Z:     0.0027     Total:     1.6536

*** Psi4 exiting successfully. Buy a developer a beer!
