                               Psi4 1.3.2 release

  ==> Input File <==

--------------------------------------------------------------------------
#psi4
#
memory 32 gb

molecule  {
0 1
  N        1.4447430     0.9271060    -0.5600120
  N       -0.8646290     2.1728000     0.5033790
  C       -0.6433280    -0.2041590    -0.0552500
  C        0.9634105    -0.0957755    -0.0592893
  C       -1.4414270     0.9434540     0.1762700
  C       -1.2729090    -1.4294320    -0.3272730
  C       -2.8381000     0.7953410     0.1919050
  C        1.5703020    -1.2114420     0.5410850
  C       -2.6593290    -1.5570310    -0.3269880
  C       -3.4429950    -0.4315550    -0.0645950
  C        2.9613910    -1.1706130     0.5101660
  C        3.5885550    -0.0650650    -0.0636080
  C        2.7882770     0.9583460    -0.5692770
  H       -0.6539860    -2.2940070    -0.5598860
  H       -3.4538380     1.6721500     0.3887520
  H        1.0497850    -2.0407580     1.0110860
  H       -3.1218920    -2.5149200    -0.5495680
  H       -4.5281350    -0.5063600    -0.0566640
  H        3.5458790    -1.9798730     0.9414670
  H        0.0235730     2.3183180     0.0298570
  H       -1.4980030     2.9543290     0.3690670
  H        4.6711930     0.0129590    -0.1060480
  H        3.2359550     1.8482630    -1.0089550
units angstrom
no_reorient  #important for SAPT in psi4, default
symmetry c1  #important for SAPT in psi4, default
}

set PROPERTIES_ORIGIN ["COM"]
properties('MP2/aug-cc-pvtz', properties = ['dipole'])
--------------------------------------------------------------------------

    Molecular point group: c1
  Charge       = 0
  Multiplicity = 1
  Basis Set: AUG-CC-PVTZ
    Blend: AUG-CC-PVTZ
  Basis Set: (AUG-CC-PVTZ AUX)
    Blend: AUG-CC-PVTZ-JKFIT

    Orbital Energies [Eh]
    ---------------------

    Doubly Occupied:

       1A    -15.566238     2A    -15.548416     3A    -11.288329
       4A    -11.285224     5A    -11.274055     6A    -11.265271
       7A    -11.245978     8A    -11.244961     9A    -11.234641
      10A    -11.233458    11A    -11.232492    12A    -11.219871
      13A    -11.217692    14A     -1.305224    15A     -1.211398
      16A     -1.121069    17A     -1.102628    18A     -1.050872
      19A     -0.995875    20A     -0.975421    21A     -0.880279
      22A     -0.858723    23A     -0.815732    24A     -0.797949
      25A     -0.721641    26A     -0.690563    27A     -0.680741
      28A     -0.665817    29A     -0.656683    30A     -0.626201
      31A     -0.590703    32A     -0.587872    33A     -0.583649
      34A     -0.575152    35A     -0.569058    36A     -0.533123
      37A     -0.521140    38A     -0.498802    39A     -0.490142
      40A     -0.441237    41A     -0.414975    42A     -0.402780
      43A     -0.361032    44A     -0.320914    45A     -0.285535

  @DF-RHF Final Energy:  -531.43288229037569

   => Energetics <=

    Nuclear Repulsion Energy =            715.0369216853886201
    One-Electron Energy =               -2138.5604976002528019
    Two-Electron Energy =                 892.0906936244883809
    Total Energy =                       -531.4328822903756873
  Basis Set: (AUG-CC-PVTZ AUX)
    Blend: AUG-CC-PVTZ-RI
    Molecular point group: c1

    Geometry (in Angstrom), charge = 0, multiplicity = 1:

       Center              X                  Y                   Z               Mass
    ------------   -----------------  -----------------  -----------------  -----------------
         N            1.431370978951     0.919703853416    -0.554764092702    14.003074004430
         N           -0.878001021049     2.165397853416     0.508626907298    14.003074004430
         C           -0.656700021049    -0.211561146584    -0.050002092702    12.000000000000
         C            0.950038478951    -0.103177646584    -0.054041392702    12.000000000000
         C           -1.454799021049     0.936051853416     0.181517907298    12.000000000000
         C           -1.286281021049    -1.436834146584    -0.322025092702    12.000000000000
         C           -2.851472021049     0.787938853416     0.197152907298    12.000000000000
         C            1.556929978951    -1.218844146584     0.546332907298    12.000000000000
         C           -2.672701021049    -1.564433146584    -0.321740092702    12.000000000000
         C           -3.456367021049    -0.438957146584    -0.059347092702    12.000000000000
         C            2.948018978951    -1.178015146584     0.515413907298    12.000000000000
         C            3.575182978951    -0.072467146584    -0.058360092702    12.000000000000
         C            2.774904978951     0.950943853416    -0.564029092702    12.000000000000
         H           -0.667358021049    -2.301409146584    -0.554638092702     1.007825032230
         H           -3.467210021049     1.664747853416     0.393999907298     1.007825032230
         H            1.036412978951    -2.048160146584     1.016333907298     1.007825032230
         H           -3.135264021049    -2.522322146584    -0.544320092702     1.007825032230
         H           -4.541507021049    -0.513762146584    -0.051416092702     1.007825032230
         H            3.532506978951    -1.987275146584     0.946714907298     1.007825032230
         H            0.010200978951     2.310915853416     0.035104907298     1.007825032230
         H           -1.511375021049     2.946926853416     0.374314907298     1.007825032230
         H            4.657820978951     0.005556853416    -0.100800092702     1.007825032230
         H            3.222582978951     1.840860853416    -1.003707092702     1.007825032230

  Basis Set: AUG-CC-PVTZ
    Blend: AUG-CC-PVTZ
  Basis Set: (AUG-CC-PVTZ AUX)
    Blend: AUG-CC-PVTZ-JKFIT
	 Reference Energy          =    -531.4328822903756873 [Eh]
	 Singles Energy            =      -0.0000000000000000 [Eh]
	 Same-Spin Energy          =      -0.5946748158102773 [Eh]
	 Opposite-Spin Energy      =      -1.8181487130988980 [Eh]
	 Correlation Energy        =      -2.4128235289091755 [Eh]
	 Total Energy              =    -533.8457058192848308 [Eh]

	 ================> DF-SCS-MP2 Energies <==================
	-----------------------------------------------------------
	 SCS Same-Spin Scale       =       0.3333333333333333 [-]
	 SCS Opposite-Spin Scale   =       1.2000000000000000 [-]
	 SCS Same-Spin Energy      =      -0.1982249386034257 [Eh]
	 SCS Opposite-Spin Energy  =      -2.1817784557186775 [Eh]
	 SCS Correlation Energy    =      -2.3800033943221033 [Eh]
	 SCS Total Energy          =    -533.8128856846977897 [Eh]
	-----------------------------------------------------------

  Dipole Moment: [D]
     X:     2.0642      Y:    -0.3984      Z:    -0.0142     Total:     2.1023

*** Psi4 exiting successfully. Buy a developer a beer!
