                               Psi4 1.3.2 release

  ==> Input File <==

--------------------------------------------------------------------------
#psi4
#
memory 32 gb

molecule  {
0 1
  N        1.4447430     0.9271060    -0.5600120
  N       -0.8646290     2.1728000     0.5033790
  C       -0.6433280    -0.2041590    -0.0552500
  C        0.6344936    -0.1625867    -0.0272605
  C       -1.4414270     0.9434540     0.1762700
  C       -1.2729090    -1.4294320    -0.3272730
  C       -2.8381000     0.7953410     0.1919050
  C        1.5703020    -1.2114420     0.5410850
  C       -2.6593290    -1.5570310    -0.3269880
  C       -3.4429950    -0.4315550    -0.0645950
  C        2.9613910    -1.1706130     0.5101660
  C        3.5885550    -0.0650650    -0.0636080
  C        2.7882770     0.9583460    -0.5692770
  H       -0.6539860    -2.2940070    -0.5598860
  H       -3.4538380     1.6721500     0.3887520
  H        1.0497850    -2.0407580     1.0110860
  H       -3.1218920    -2.5149200    -0.5495680
  H       -4.5281350    -0.5063600    -0.0566640
  H        3.5458790    -1.9798730     0.9414670
  H        0.0235730     2.3183180     0.0298570
  H       -1.4980030     2.9543290     0.3690670
  H        4.6711930     0.0129590    -0.1060480
  H        3.2359550     1.8482630    -1.0089550
units angstrom
no_reorient  #important for SAPT in psi4, default
symmetry c1  #important for SAPT in psi4, default
}

set PROPERTIES_ORIGIN ["COM"]
properties('MP2/aug-cc-pvtz', properties = ['dipole'])
--------------------------------------------------------------------------

    Molecular point group: c1
  Charge       = 0
  Multiplicity = 1
  Basis Set: AUG-CC-PVTZ
    Blend: AUG-CC-PVTZ
  Basis Set: (AUG-CC-PVTZ AUX)
    Blend: AUG-CC-PVTZ-JKFIT

    Orbital Energies [Eh]
    ---------------------

    Doubly Occupied:

       1A    -15.563016     2A    -15.559304     3A    -11.297012
       4A    -11.294679     5A    -11.273549     6A    -11.255301
       7A    -11.251559     8A    -11.251049     9A    -11.246811
      10A    -11.233712    11A    -11.232236    12A    -11.229526
      13A    -11.225868    14A     -1.244206    15A     -1.209684
      16A     -1.144962    17A     -1.086386    18A     -1.069278
      19A     -1.000671    20A     -0.980428    21A     -0.893096
      22A     -0.851922    23A     -0.816925    24A     -0.797392
      25A     -0.728808    26A     -0.697812    27A     -0.690723
      28A     -0.671193    29A     -0.638714    30A     -0.627127
      31A     -0.604396    32A     -0.595260    33A     -0.591688
      34A     -0.571209    35A     -0.545036    36A     -0.536497
      37A     -0.517151    38A     -0.508269    39A     -0.502479
      40A     -0.453878    41A     -0.400202    42A     -0.380600
      43A     -0.368405    44A     -0.317030    45A     -0.277617

  @DF-RHF Final Energy:  -531.38508015691002

   => Energetics <=

    Nuclear Repulsion Energy =            715.0943697796432161
    One-Electron Energy =               -2138.4935655335953015
    Two-Electron Energy =                 892.0141155970419504
    Total Energy =                       -531.3850801569100213
  Basis Set: (AUG-CC-PVTZ AUX)
    Blend: AUG-CC-PVTZ-RI
    Molecular point group: c1

    Geometry (in Angstrom), charge = 0, multiplicity = 1:

       Center              X                  Y                   Z               Mass
    ------------   -----------------  -----------------  -----------------  -----------------
         N            1.454577121541     0.924417597933    -0.557023827303    14.003074004430
         N           -0.854794878459     2.170111597933     0.506367172697    14.003074004430
         C           -0.633493878459    -0.206847402067    -0.052261827303    12.000000000000
         C            0.644327721541    -0.165275102067    -0.024272327303    12.000000000000
         C           -1.431592878459     0.940765597933     0.179258172697    12.000000000000
         C           -1.263074878459    -1.432120402067    -0.324284827303    12.000000000000
         C           -2.828265878459     0.792652597933     0.194893172697    12.000000000000
         C            1.580136121541    -1.214130402067     0.544073172697    12.000000000000
         C           -2.649494878459    -1.559719402067    -0.323999827303    12.000000000000
         C           -3.433160878459    -0.434243402067    -0.061606827303    12.000000000000
         C            2.971225121541    -1.173301402067     0.513154172697    12.000000000000
         C            3.598389121541    -0.067753402067    -0.060619827303    12.000000000000
         C            2.798111121541     0.955657597933    -0.566288827303    12.000000000000
         H           -0.644151878459    -2.296695402067    -0.556897827303     1.007825032230
         H           -3.444003878459     1.669461597933     0.391740172697     1.007825032230
         H            1.059619121541    -2.043446402067     1.014074172697     1.007825032230
         H           -3.112057878459    -2.517608402067    -0.546579827303     1.007825032230
         H           -4.518300878459    -0.509048402067    -0.053675827303     1.007825032230
         H            3.555713121541    -1.982561402067     0.944455172697     1.007825032230
         H            0.033407121541     2.315629597933     0.032845172697     1.007825032230
         H           -1.488168878459     2.951640597933     0.372055172697     1.007825032230
         H            4.681027121541     0.010270597933    -0.103059827303     1.007825032230
         H            3.245789121541     1.845574597933    -1.005966827303     1.007825032230

  Basis Set: AUG-CC-PVTZ
    Blend: AUG-CC-PVTZ
  Basis Set: (AUG-CC-PVTZ AUX)
    Blend: AUG-CC-PVTZ-JKFIT
	 Reference Energy          =    -531.3850801569100213 [Eh]
	 Singles Energy            =      -0.0000000000000000 [Eh]
	 Same-Spin Energy          =      -0.6022221778834209 [Eh]
	 Opposite-Spin Energy      =      -1.8302344839257259 [Eh]
	 Correlation Energy        =      -2.4324566618091468 [Eh]
	 Total Energy              =    -533.8175368187191907 [Eh]

	 ================> DF-SCS-MP2 Energies <==================
	-----------------------------------------------------------
	 SCS Same-Spin Scale       =       0.3333333333333333 [-]
	 SCS Opposite-Spin Scale   =       1.2000000000000000 [-]
	 SCS Same-Spin Energy      =      -0.2007407259611403 [Eh]
	 SCS Opposite-Spin Energy  =      -2.1962813807108708 [Eh]
	 SCS Correlation Energy    =      -2.3970221066720110 [Eh]
	 SCS Total Energy          =    -533.7821022635820327 [Eh]
	-----------------------------------------------------------

  Dipole Moment: [D]
     X:     0.5232      Y:    -0.3642      Z:     0.0242     Total:     0.6379

*** Psi4 exiting successfully. Buy a developer a beer!
