                               Psi4 1.3.2 release

  ==> Input File <==

--------------------------------------------------------------------------
#psi4
#
memory 32 gb

molecule  {
0 1
  N        1.4447430     0.9271060    -0.5600120
  N       -0.8646290     2.1728000     0.5033790
  C       -0.6433280    -0.2041590    -0.0552500
  C        0.8343400    -0.1560850    -0.0228830
  C       -1.4414270     0.9434540     0.1762700
  C       -1.2729090    -1.4294320    -0.3272730
  C       -2.8381000     0.7953410     0.1919050
  C        1.6750798    -1.3616916     0.6213763
  C       -2.6593290    -1.5570310    -0.3269880
  C       -3.4429950    -0.4315550    -0.0645950
  C        2.9613910    -1.1706130     0.5101660
  C        3.5885550    -0.0650650    -0.0636080
  C        2.7882770     0.9583460    -0.5692770
  H       -0.6539860    -2.2940070    -0.5598860
  H       -3.4538380     1.6721500     0.3887520
  H        1.0497850    -2.0407580     1.0110860
  H       -3.1218920    -2.5149200    -0.5495680
  H       -4.5281350    -0.5063600    -0.0566640
  H        3.5458790    -1.9798730     0.9414670
  H        0.0235730     2.3183180     0.0298570
  H       -1.4980030     2.9543290     0.3690670
  H        4.6711930     0.0129590    -0.1060480
  H        3.2359550     1.8482630    -1.0089550
units angstrom
no_reorient  #important for SAPT in psi4, default
symmetry c1  #important for SAPT in psi4, default
}

set PROPERTIES_ORIGIN ["COM"]
properties('MP2/aug-cc-pvtz', properties = ['dipole'])
--------------------------------------------------------------------------

    Molecular point group: c1
  Charge       = 0
  Multiplicity = 1
  Basis Set: AUG-CC-PVTZ
    Blend: AUG-CC-PVTZ
  Basis Set: (AUG-CC-PVTZ AUX)
    Blend: AUG-CC-PVTZ-JKFIT

    Orbital Energies [Eh]
    ---------------------

    Doubly Occupied:

       1A    -15.567941     2A    -15.553672     3A    -11.310461
       4A    -11.285504     5A    -11.278098     6A    -11.249155
       7A    -11.244713     8A    -11.243972     9A    -11.242433
      10A    -11.238998    11A    -11.237856    12A    -11.227334
      13A    -11.224730    14A     -1.256474    15A     -1.216217
      16A     -1.130862    17A     -1.099040    18A     -1.053618
      19A     -0.998490    20A     -0.983187    21A     -0.881253
      22A     -0.851361    23A     -0.822103    24A     -0.796558
      25A     -0.716176    26A     -0.699337    27A     -0.686895
      28A     -0.682828    29A     -0.650106    30A     -0.622889
      31A     -0.599142    32A     -0.590821    33A     -0.589488
      34A     -0.555085    35A     -0.553682    36A     -0.541463
      37A     -0.522293    38A     -0.506818    39A     -0.497665
      40A     -0.448011    41A     -0.407794    42A     -0.402316
      43A     -0.361873    44A     -0.316176    45A     -0.286854

  @DF-RHF Final Energy:  -531.41380867608086

   => Energetics <=

    Nuclear Repulsion Energy =            711.6032618023531313
    One-Electron Energy =               -2131.5706599655154605
    Two-Electron Energy =                 888.5535894870813536
    Total Energy =                       -531.4138086760808619
  Basis Set: (AUG-CC-PVTZ AUX)
    Blend: AUG-CC-PVTZ-RI
    Molecular point group: c1

    Geometry (in Angstrom), charge = 0, multiplicity = 1:

       Center              X                  Y                   Z               Mass
    ------------   -----------------  -----------------  -----------------  -----------------
         N            1.433084906877     0.934559473478    -0.562997482794    14.003074004430
         N           -0.876287093123     2.180253473478     0.500393517206    14.003074004430
         C           -0.654986093123    -0.196705526522    -0.058235482794    12.000000000000
         C            0.822681906877    -0.148631526522    -0.025868482794    12.000000000000
         C           -1.453085093123     0.950907473478     0.173284517206    12.000000000000
         C           -1.284567093123    -1.421978526522    -0.330258482794    12.000000000000
         C           -2.849758093123     0.802794473478     0.188919517206    12.000000000000
         C            1.663421706877    -1.354238126522     0.618390817206    12.000000000000
         C           -2.670987093123    -1.549577526522    -0.329973482794    12.000000000000
         C           -3.454653093123    -0.424101526522    -0.067580482794    12.000000000000
         C            2.949732906877    -1.163159526522     0.507180517206    12.000000000000
         C            3.576896906877    -0.057611526522    -0.066593482794    12.000000000000
         C            2.776618906877     0.965799473478    -0.572262482794    12.000000000000
         H           -0.665644093123    -2.286553526522    -0.562871482794     1.007825032230
         H           -3.465496093123     1.679603473478     0.385766517206     1.007825032230
         H            1.038126906877    -2.033304526522     1.008100517206     1.007825032230
         H           -3.133550093123    -2.507466526522    -0.552553482794     1.007825032230
         H           -4.539793093123    -0.498906526522    -0.059649482794     1.007825032230
         H            3.534220906877    -1.972419526522     0.938481517206     1.007825032230
         H            0.011914906877     2.325771473478     0.026871517206     1.007825032230
         H           -1.509661093123     2.961782473478     0.366081517206     1.007825032230
         H            4.659534906877     0.020412473478    -0.109033482794     1.007825032230
         H            3.224296906877     1.855716473478    -1.011940482794     1.007825032230

  Basis Set: AUG-CC-PVTZ
    Blend: AUG-CC-PVTZ
  Basis Set: (AUG-CC-PVTZ AUX)
    Blend: AUG-CC-PVTZ-JKFIT
	 Reference Energy          =    -531.4138086760808619 [Eh]
	 Singles Energy            =      -0.0000000000000000 [Eh]
	 Same-Spin Energy          =      -0.5958110086014843 [Eh]
	 Opposite-Spin Energy      =      -1.8220825712341313 [Eh]
	 Correlation Energy        =      -2.4178935798356154 [Eh]
	 Total Energy              =    -533.8317022559165252 [Eh]

	 ================> DF-SCS-MP2 Energies <==================
	-----------------------------------------------------------
	 SCS Same-Spin Scale       =       0.3333333333333333 [-]
	 SCS Opposite-Spin Scale   =       1.2000000000000000 [-]
	 SCS Same-Spin Energy      =      -0.1986036695338281 [Eh]
	 SCS Opposite-Spin Energy  =      -2.1864990854809574 [Eh]
	 SCS Correlation Energy    =      -2.3851027550147856 [Eh]
	 SCS Total Energy          =    -533.7989114310956893 [Eh]
	-----------------------------------------------------------

  Dipole Moment: [D]
     X:     1.1787      Y:    -0.3583      Z:    -0.0008     Total:     1.2320

*** Psi4 exiting successfully. Buy a developer a beer!
