                               Psi4 1.3.2 release

  ==> Input File <==

--------------------------------------------------------------------------
#psi4
#
memory 32 gb

molecule  {
0 1
  N        1.4447430     0.9271060    -0.5600120
  N       -0.8646290     2.1728000     0.5033790
  C       -0.6029828    -0.1758212    -0.0513557
  C        0.8343400    -0.1560850    -0.0228830
  C       -1.4414270     0.9434540     0.1762700
  C       -1.2729090    -1.4294320    -0.3272730
  C       -2.8381000     0.7953410     0.1919050
  C        1.5703020    -1.2114420     0.5410850
  C       -2.6593290    -1.5570310    -0.3269880
  C       -3.4429950    -0.4315550    -0.0645950
  C        2.9613910    -1.1706130     0.5101660
  C        3.5885550    -0.0650650    -0.0636080
  C        2.7882770     0.9583460    -0.5692770
  H       -0.6539860    -2.2940070    -0.5598860
  H       -3.4538380     1.6721500     0.3887520
  H        1.0497850    -2.0407580     1.0110860
  H       -3.1218920    -2.5149200    -0.5495680
  H       -4.5281350    -0.5063600    -0.0566640
  H        3.5458790    -1.9798730     0.9414670
  H        0.0235730     2.3183180     0.0298570
  H       -1.4980030     2.9543290     0.3690670
  H        4.6711930     0.0129590    -0.1060480
  H        3.2359550     1.8482630    -1.0089550
units angstrom
no_reorient  #important for SAPT in psi4, default
symmetry c1  #important for SAPT in psi4, default
}

set PROPERTIES_ORIGIN ["COM"]
properties('MP2/aug-cc-pvtz', properties = ['dipole'])
--------------------------------------------------------------------------

    Molecular point group: c1
  Charge       = 0
  Multiplicity = 1
  Basis Set: AUG-CC-PVTZ
    Blend: AUG-CC-PVTZ
  Basis Set: (AUG-CC-PVTZ AUX)
    Blend: AUG-CC-PVTZ-JKFIT

    Orbital Energies [Eh]
    ---------------------

    Doubly Occupied:

       1A    -15.567770     2A    -15.549831     3A    -11.287573
       4A    -11.281928     5A    -11.280888     6A    -11.263320
       7A    -11.244120     8A    -11.242221     9A    -11.242010
      10A    -11.240124    11A    -11.234794    12A    -11.225352
      13A    -11.222350    14A     -1.263491    15A     -1.213764
      16A     -1.124593    17A     -1.088913    18A     -1.065035
      19A     -0.994711    20A     -0.980600    21A     -0.875637
      22A     -0.865000    23A     -0.816985    24A     -0.798194
      25A     -0.719736    26A     -0.690486    27A     -0.685440
      28A     -0.665350    29A     -0.653301    30A     -0.627207
      31A     -0.597744    32A     -0.593220    33A     -0.581578
      34A     -0.573938    35A     -0.551074    36A     -0.536489
      37A     -0.518913    38A     -0.501376    39A     -0.495068
      40A     -0.443902    41A     -0.421828    42A     -0.389243
      43A     -0.369333    44A     -0.316246    45A     -0.285847

  @DF-RHF Final Energy:  -531.44911963998800

   => Energetics <=

    Nuclear Repulsion Energy =            714.7573743185224657
    One-Electron Energy =               -2138.0399395702579568
    Two-Electron Energy =                 891.8334456117473792
    Total Energy =                       -531.4491196399879982
  Basis Set: (AUG-CC-PVTZ AUX)
    Blend: AUG-CC-PVTZ-RI
    Molecular point group: c1

    Geometry (in Angstrom), charge = 0, multiplicity = 1:

       Center              X                  Y                   Z               Mass
    ------------   -----------------  -----------------  -----------------  -----------------
         N            1.437630833532     0.921959559429    -0.557607429333    14.003074004430
         N           -0.871741166468     2.167653559429     0.505783570667    14.003074004430
         C           -0.610094966468    -0.180967640571    -0.048951129333    12.000000000000
         C            0.827227833532    -0.161231440571    -0.020478429333    12.000000000000
         C           -1.448539166468     0.938307559429     0.178674570667    12.000000000000
         C           -1.280021166468    -1.434578440571    -0.324868429333    12.000000000000
         C           -2.845212166468     0.790194559429     0.194309570667    12.000000000000
         C            1.563189833532    -1.216588440571     0.543489570667    12.000000000000
         C           -2.666441166468    -1.562177440571    -0.324583429333    12.000000000000
         C           -3.450107166468    -0.436701440571    -0.062190429333    12.000000000000
         C            2.954278833532    -1.175759440571     0.512570570667    12.000000000000
         C            3.581442833532    -0.070211440571    -0.061203429333    12.000000000000
         C            2.781164833532     0.953199559429    -0.566872429333    12.000000000000
         H           -0.661098166468    -2.299153440571    -0.557481429333     1.007825032230
         H           -3.460950166468     1.667003559429     0.391156570667     1.007825032230
         H            1.042672833532    -2.045904440571     1.013490570667     1.007825032230
         H           -3.129004166468    -2.520066440571    -0.547163429333     1.007825032230
         H           -4.535247166468    -0.511506440571    -0.054259429333     1.007825032230
         H            3.538766833532    -1.985019440571     0.943871570667     1.007825032230
         H            0.016460833532     2.313171559429     0.032261570667     1.007825032230
         H           -1.505115166468     2.949182559429     0.371471570667     1.007825032230
         H            4.664080833532     0.007812559429    -0.103643429333     1.007825032230
         H            3.228842833532     1.843116559429    -1.006550429333     1.007825032230

  Basis Set: AUG-CC-PVTZ
    Blend: AUG-CC-PVTZ
  Basis Set: (AUG-CC-PVTZ AUX)
    Blend: AUG-CC-PVTZ-JKFIT
	 Reference Energy          =    -531.4491196399879982 [Eh]
	 Singles Energy            =      -0.0000000000000000 [Eh]
	 Same-Spin Energy          =      -0.5970673452818176 [Eh]
	 Opposite-Spin Energy      =      -1.8217989289259400 [Eh]
	 Correlation Energy        =      -2.4188662742077573 [Eh]
	 Total Energy              =    -533.8679859141957422 [Eh]

	 ================> DF-SCS-MP2 Energies <==================
	-----------------------------------------------------------
	 SCS Same-Spin Scale       =       0.3333333333333333 [-]
	 SCS Opposite-Spin Scale   =       1.2000000000000000 [-]
	 SCS Same-Spin Energy      =      -0.1990224484272725 [Eh]
	 SCS Opposite-Spin Energy  =      -2.1861587147111279 [Eh]
	 SCS Correlation Energy    =      -2.3851811631384003 [Eh]
	 SCS Total Energy          =    -533.8343008031264390 [Eh]
	-----------------------------------------------------------

  Dipole Moment: [D]
     X:     1.4699      Y:    -0.4294      Z:     0.0187     Total:     1.5314

*** Psi4 exiting successfully. Buy a developer a beer!
