                               Psi4 1.3.2 release

  ==> Input File <==

--------------------------------------------------------------------------
#psi4
#
memory 32 gb

molecule  {
0 1
  N        1.4447430     0.9271060    -0.5600120
  N       -0.8206265     2.1531651     0.4959474
  C       -0.6433280    -0.2041590    -0.0552500
  C        0.8343400    -0.1560850    -0.0228830
  C       -1.4414270     0.9434540     0.1762700
  C       -1.2729090    -1.4294320    -0.3272730
  C       -2.8381000     0.7953410     0.1919050
  C        1.5703020    -1.2114420     0.5410850
  C       -2.6593290    -1.5570310    -0.3269880
  C       -3.4429950    -0.4315550    -0.0645950
  C        2.9613910    -1.1706130     0.5101660
  C        3.5885550    -0.0650650    -0.0636080
  C        2.7882770     0.9583460    -0.5692770
  H       -0.6539860    -2.2940070    -0.5598860
  H       -3.4538380     1.6721500     0.3887520
  H        1.0497850    -2.0407580     1.0110860
  H       -3.1218920    -2.5149200    -0.5495680
  H       -4.5281350    -0.5063600    -0.0566640
  H        3.5458790    -1.9798730     0.9414670
  H        0.0235730     2.3183180     0.0298570
  H       -1.4980030     2.9543290     0.3690670
  H        4.6711930     0.0129590    -0.1060480
  H        3.2359550     1.8482630    -1.0089550
units angstrom
no_reorient  #important for SAPT in psi4, default
symmetry c1  #important for SAPT in psi4, default
}

set PROPERTIES_ORIGIN ["COM"]
properties('MP2/aug-cc-pvtz', properties = ['dipole'])
--------------------------------------------------------------------------

    Molecular point group: c1
  Charge       = 0
  Multiplicity = 1
  Basis Set: AUG-CC-PVTZ
    Blend: AUG-CC-PVTZ
  Basis Set: (AUG-CC-PVTZ AUX)
    Blend: AUG-CC-PVTZ-JKFIT

    Orbital Energies [Eh]
    ---------------------

    Doubly Occupied:

       1A    -15.568148     2A    -15.552062     3A    -11.289596
       4A    -11.281128     5A    -11.280916     6A    -11.263103
       7A    -11.242453     8A    -11.241812     9A    -11.238928
      10A    -11.238811    11A    -11.233875    12A    -11.225267
      13A    -11.221526    14A     -1.262395    15A     -1.214217
      16A     -1.128110    17A     -1.088596    18A     -1.061229
      19A     -0.998211    20A     -0.980937    21A     -0.871834
      22A     -0.863927    23A     -0.816101    24A     -0.801957
      25A     -0.719031    26A     -0.695390    27A     -0.679785
      28A     -0.661909    29A     -0.655289    30A     -0.627043
      31A     -0.598396    32A     -0.591210    33A     -0.582434
      34A     -0.574159    35A     -0.550628    36A     -0.536874
      37A     -0.519928    38A     -0.501918    39A     -0.493236
      40A     -0.445677    41A     -0.420728    42A     -0.388519
      43A     -0.368401    44A     -0.319386    45A     -0.287136

  @DF-RHF Final Energy:  -531.44994461129966

   => Energetics <=

    Nuclear Repulsion Energy =            715.1129572563235115
    One-Electron Energy =               -2138.7613691200185713
    Two-Electron Energy =                 892.1984672523952895
    Total Energy =                       -531.4499446112996566
  Basis Set: (AUG-CC-PVTZ AUX)
    Blend: AUG-CC-PVTZ-RI
    Molecular point group: c1

    Geometry (in Angstrom), charge = 0, multiplicity = 1:

       Center              X                  Y                   Z               Mass
    ------------   -----------------  -----------------  -----------------  -----------------
         N            1.436854584416     0.925575426398    -0.556720829231    14.003074004430
         N           -0.828514915584     2.151634526398     0.499238570769    14.003074004430
         C           -0.651216415584    -0.205689573602    -0.051958829231    12.000000000000
         C            0.826451584416    -0.157615573602    -0.019591829231    12.000000000000
         C           -1.449315415584     0.941923426398     0.179561170769    12.000000000000
         C           -1.280797415584    -1.430962573602    -0.323981829231    12.000000000000
         C           -2.845988415584     0.793810426398     0.195196170769    12.000000000000
         C            1.562413584416    -1.212972573602     0.544376170769    12.000000000000
         C           -2.667217415584    -1.558561573602    -0.323696829231    12.000000000000
         C           -3.450883415584    -0.433085573602    -0.061303829231    12.000000000000
         C            2.953502584416    -1.172143573602     0.513457170769    12.000000000000
         C            3.580666584416    -0.066595573602    -0.060316829231    12.000000000000
         C            2.780388584416     0.956815426398    -0.565985829231    12.000000000000
         H           -0.661874415584    -2.295537573602    -0.556594829231     1.007825032230
         H           -3.461726415584     1.670619426398     0.392043170769     1.007825032230
         H            1.041896584416    -2.042288573602     1.014377170769     1.007825032230
         H           -3.129780415584    -2.516450573602    -0.546276829231     1.007825032230
         H           -4.536023415584    -0.507890573602    -0.053372829231     1.007825032230
         H            3.537990584416    -1.981403573602     0.944758170769     1.007825032230
         H            0.015684584416     2.316787426398     0.033148170769     1.007825032230
         H           -1.505891415584     2.952798426398     0.372358170769     1.007825032230
         H            4.663304584416     0.011428426398    -0.102756829231     1.007825032230
         H            3.228066584416     1.846732426398    -1.005663829231     1.007825032230

  Basis Set: AUG-CC-PVTZ
    Blend: AUG-CC-PVTZ
  Basis Set: (AUG-CC-PVTZ AUX)
    Blend: AUG-CC-PVTZ-JKFIT
	 Reference Energy          =    -531.4499446112996566 [Eh]
	 Singles Energy            =      -0.0000000000000000 [Eh]
	 Same-Spin Energy          =      -0.5965904096613168 [Eh]
	 Opposite-Spin Energy      =      -1.8210607413716444 [Eh]
	 Correlation Energy        =      -2.4176511510329615 [Eh]
	 Total Energy              =    -533.8675957623325985 [Eh]

	 ================> DF-SCS-MP2 Energies <==================
	-----------------------------------------------------------
	 SCS Same-Spin Scale       =       0.3333333333333333 [-]
	 SCS Opposite-Spin Scale   =       1.2000000000000000 [-]
	 SCS Same-Spin Energy      =      -0.1988634698871056 [Eh]
	 SCS Opposite-Spin Energy  =      -2.1852728896459732 [Eh]
	 SCS Correlation Energy    =      -2.3841363595330787 [Eh]
	 SCS Total Energy          =    -533.8340809708327015 [Eh]
	-----------------------------------------------------------

  Dipole Moment: [D]
     X:     1.4620      Y:    -0.4087      Z:     0.0219     Total:     1.5182

*** Psi4 exiting successfully. Buy a developer a beer!
