                               Psi4 1.3.2 release

  ==> Input File <==

--------------------------------------------------------------------------
#psi4
#
memory 32 gb

molecule  {
0 1
  N        1.4447430     0.9271060    -0.5600120
  N       -0.8646290     2.1728000     0.5033790
  C       -0.6433280    -0.2041590    -0.0552500
  C        0.7514885    -0.1154974    -0.0435059
  C       -1.4414270     0.9434540     0.1762700
  C       -1.2729090    -1.4294320    -0.3272730
  C       -2.8381000     0.7953410     0.1919050
  C        1.5703020    -1.2114420     0.5410850
  C       -2.6593290    -1.5570310    -0.3269880
  C       -3.4429950    -0.4315550    -0.0645950
  C        2.9613910    -1.1706130     0.5101660
  C        3.5885550    -0.0650650    -0.0636080
  C        2.7882770     0.9583460    -0.5692770
  H       -0.6539860    -2.2940070    -0.5598860
  H       -3.4538380     1.6721500     0.3887520
  H        1.0497850    -2.0407580     1.0110860
  H       -3.1218920    -2.5149200    -0.5495680
  H       -4.5281350    -0.5063600    -0.0566640
  H        3.5458790    -1.9798730     0.9414670
  H        0.0235730     2.3183180     0.0298570
  H       -1.4980030     2.9543290     0.3690670
  H        4.6711930     0.0129590    -0.1060480
  H        3.2359550     1.8482630    -1.0089550
units angstrom
no_reorient  #important for SAPT in psi4, default
symmetry c1  #important for SAPT in psi4, default
}

set PROPERTIES_ORIGIN ["COM"]
properties('MP2/aug-cc-pvtz', properties = ['dipole'])
--------------------------------------------------------------------------

    Molecular point group: c1
  Charge       = 0
  Multiplicity = 1
  Basis Set: AUG-CC-PVTZ
    Blend: AUG-CC-PVTZ
  Basis Set: (AUG-CC-PVTZ AUX)
    Blend: AUG-CC-PVTZ-JKFIT

    Orbital Energies [Eh]
    ---------------------

    Doubly Occupied:

       1A    -15.565166     2A    -15.554604     3A    -11.294800
       4A    -11.285427     5A    -11.277874     6A    -11.258538
       7A    -11.246846     8A    -11.244676     9A    -11.243133
      10A    -11.239702    11A    -11.232208    12A    -11.227079
      13A    -11.224854    14A     -1.257696    15A     -1.216716
      16A     -1.133693    17A     -1.083687    18A     -1.065419
      19A     -0.997709    20A     -0.982545    21A     -0.880284
      22A     -0.856640    23A     -0.820009    24A     -0.799641
      25A     -0.720996    26A     -0.694873    27A     -0.687850
      28A     -0.666481    29A     -0.650251    30A     -0.625398
      31A     -0.598314    32A     -0.591391    33A     -0.589279
      34A     -0.574524    35A     -0.547777    36A     -0.537835
      37A     -0.521820    38A     -0.507109    39A     -0.498983
      40A     -0.448886    41A     -0.408155    42A     -0.390130
      43A     -0.365953    44A     -0.316811    45A     -0.285467

  @DF-RHF Final Energy:  -531.43982679419844

   => Energetics <=

    Nuclear Repulsion Energy =            714.8972472848120105
    One-Electron Energy =               -2138.2397010448162291
    Two-Electron Energy =                 891.9026269658057799
    Total Energy =                       -531.4398267941984386
  Basis Set: (AUG-CC-PVTZ AUX)
    Blend: AUG-CC-PVTZ-RI
    Molecular point group: c1

    Geometry (in Angstrom), charge = 0, multiplicity = 1:

       Center              X                  Y                   Z               Mass
    ------------   -----------------  -----------------  -----------------  -----------------
         N            1.446322755980     0.921095296737    -0.555877662212    14.003074004430
         N           -0.863049244020     2.166789296737     0.507513337788    14.003074004430
         C           -0.641748244020    -0.210169703263    -0.051115662212    12.000000000000
         C            0.753068255980    -0.121508103263    -0.039371562212    12.000000000000
         C           -1.439847244020     0.937443296737     0.180404337788    12.000000000000
         C           -1.271329244020    -1.435442703263    -0.323138662212    12.000000000000
         C           -2.836520244020     0.789330296737     0.196039337788    12.000000000000
         C            1.571881755980    -1.217452703263     0.545219337788    12.000000000000
         C           -2.657749244020    -1.563041703263    -0.322853662212    12.000000000000
         C           -3.441415244020    -0.437565703263    -0.060460662212    12.000000000000
         C            2.962970755980    -1.176623703263     0.514300337788    12.000000000000
         C            3.590134755980    -0.071075703263    -0.059473662212    12.000000000000
         C            2.789856755980     0.952335296737    -0.565142662212    12.000000000000
         H           -0.652406244020    -2.300017703263    -0.555751662212     1.007825032230
         H           -3.452258244020     1.666139296737     0.392886337788     1.007825032230
         H            1.051364755980    -2.046768703263     1.015220337788     1.007825032230
         H           -3.120312244020    -2.520930703263    -0.545433662212     1.007825032230
         H           -4.526555244020    -0.512370703263    -0.052529662212     1.007825032230
         H            3.547458755980    -1.985883703263     0.945601337788     1.007825032230
         H            0.025152755980     2.312307296737     0.033991337788     1.007825032230
         H           -1.496423244020     2.948318296737     0.373201337788     1.007825032230
         H            4.672772755980     0.006948296737    -0.101913662212     1.007825032230
         H            3.237534755980     1.842252296737    -1.004820662212     1.007825032230

  Basis Set: AUG-CC-PVTZ
    Blend: AUG-CC-PVTZ
  Basis Set: (AUG-CC-PVTZ AUX)
    Blend: AUG-CC-PVTZ-JKFIT
	 Reference Energy          =    -531.4398267941984386 [Eh]
	 Singles Energy            =      -0.0000000000000000 [Eh]
	 Same-Spin Energy          =      -0.5978970445207559 [Eh]
	 Opposite-Spin Energy      =      -1.8229621322822775 [Eh]
	 Correlation Energy        =      -2.4208591768030336 [Eh]
	 Total Energy              =    -533.8606859710014305 [Eh]

	 ================> DF-SCS-MP2 Energies <==================
	-----------------------------------------------------------
	 SCS Same-Spin Scale       =       0.3333333333333333 [-]
	 SCS Opposite-Spin Scale   =       1.2000000000000000 [-]
	 SCS Same-Spin Energy      =      -0.1992990148402519 [Eh]
	 SCS Opposite-Spin Energy  =      -2.1875545587387331 [Eh]
	 SCS Correlation Energy    =      -2.3868535735789851 [Eh]
	 SCS Total Energy          =    -533.8266803677773851 [Eh]
	-----------------------------------------------------------

  Dipole Moment: [D]
     X:     1.0746      Y:    -0.3852      Z:     0.0010     Total:     1.1416

*** Psi4 exiting successfully. Buy a developer a beer!
