                               Psi4 1.3.2 release

  ==> Input File <==

--------------------------------------------------------------------------
#psi4
#
memory 32 gb

molecule  {
0 1
  N        1.4447430     0.9271060    -0.5600120
  N       -0.8646290     2.1728000     0.5033790
  C       -0.6433280    -0.2041590    -0.0552500
  C        0.7133329    -0.2279572     0.0197022
  C       -1.4414270     0.9434540     0.1762700
  C       -1.2729090    -1.4294320    -0.3272730
  C       -2.8381000     0.7953410     0.1919050
  C        1.5703020    -1.2114420     0.5410850
  C       -2.6593290    -1.5570310    -0.3269880
  C       -3.4429950    -0.4315550    -0.0645950
  C        2.9613910    -1.1706130     0.5101660
  C        3.5885550    -0.0650650    -0.0636080
  C        2.7882770     0.9583460    -0.5692770
  H       -0.6539860    -2.2940070    -0.5598860
  H       -3.4538380     1.6721500     0.3887520
  H        1.0497850    -2.0407580     1.0110860
  H       -3.1218920    -2.5149200    -0.5495680
  H       -4.5281350    -0.5063600    -0.0566640
  H        3.5458790    -1.9798730     0.9414670
  H        0.0235730     2.3183180     0.0298570
  H       -1.4980030     2.9543290     0.3690670
  H        4.6711930     0.0129590    -0.1060480
  H        3.2359550     1.8482630    -1.0089550
units angstrom
no_reorient  #important for SAPT in psi4, default
symmetry c1  #important for SAPT in psi4, default
}

set PROPERTIES_ORIGIN ["COM"]
properties('MP2/aug-cc-pvtz', properties = ['dipole'])
--------------------------------------------------------------------------

    Molecular point group: c1
  Charge       = 0
  Multiplicity = 1
  Basis Set: AUG-CC-PVTZ
    Blend: AUG-CC-PVTZ
  Basis Set: (AUG-CC-PVTZ AUX)
    Blend: AUG-CC-PVTZ-JKFIT

    Orbital Energies [Eh]
    ---------------------

    Doubly Occupied:

       1A    -15.568774     2A    -15.554279     3A    -11.291841
       4A    -11.288567     5A    -11.277692     6A    -11.261790
       7A    -11.244369     8A    -11.244146     9A    -11.240887
      10A    -11.239411    11A    -11.230300    12A    -11.228138
      13A    -11.224621    14A     -1.239020    15A     -1.210615
      16A     -1.136793    17A     -1.077417    18A     -1.075702
      19A     -0.998431    20A     -0.984370    21A     -0.882561
      22A     -0.857769    23A     -0.816550    24A     -0.798911
      25A     -0.723502    26A     -0.691720    27A     -0.688115
      28A     -0.671073    29A     -0.638808    30A     -0.626461
      31A     -0.601787    32A     -0.598061    33A     -0.590047
      34A     -0.572846    35A     -0.543344    36A     -0.536262
      37A     -0.513889    38A     -0.503028    39A     -0.501371
      40A     -0.449062    41A     -0.407815    42A     -0.380613
      43A     -0.375284    44A     -0.317107    45A     -0.283829

  @DF-RHF Final Energy:  -531.42026685155770

   => Energetics <=

    Nuclear Repulsion Energy =            714.5470702604593498
    One-Electron Energy =               -2137.5607192691250020
    Two-Electron Energy =                 891.5933821571079534
    Total Energy =                       -531.4202668515576988
  Basis Set: (AUG-CC-PVTZ AUX)
    Blend: AUG-CC-PVTZ-RI
    Molecular point group: c1

    Geometry (in Angstrom), charge = 0, multiplicity = 1:

       Center              X                  Y                   Z               Mass
    ------------   -----------------  -----------------  -----------------  -----------------
         N            1.449014755979     0.929029696442    -0.560337196463    14.003074004430
         N           -0.860357244021     2.174723696442     0.503053803537    14.003074004430
         C           -0.639056244021    -0.202235303558    -0.055575196463    12.000000000000
         C            0.717604655979    -0.226033503558     0.019377003537    12.000000000000
         C           -1.437155244021     0.945377696442     0.175944803537    12.000000000000
         C           -1.268637244021    -1.427508303558    -0.327598196463    12.000000000000
         C           -2.833828244021     0.797264696442     0.191579803537    12.000000000000
         C            1.574573755979    -1.209518303558     0.540759803537    12.000000000000
         C           -2.655057244021    -1.555107303558    -0.327313196463    12.000000000000
         C           -3.438723244021    -0.429631303558    -0.064920196463    12.000000000000
         C            2.965662755979    -1.168689303558     0.509840803537    12.000000000000
         C            3.592826755979    -0.063141303558    -0.063933196463    12.000000000000
         C            2.792548755979     0.960269696442    -0.569602196463    12.000000000000
         H           -0.649714244021    -2.292083303558    -0.560211196463     1.007825032230
         H           -3.449566244021     1.674073696442     0.388426803537     1.007825032230
         H            1.054056755979    -2.038834303558     1.010760803537     1.007825032230
         H           -3.117620244021    -2.512996303558    -0.549893196463     1.007825032230
         H           -4.523863244021    -0.504436303558    -0.056989196463     1.007825032230
         H            3.550150755979    -1.977949303558     0.941141803537     1.007825032230
         H            0.027844755979     2.320241696442     0.029531803537     1.007825032230
         H           -1.493731244021     2.956252696442     0.368741803537     1.007825032230
         H            4.675464755979     0.014882696442    -0.106373196463     1.007825032230
         H            3.240226755979     1.850186696442    -1.009280196463     1.007825032230

  Basis Set: AUG-CC-PVTZ
    Blend: AUG-CC-PVTZ
  Basis Set: (AUG-CC-PVTZ AUX)
    Blend: AUG-CC-PVTZ-JKFIT
	 Reference Energy          =    -531.4202668515576988 [Eh]
	 Singles Energy            =      -0.0000000000000000 [Eh]
	 Same-Spin Energy          =      -0.5998829360708888 [Eh]
	 Opposite-Spin Energy      =      -1.8272313937032383 [Eh]
	 Correlation Energy        =      -2.4271143297741271 [Eh]
	 Total Energy              =    -533.8473811813317980 [Eh]

	 ================> DF-SCS-MP2 Energies <==================
	-----------------------------------------------------------
	 SCS Same-Spin Scale       =       0.3333333333333333 [-]
	 SCS Opposite-Spin Scale   =       1.2000000000000000 [-]
	 SCS Same-Spin Energy      =      -0.1999609786902963 [Eh]
	 SCS Opposite-Spin Energy  =      -2.1926776724438857 [Eh]
	 SCS Correlation Energy    =      -2.3926386511341819 [Eh]
	 SCS Total Energy          =    -533.8129055026919332 [Eh]
	-----------------------------------------------------------

  Dipole Moment: [D]
     X:     0.9909      Y:    -0.4019      Z:     0.0316     Total:     1.0697

*** Psi4 exiting successfully. Buy a developer a beer!
