                               Psi4 1.3.2 release

  ==> Input File <==

--------------------------------------------------------------------------
#psi4
#
memory 32 gb

molecule  {
0 1
  N        1.4447430     0.9271060    -0.5600120
  N       -0.8646290     2.1728000     0.5033790
  C       -0.6381810    -0.0661297    -0.1251152
  C        0.8343400    -0.1560850    -0.0228830
  C       -1.4414270     0.9434540     0.1762700
  C       -1.2729090    -1.4294320    -0.3272730
  C       -2.8381000     0.7953410     0.1919050
  C        1.5703020    -1.2114420     0.5410850
  C       -2.6593290    -1.5570310    -0.3269880
  C       -3.4429950    -0.4315550    -0.0645950
  C        2.9613910    -1.1706130     0.5101660
  C        3.5885550    -0.0650650    -0.0636080
  C        2.7882770     0.9583460    -0.5692770
  H       -0.6539860    -2.2940070    -0.5598860
  H       -3.4538380     1.6721500     0.3887520
  H        1.0497850    -2.0407580     1.0110860
  H       -3.1218920    -2.5149200    -0.5495680
  H       -4.5281350    -0.5063600    -0.0566640
  H        3.5458790    -1.9798730     0.9414670
  H        0.0235730     2.3183180     0.0298570
  H       -1.4980030     2.9543290     0.3690670
  H        4.6711930     0.0129590    -0.1060480
  H        3.2359550     1.8482630    -1.0089550
units angstrom
no_reorient  #important for SAPT in psi4, default
symmetry c1  #important for SAPT in psi4, default
}

set PROPERTIES_ORIGIN ["COM"]
properties('MP2/aug-cc-pvtz', properties = ['dipole'])
--------------------------------------------------------------------------

    Molecular point group: c1
  Charge       = 0
  Multiplicity = 1
  Basis Set: AUG-CC-PVTZ
    Blend: AUG-CC-PVTZ
  Basis Set: (AUG-CC-PVTZ AUX)
    Blend: AUG-CC-PVTZ-JKFIT

    Orbital Energies [Eh]
    ---------------------

    Doubly Occupied:

       1A    -15.566001     2A    -15.544581     3A    -11.290740
       4A    -11.279646     5A    -11.268782     6A    -11.264484
       7A    -11.247845     8A    -11.244531     9A    -11.242384
      10A    -11.240069    11A    -11.232041    12A    -11.228536
      13A    -11.224619    14A     -1.263114    15A     -1.216468
      16A     -1.121427    17A     -1.089576    18A     -1.059212
      19A     -0.990762    20A     -0.989778    21A     -0.873718
      22A     -0.863701    23A     -0.827295    24A     -0.791869
      25A     -0.717908    26A     -0.687013    27A     -0.686246
      28A     -0.665770    29A     -0.649473    30A     -0.629190
      31A     -0.601181    32A     -0.593528    33A     -0.581633
      34A     -0.568297    35A     -0.551553    36A     -0.537305
      37A     -0.519669    38A     -0.505270    39A     -0.484820
      40A     -0.439316    41A     -0.421861    42A     -0.388518
      43A     -0.365470    44A     -0.313313    45A     -0.296145

  @DF-RHF Final Energy:  -531.43227990681589

   => Energetics <=

    Nuclear Repulsion Energy =            714.9516727387007222
    One-Electron Energy =               -2138.4385911248778029
    Two-Electron Energy =                 892.0546384793610741
    Total Energy =                       -531.4322799068158929
  Basis Set: (AUG-CC-PVTZ AUX)
    Blend: AUG-CC-PVTZ-RI
    Molecular point group: c1

    Geometry (in Angstrom), charge = 0, multiplicity = 1:

       Center              X                  Y                   Z               Mass
    ------------   -----------------  -----------------  -----------------  -----------------
         N            1.440114179472     0.914220472171    -0.552403459958    14.003074004430
         N           -0.869257820528     2.159914472171     0.510987540042    14.003074004430
         C           -0.642809820528    -0.079015227829    -0.117506659958    12.000000000000
         C            0.829711179472    -0.168970527829    -0.015274459958    12.000000000000
         C           -1.446055820528     0.930568472171     0.183878540042    12.000000000000
         C           -1.277537820528    -1.442317527829    -0.319664459958    12.000000000000
         C           -2.842728820528     0.782455472171     0.199513540042    12.000000000000
         C            1.565673179472    -1.224327527829     0.548693540042    12.000000000000
         C           -2.663957820528    -1.569916527829    -0.319379459958    12.000000000000
         C           -3.447623820528    -0.444440527829    -0.056986459958    12.000000000000
         C            2.956762179472    -1.183498527829     0.517774540042    12.000000000000
         C            3.583926179472    -0.077950527829    -0.055999459958    12.000000000000
         C            2.783648179472     0.945460472171    -0.561668459958    12.000000000000
         H           -0.658614820528    -2.306892527829    -0.552277459958     1.007825032230
         H           -3.458466820528     1.659264472171     0.396360540042     1.007825032230
         H            1.045156179472    -2.053643527829     1.018694540042     1.007825032230
         H           -3.126520820528    -2.527805527829    -0.541959459958     1.007825032230
         H           -4.532763820528    -0.519245527829    -0.049055459958     1.007825032230
         H            3.541250179472    -1.992758527829     0.949075540042     1.007825032230
         H            0.018944179472     2.305432472171     0.037465540042     1.007825032230
         H           -1.502631820528     2.941443472171     0.376675540042     1.007825032230
         H            4.666564179472     0.000073472171    -0.098439459958     1.007825032230
         H            3.231326179472     1.835377472171    -1.001346459958     1.007825032230

  Basis Set: AUG-CC-PVTZ
    Blend: AUG-CC-PVTZ
  Basis Set: (AUG-CC-PVTZ AUX)
    Blend: AUG-CC-PVTZ-JKFIT
	 Reference Energy          =    -531.4322799068158929 [Eh]
	 Singles Energy            =      -0.0000000000000000 [Eh]
	 Same-Spin Energy          =      -0.5964181418214267 [Eh]
	 Opposite-Spin Energy      =      -1.8222358229827611 [Eh]
	 Correlation Energy        =      -2.4186539648041876 [Eh]
	 Total Energy              =    -533.8509338716201000 [Eh]

	 ================> DF-SCS-MP2 Energies <==================
	-----------------------------------------------------------
	 SCS Same-Spin Scale       =       0.3333333333333333 [-]
	 SCS Opposite-Spin Scale   =       1.2000000000000000 [-]
	 SCS Same-Spin Energy      =      -0.1988060472738089 [Eh]
	 SCS Opposite-Spin Energy  =      -2.1866829875793132 [Eh]
	 SCS Correlation Energy    =      -2.3854890348531219 [Eh]
	 SCS Total Energy          =    -533.8177689416689873 [Eh]
	-----------------------------------------------------------

  Dipole Moment: [D]
     X:     1.3990      Y:    -0.5773      Z:     0.0045     Total:     1.5135

*** Psi4 exiting successfully. Buy a developer a beer!
