                               Psi4 1.4a3.dev225

  ==> Input File <==

--------------------------------------------------------------------------
#psi4
#
memory 32 gb

molecule  {
0 1
  N        1.4447430     0.9271060    -0.5600120
  N       -0.8646290     2.1728000     0.5033790
  C       -0.6433280    -0.2041590    -0.0552500
  C        0.8343400    -0.1560850    -0.0228830
  C       -1.4414270     0.9434540     0.1762700
  C       -1.2729090    -1.4294320    -0.3272730
  C       -2.8381000     0.7953410     0.1919050
  C        1.5703020    -1.2114420     0.5410850
  C       -2.6593290    -1.5570310    -0.3269880
  C       -3.4429950    -0.4315550    -0.0645950
  C        2.9613910    -1.1706130     0.5101660
  C        3.5885550    -0.0650650    -0.0636080
  C        2.7382917     0.9571837    -0.5689323
  H       -0.6539860    -2.2940070    -0.5598860
  H       -3.4538380     1.6721500     0.3887520
  H        1.0497850    -2.0407580     1.0110860
  H       -3.1218920    -2.5149200    -0.5495680
  H       -4.5281350    -0.5063600    -0.0566640
  H        3.5458790    -1.9798730     0.9414670
  H        0.0235730     2.3183180     0.0298570
  H       -1.4980030     2.9543290     0.3690670
  H        4.6711930     0.0129590    -0.1060480
  H        3.2359550     1.8482630    -1.0089550
units angstrom
no_reorient  #important for SAPT in psi4, default
symmetry c1  #important for SAPT in psi4, default
}

set PROPERTIES_ORIGIN ["COM"]
properties('MP2/aug-cc-pvtz', properties = ['dipole'])
--------------------------------------------------------------------------

    Molecular point group: c1
  Charge       = 0
  Multiplicity = 1
  Basis Set: AUG-CC-PVTZ
    Blend: AUG-CC-PVTZ
  Basis Set: (AUG-CC-PVTZ AUX)
    Blend: AUG-CC-PVTZ-JKFIT

    Orbital Energies [Eh]
    ---------------------

    Doubly Occupied:

       1A    -15.566586     2A    -15.551680     3A    -11.290091
       4A    -11.282380     5A    -11.280977     6A    -11.262349
       7A    -11.244366     8A    -11.241212     9A    -11.239022
      10A    -11.238190    11A    -11.234663    12A    -11.224099
      13A    -11.221273    14A     -1.275658    15A     -1.215505
      16A     -1.128419    17A     -1.091031    18A     -1.061043
      19A     -0.996259    20A     -0.979562    21A     -0.875419
      22A     -0.860109    23A     -0.817264    24A     -0.801938
      25A     -0.718278    26A     -0.692188    27A     -0.684971
      28A     -0.665974    29A     -0.653533    30A     -0.624881
      31A     -0.594902    32A     -0.590578    33A     -0.586221
      34A     -0.574911    35A     -0.555475    36A     -0.537960
      37A     -0.521908    38A     -0.501802    39A     -0.492734
      40A     -0.445521    41A     -0.418642    42A     -0.392820
      43A     -0.369249    44A     -0.317483    45A     -0.285840

  @DF-RHF Final Energy:  -531.45200695540848

   => Energetics <=

    Nuclear Repulsion Energy =            715.4570137720245384
    One-Electron Energy =               -2139.4081083031378512
    Two-Electron Energy =                 892.4990875757048343
    Total Energy =                       -531.4520069554084785
  Basis Set: (AUG-CC-PVTZ AUX)
    Blend: AUG-CC-PVTZ-RI
    Molecular point group: c1

    Geometry (in Angstrom), charge = 0, multiplicity = 1:

       Center              X                  Y                   Z               Mass
    ------------   -----------------  -----------------  -----------------  -----------------
         N            1.444003940123     0.924040886132    -0.557356993664    14.003074004430
         N           -0.865368059877     2.169734886132     0.506034006336    14.003074004430
         C           -0.644067059877    -0.207224113868    -0.052594993664    12.000000000000
         C            0.833600940123    -0.159150113868    -0.020227993664    12.000000000000
         C           -1.442166059877     0.940388886132     0.178925006336    12.000000000000
         C           -1.273648059877    -1.432497113868    -0.324617993664    12.000000000000
         C           -2.838839059877     0.792275886132     0.194560006336    12.000000000000
         C            1.569562940123    -1.214507113868     0.543740006336    12.000000000000
         C           -2.660068059877    -1.560096113868    -0.324332993664    12.000000000000
         C           -3.443734059877    -0.434620113868    -0.061939993664    12.000000000000
         C            2.960651940123    -1.173678113868     0.512821006336    12.000000000000
         C            3.587815940123    -0.068130113868    -0.060952993664    12.000000000000
         C            2.737552640123     0.954118586132    -0.566277293664    12.000000000000
         H           -0.654725059877    -2.297072113868    -0.557230993664     1.007825032230
         H           -3.454577059877     1.669084886132     0.391407006336     1.007825032230
         H            1.049045940123    -2.043823113868     1.013741006336     1.007825032230
         H           -3.122631059877    -2.517985113868    -0.546912993664     1.007825032230
         H           -4.528874059877    -0.509425113868    -0.054008993664     1.007825032230
         H            3.545139940123    -1.982938113868     0.944122006336     1.007825032230
         H            0.022833940123     2.315252886132     0.032512006336     1.007825032230
         H           -1.498742059877     2.951263886132     0.371722006336     1.007825032230
         H            4.670453940123     0.009893886132    -0.103392993664     1.007825032230
         H            3.235215940123     1.845197886132    -1.006299993664     1.007825032230

  Basis Set: AUG-CC-PVTZ
    Blend: AUG-CC-PVTZ
  Basis Set: (AUG-CC-PVTZ AUX)
    Blend: AUG-CC-PVTZ-JKFIT
	 Reference Energy          =    -531.4520069554084785 [Eh]
	 Singles Energy            =      -0.0000000000000000 [Eh]
	 Same-Spin Energy          =      -0.5961292906437778 [Eh]
	 Opposite-Spin Energy      =      -1.8198880996542539 [Eh]
	 Correlation Energy        =      -2.4160173902980318 [Eh]
	 Total Energy              =    -533.8680243457065444 [Eh]

	 ================> DF-SCS-MP2 Energies <==================
	-----------------------------------------------------------
	 SCS Same-Spin Scale       =       0.3333333333333333 [-]
	 SCS Opposite-Spin Scale   =       1.2000000000000000 [-]
	 SCS Same-Spin Energy      =      -0.1987097635479259 [Eh]
	 SCS Opposite-Spin Energy  =      -2.1838657195851048 [Eh]
	 SCS Correlation Energy    =      -2.3825754831330306 [Eh]
	 SCS Total Energy          =    -533.8345824385414744 [Eh]
	-----------------------------------------------------------

  Dipole Moment: [D]
     X:     1.4987      Y:    -0.4181      Z:     0.0104     Total:     1.5559

*** Psi4 exiting successfully. Buy a developer a beer!
