                               Psi4 1.3.2 release

  ==> Input File <==

--------------------------------------------------------------------------
#psi4
#
memory 32 gb

molecule  {
0 1
  N        1.4447430     0.9271060    -0.5600120
  N       -0.8646290     2.1728000     0.5033790
  C       -0.6433280    -0.2041590    -0.0552500
  C        0.8343400    -0.1560850    -0.0228830
  C       -1.5155125     0.9663568     0.2353617
  C       -1.2729090    -1.4294320    -0.3272730
  C       -2.8381000     0.7953410     0.1919050
  C        1.5703020    -1.2114420     0.5410850
  C       -2.6593290    -1.5570310    -0.3269880
  C       -3.4429950    -0.4315550    -0.0645950
  C        2.9613910    -1.1706130     0.5101660
  C        3.5885550    -0.0650650    -0.0636080
  C        2.7882770     0.9583460    -0.5692770
  H       -0.6539860    -2.2940070    -0.5598860
  H       -3.4538380     1.6721500     0.3887520
  H        1.0497850    -2.0407580     1.0110860
  H       -3.1218920    -2.5149200    -0.5495680
  H       -4.5281350    -0.5063600    -0.0566640
  H        3.5458790    -1.9798730     0.9414670
  H        0.0235730     2.3183180     0.0298570
  H       -1.4980030     2.9543290     0.3690670
  H        4.6711930     0.0129590    -0.1060480
  H        3.2359550     1.8482630    -1.0089550
units angstrom
no_reorient  #important for SAPT in psi4, default
symmetry c1  #important for SAPT in psi4, default
}

set PROPERTIES_ORIGIN ["COM"]
properties('MP2/aug-cc-pvtz', properties = ['dipole'])
--------------------------------------------------------------------------

    Molecular point group: c1
  Charge       = 0
  Multiplicity = 1
  Basis Set: AUG-CC-PVTZ
    Blend: AUG-CC-PVTZ
  Basis Set: (AUG-CC-PVTZ AUX)
    Blend: AUG-CC-PVTZ-JKFIT

    Orbital Energies [Eh]
    ---------------------

    Doubly Occupied:

       1A    -15.569193     2A    -15.549786     3A    -11.291047
       4A    -11.281503     5A    -11.279693     6A    -11.263657
       7A    -11.243172     8A    -11.242626     9A    -11.241567
      10A    -11.239438    11A    -11.238364    12A    -11.221430
      13A    -11.214989    14A     -1.262111    15A     -1.213427
      16A     -1.127435    17A     -1.089264    18A     -1.062030
      19A     -1.004483    20A     -0.977508    21A     -0.874771
      22A     -0.863453    23A     -0.809848    24A     -0.804117
      25A     -0.719001    26A     -0.693866    27A     -0.683321
      28A     -0.663331    29A     -0.654205    30A     -0.626462
      31A     -0.602794    32A     -0.590267    33A     -0.580925
      34A     -0.574368    35A     -0.551119    36A     -0.536804
      37A     -0.521566    38A     -0.505291    39A     -0.485001
      40A     -0.444467    41A     -0.421103    42A     -0.389135
      43A     -0.368268    44A     -0.322943    45A     -0.284590

  @DF-RHF Final Energy:  -531.44446357096149

   => Energetics <=

    Nuclear Repulsion Energy =            713.9833734133828784
    One-Electron Energy =               -2136.4882041137325359
    Two-Electron Energy =                 891.0603671293881689
    Total Energy =                       -531.4444635709614886
  Basis Set: (AUG-CC-PVTZ AUX)
    Blend: AUG-CC-PVTZ-RI
    Molecular point group: c1

    Geometry (in Angstrom), charge = 0, multiplicity = 1:

       Center              X                  Y                   Z               Mass
    ------------   -----------------  -----------------  -----------------  -----------------
         N            1.445704286556     0.922343016117    -0.561501782998    14.003074004430
         N           -0.863667713444     2.168037016117     0.501889217002    14.003074004430
         C           -0.642366713444    -0.208921983883    -0.056739782998    12.000000000000
         C            0.835301286556    -0.160847983883    -0.024372782998    12.000000000000
         C           -1.514551213444     0.961593816117     0.233871917002    12.000000000000
         C           -1.271947713444    -1.434194983883    -0.328762782998    12.000000000000
         C           -2.837138713444     0.790578016117     0.190415217002    12.000000000000
         C            1.571263286556    -1.216204983883     0.539595217002    12.000000000000
         C           -2.658367713444    -1.561793983883    -0.328477782998    12.000000000000
         C           -3.442033713444    -0.436317983883    -0.066084782998    12.000000000000
         C            2.962352286556    -1.175375983883     0.508676217002    12.000000000000
         C            3.589516286556    -0.069827983883    -0.065097782998    12.000000000000
         C            2.789238286556     0.953583016117    -0.570766782998    12.000000000000
         H           -0.653024713444    -2.298769983883    -0.561375782998     1.007825032230
         H           -3.452876713444     1.667387016117     0.387262217002     1.007825032230
         H            1.050746286556    -2.045520983883     1.009596217002     1.007825032230
         H           -3.120930713444    -2.519682983883    -0.551057782998     1.007825032230
         H           -4.527173713444    -0.511122983883    -0.058153782998     1.007825032230
         H            3.546840286556    -1.984635983883     0.939977217002     1.007825032230
         H            0.024534286556     2.313555016117     0.028367217002     1.007825032230
         H           -1.497041713444     2.949566016117     0.367577217002     1.007825032230
         H            4.672154286556     0.008196016117    -0.107537782998     1.007825032230
         H            3.236916286556     1.843500016117    -1.010444782998     1.007825032230

  Basis Set: AUG-CC-PVTZ
    Blend: AUG-CC-PVTZ
  Basis Set: (AUG-CC-PVTZ AUX)
    Blend: AUG-CC-PVTZ-JKFIT
	 Reference Energy          =    -531.4444635709614886 [Eh]
	 Singles Energy            =      -0.0000000000000000 [Eh]
	 Same-Spin Energy          =      -0.5964635547235941 [Eh]
	 Opposite-Spin Energy      =      -1.8210822085886456 [Eh]
	 Correlation Energy        =      -2.4175457633122397 [Eh]
	 Total Energy              =    -533.8620093342736936 [Eh]

	 ================> DF-SCS-MP2 Energies <==================
	-----------------------------------------------------------
	 SCS Same-Spin Scale       =       0.3333333333333333 [-]
	 SCS Opposite-Spin Scale   =       1.2000000000000000 [-]
	 SCS Same-Spin Energy      =      -0.1988211849078647 [Eh]
	 SCS Opposite-Spin Energy  =      -2.1852986503063745 [Eh]
	 SCS Correlation Energy    =      -2.3841198352142392 [Eh]
	 SCS Total Energy          =    -533.8285834061757669 [Eh]
	-----------------------------------------------------------

  Dipole Moment: [D]
     X:     1.5665      Y:    -0.4677      Z:     0.0111     Total:     1.6348

*** Psi4 exiting successfully. Buy a developer a beer!
