                               Psi4 1.3.2 release

  ==> Input File <==

--------------------------------------------------------------------------
#psi4
#
memory 32 gb

molecule  {
0 1
  N        1.4447430     0.9271060    -0.5600120
  N       -0.8646290     2.1728000     0.5033790
  C       -0.6433280    -0.2041590    -0.0552500
  C        0.8343400    -0.1560850    -0.0228830
  C       -1.5513880     0.9800204     0.2654154
  C       -1.2729090    -1.4294320    -0.3272730
  C       -2.8381000     0.7953410     0.1919050
  C        1.5703020    -1.2114420     0.5410850
  C       -2.6593290    -1.5570310    -0.3269880
  C       -3.4429950    -0.4315550    -0.0645950
  C        2.9613910    -1.1706130     0.5101660
  C        3.5885550    -0.0650650    -0.0636080
  C        2.7882770     0.9583460    -0.5692770
  H       -0.6539860    -2.2940070    -0.5598860
  H       -3.4538380     1.6721500     0.3887520
  H        1.0497850    -2.0407580     1.0110860
  H       -3.1218920    -2.5149200    -0.5495680
  H       -4.5281350    -0.5063600    -0.0566640
  H        3.5458790    -1.9798730     0.9414670
  H        0.0235730     2.3183180     0.0298570
  H       -1.4980030     2.9543290     0.3690670
  H        4.6711930     0.0129590    -0.1060480
  H        3.2359550     1.8482630    -1.0089550
units angstrom
no_reorient  #important for SAPT in psi4, default
symmetry c1  #important for SAPT in psi4, default
}

set PROPERTIES_ORIGIN ["COM"]
properties('MP2/aug-cc-pvtz', properties = ['dipole'])
--------------------------------------------------------------------------

    Molecular point group: c1
  Charge       = 0
  Multiplicity = 1
  Basis Set: AUG-CC-PVTZ
    Blend: AUG-CC-PVTZ
  Basis Set: (AUG-CC-PVTZ AUX)
    Blend: AUG-CC-PVTZ-JKFIT

    Orbital Energies [Eh]
    ---------------------

    Doubly Occupied:

       1A    -15.569351     2A    -15.549169     3A    -11.291394
       4A    -11.281535     5A    -11.278809     6A    -11.263707
       7A    -11.244460     8A    -11.243377     9A    -11.242875
      10A    -11.239873    11A    -11.237950    12A    -11.221972
      13A    -11.210666    14A     -1.261933    15A     -1.213208
      16A     -1.127424    17A     -1.089367    18A     -1.062607
      19A     -1.008707    20A     -0.975703    21A     -0.876267
      22A     -0.863016    23A     -0.809175    24A     -0.802021
      25A     -0.719106    26A     -0.695837    27A     -0.682194
      28A     -0.663408    29A     -0.654707    30A     -0.627733
      31A     -0.605419    32A     -0.590046    33A     -0.576834
      34A     -0.574262    35A     -0.551326    36A     -0.536847
      37A     -0.522642    38A     -0.507284    39A     -0.477937
      40A     -0.444014    41A     -0.420852    42A     -0.389172
      43A     -0.368216    44A     -0.325324    45A     -0.283557

  @DF-RHF Final Energy:  -531.43286892995059

   => Energetics <=

    Nuclear Repulsion Energy =            713.6458427318696067
    One-Electron Energy =               -2135.7948597220952252
    Two-Electron Energy =                 890.7161480602750316
    Total Energy =                       -531.4328689299505868
  Basis Set: (AUG-CC-PVTZ AUX)
    Blend: AUG-CC-PVTZ-RI
    Molecular point group: c1

    Geometry (in Angstrom), charge = 0, multiplicity = 1:

       Center              X                  Y                   Z               Mass
    ------------   -----------------  -----------------  -----------------  -----------------
         N            1.448235418183     0.921379005299    -0.563622167957    14.003074004430
         N           -0.861136581817     2.167073005299     0.499768832043    14.003074004430
         C           -0.639835581817    -0.209885994701    -0.058860167957    12.000000000000
         C            0.837832418183    -0.161811994701    -0.026493167957    12.000000000000
         C           -1.547895581817     0.974293405299     0.261805232043    12.000000000000
         C           -1.269416581817    -1.435158994701    -0.330883167957    12.000000000000
         C           -2.834607581817     0.789614005299     0.188294832043    12.000000000000
         C            1.573794418183    -1.217168994701     0.537474832043    12.000000000000
         C           -2.655836581817    -1.562757994701    -0.330598167957    12.000000000000
         C           -3.439502581817    -0.437281994701    -0.068205167957    12.000000000000
         C            2.964883418183    -1.176339994701     0.506555832043    12.000000000000
         C            3.592047418183    -0.070791994701    -0.067218167957    12.000000000000
         C            2.791769418183     0.952619005299    -0.572887167957    12.000000000000
         H           -0.650493581817    -2.299733994701    -0.563496167957     1.007825032230
         H           -3.450345581817     1.666423005299     0.385141832043     1.007825032230
         H            1.053277418183    -2.046484994701     1.007475832043     1.007825032230
         H           -3.118399581817    -2.520646994701    -0.553178167957     1.007825032230
         H           -4.524642581817    -0.512086994701    -0.060274167957     1.007825032230
         H            3.549371418183    -1.985599994701     0.937856832043     1.007825032230
         H            0.027065418183     2.312591005299     0.026246832043     1.007825032230
         H           -1.494510581817     2.948602005299     0.365456832043     1.007825032230
         H            4.674685418183     0.007232005299    -0.109658167957     1.007825032230
         H            3.239447418183     1.842536005299    -1.012565167957     1.007825032230

  Basis Set: AUG-CC-PVTZ
    Blend: AUG-CC-PVTZ
  Basis Set: (AUG-CC-PVTZ AUX)
    Blend: AUG-CC-PVTZ-JKFIT
	 Reference Energy          =    -531.4328689299505868 [Eh]
	 Singles Energy            =      -0.0000000000000000 [Eh]
	 Same-Spin Energy          =      -0.5964023121949436 [Eh]
	 Opposite-Spin Energy      =      -1.8216090857932321 [Eh]
	 Correlation Energy        =      -2.4180113979881757 [Eh]
	 Total Energy              =    -533.8508803279387394 [Eh]

	 ================> DF-SCS-MP2 Energies <==================
	-----------------------------------------------------------
	 SCS Same-Spin Scale       =       0.3333333333333333 [-]
	 SCS Opposite-Spin Scale   =       1.2000000000000000 [-]
	 SCS Same-Spin Energy      =      -0.1988007707316478 [Eh]
	 SCS Opposite-Spin Energy  =      -2.1859309029518785 [Eh]
	 SCS Correlation Energy    =      -2.3847316736835262 [Eh]
	 SCS Total Energy          =    -533.8176006036341050 [Eh]
	-----------------------------------------------------------

  Dipole Moment: [D]
     X:     1.5773      Y:    -0.4970      Z:     0.0097     Total:     1.6538

*** Psi4 exiting successfully. Buy a developer a beer!
