                               Psi4 1.3.2 release

  ==> Input File <==

--------------------------------------------------------------------------
#psi4
#
memory 32 gb

molecule  {
0 1
  N        1.4447430     0.9271060    -0.5600120
  N       -0.8646290     2.1728000     0.5033790
  C       -0.6433280    -0.2041590    -0.0552500
  C        0.8318625    -0.3074766    -0.0550414
  C       -1.4414270     0.9434540     0.1762700
  C       -1.2729090    -1.4294320    -0.3272730
  C       -2.8381000     0.7953410     0.1919050
  C        1.5703020    -1.2114420     0.5410850
  C       -2.6593290    -1.5570310    -0.3269880
  C       -3.4429950    -0.4315550    -0.0645950
  C        2.9613910    -1.1706130     0.5101660
  C        3.5885550    -0.0650650    -0.0636080
  C        2.7882770     0.9583460    -0.5692770
  H       -0.6539860    -2.2940070    -0.5598860
  H       -3.4538380     1.6721500     0.3887520
  H        1.0497850    -2.0407580     1.0110860
  H       -3.1218920    -2.5149200    -0.5495680
  H       -4.5281350    -0.5063600    -0.0566640
  H        3.5458790    -1.9798730     0.9414670
  H        0.0235730     2.3183180     0.0298570
  H       -1.4980030     2.9543290     0.3690670
  H        4.6711930     0.0129590    -0.1060480
  H        3.2359550     1.8482630    -1.0089550
units angstrom
no_reorient  #important for SAPT in psi4, default
symmetry c1  #important for SAPT in psi4, default
}

set PROPERTIES_ORIGIN ["COM"]
properties('MP2/aug-cc-pvtz', properties = ['dipole'])
--------------------------------------------------------------------------

    Molecular point group: c1
  Charge       = 0
  Multiplicity = 1
  Basis Set: AUG-CC-PVTZ
    Blend: AUG-CC-PVTZ
  Basis Set: (AUG-CC-PVTZ AUX)
    Blend: AUG-CC-PVTZ-JKFIT

    Orbital Energies [Eh]
    ---------------------

    Doubly Occupied:

       1A    -15.573938     2A    -15.549322     3A    -11.285059
       4A    -11.282570     5A    -11.282201     6A    -11.267102
       7A    -11.244284     8A    -11.237184     9A    -11.236281
      10A    -11.235073    11A    -11.233396    12A    -11.224041
      13A    -11.219387    14A     -1.243558    15A     -1.211057
      16A     -1.128305    17A     -1.090268    18A     -1.066278
      19A     -0.999522    20A     -0.980619    21A     -0.875336
      22A     -0.860826    23A     -0.814431    24A     -0.799678
      25A     -0.718924    26A     -0.686358    27A     -0.684845
      28A     -0.668120    29A     -0.644982    30A     -0.628323
      31A     -0.600250    32A     -0.593143    33A     -0.585632
      34A     -0.571423    35A     -0.545629    36A     -0.535628
      37A     -0.516246    38A     -0.497740    39A     -0.485344
      40A     -0.444445    41A     -0.425543    42A     -0.383782
      43A     -0.376180    44A     -0.319377    45A     -0.286087

  @DF-RHF Final Energy:  -531.42904144526403

   => Energetics <=

    Nuclear Repulsion Energy =            714.0629809008133861
    One-Electron Energy =               -2136.7086131206965547
    Two-Electron Energy =                 891.2165907746192488
    Total Energy =                       -531.4290414452640334
  Basis Set: (AUG-CC-PVTZ AUX)
    Blend: AUG-CC-PVTZ-RI
    Molecular point group: c1

    Geometry (in Angstrom), charge = 0, multiplicity = 1:

       Center              X                  Y                   Z               Mass
    ------------   -----------------  -----------------  -----------------  -----------------
         N            1.440652112409     0.934640045242    -0.555063795676    14.003074004430
         N           -0.868719887591     2.180334045242     0.508327204324    14.003074004430
         C           -0.647418887591    -0.196624954758    -0.050301795676    12.000000000000
         C            0.827771612409    -0.299942554758    -0.050093195676    12.000000000000
         C           -1.445517887591     0.950988045242     0.181218204324    12.000000000000
         C           -1.276999887591    -1.421897954758    -0.322324795676    12.000000000000
         C           -2.842190887591     0.802875045242     0.196853204324    12.000000000000
         C            1.566211112409    -1.203907954758     0.546033204324    12.000000000000
         C           -2.663419887591    -1.549496954758    -0.322039795676    12.000000000000
         C           -3.447085887591    -0.424020954758    -0.059646795676    12.000000000000
         C            2.957300112409    -1.163078954758     0.515114204324    12.000000000000
         C            3.584464112409    -0.057530954758    -0.058659795676    12.000000000000
         C            2.784186112409     0.965880045242    -0.564328795676    12.000000000000
         H           -0.658076887591    -2.286472954758    -0.554937795676     1.007825032230
         H           -3.457928887591     1.679684045242     0.393700204324     1.007825032230
         H            1.045694112409    -2.033223954758     1.016034204324     1.007825032230
         H           -3.125982887591    -2.507385954758    -0.544619795676     1.007825032230
         H           -4.532225887591    -0.498825954758    -0.051715795676     1.007825032230
         H            3.541788112409    -1.972338954758     0.946415204324     1.007825032230
         H            0.019482112409     2.325852045242     0.034805204324     1.007825032230
         H           -1.502093887591     2.961863045242     0.374015204324     1.007825032230
         H            4.667102112409     0.020493045242    -0.101099795676     1.007825032230
         H            3.231864112409     1.855797045242    -1.004006795676     1.007825032230

  Basis Set: AUG-CC-PVTZ
    Blend: AUG-CC-PVTZ
  Basis Set: (AUG-CC-PVTZ AUX)
    Blend: AUG-CC-PVTZ-JKFIT
	 Reference Energy          =    -531.4290414452640334 [Eh]
	 Singles Energy            =      -0.0000000000000000 [Eh]
	 Same-Spin Energy          =      -0.5972577385211465 [Eh]
	 Opposite-Spin Energy      =      -1.8241742910828418 [Eh]
	 Correlation Energy        =      -2.4214320296039884 [Eh]
	 Total Energy              =    -533.8504734748680676 [Eh]

	 ================> DF-SCS-MP2 Energies <==================
	-----------------------------------------------------------
	 SCS Same-Spin Scale       =       0.3333333333333333 [-]
	 SCS Opposite-Spin Scale   =       1.2000000000000000 [-]
	 SCS Same-Spin Energy      =      -0.1990859128403822 [Eh]
	 SCS Opposite-Spin Energy  =      -2.1890091492994102 [Eh]
	 SCS Correlation Energy    =      -2.3880950621397923 [Eh]
	 SCS Total Energy          =    -533.8171365074038022 [Eh]
	-----------------------------------------------------------

  Dipole Moment: [D]
     X:     1.5970      Y:    -0.4246      Z:     0.0129     Total:     1.6525

*** Psi4 exiting successfully. Buy a developer a beer!
