                               Psi4 1.3.2 release

  ==> Input File <==

--------------------------------------------------------------------------
#psi4
#
memory 32 gb

molecule  {
0 1
  N        1.4447430     0.9271060    -0.5600120
  N       -0.8646290     2.1728000     0.5033790
  C       -0.6433280    -0.2041590    -0.0552500
  C        0.9196011    -0.1136843    -0.0462775
  C       -1.4414270     0.9434540     0.1762700
  C       -1.2729090    -1.4294320    -0.3272730
  C       -2.8381000     0.7953410     0.1919050
  C        1.5703020    -1.2114420     0.5410850
  C       -2.6593290    -1.5570310    -0.3269880
  C       -3.4429950    -0.4315550    -0.0645950
  C        2.9613910    -1.1706130     0.5101660
  C        3.5885550    -0.0650650    -0.0636080
  C        2.7882770     0.9583460    -0.5692770
  H       -0.6539860    -2.2940070    -0.5598860
  H       -3.4538380     1.6721500     0.3887520
  H        1.0497850    -2.0407580     1.0110860
  H       -3.1218920    -2.5149200    -0.5495680
  H       -4.5281350    -0.5063600    -0.0566640
  H        3.5458790    -1.9798730     0.9414670
  H        0.0235730     2.3183180     0.0298570
  H       -1.4980030     2.9543290     0.3690670
  H        4.6711930     0.0129590    -0.1060480
  H        3.2359550     1.8482630    -1.0089550
units angstrom
no_reorient  #important for SAPT in psi4, default
symmetry c1  #important for SAPT in psi4, default
}

set PROPERTIES_ORIGIN ["COM"]
properties('MP2/aug-cc-pvtz', properties = ['dipole'])
--------------------------------------------------------------------------

    Molecular point group: c1
  Charge       = 0
  Multiplicity = 1
  Basis Set: AUG-CC-PVTZ
    Blend: AUG-CC-PVTZ
  Basis Set: (AUG-CC-PVTZ AUX)
    Blend: AUG-CC-PVTZ-JKFIT

    Orbital Energies [Eh]
    ---------------------

    Doubly Occupied:

       1A    -15.567130     2A    -15.549285     3A    -11.288668
       4A    -11.283764     5A    -11.276333     6A    -11.264572
       7A    -11.244795     8A    -11.243628     9A    -11.236151
      10A    -11.234800    11A    -11.234429    12A    -11.221298
      13A    -11.218981    14A     -1.289385    15A     -1.212518
      16A     -1.123257    17A     -1.097848    18A     -1.053855
      19A     -0.996779    20A     -0.977327    21A     -0.875583
      22A     -0.861883    23A     -0.816559    24A     -0.799061
      25A     -0.719692    26A     -0.690720    27A     -0.682165
      28A     -0.663339    29A     -0.657304    30A     -0.626810
      31A     -0.591808    32A     -0.589205    33A     -0.584344
      34A     -0.574949    35A     -0.561874    36A     -0.534628
      37A     -0.521303    38A     -0.499548    39A     -0.490475
      40A     -0.442612    41A     -0.420029    42A     -0.397954
      43A     -0.363163    44A     -0.320593    45A     -0.286296

  @DF-RHF Final Energy:  -531.44620338345669

   => Energetics <=

    Nuclear Repulsion Energy =            714.8717906052135049
    One-Electron Energy =               -2138.2625902698341633
    Two-Electron Energy =                 891.9445962811640811
    Total Energy =                       -531.4462033834566910
  Basis Set: (AUG-CC-PVTZ AUX)
    Blend: AUG-CC-PVTZ-RI
    Molecular point group: c1

    Geometry (in Angstrom), charge = 0, multiplicity = 1:

       Center              X                  Y                   Z               Mass
    ------------   -----------------  -----------------  -----------------  -----------------
         N            1.434461872679     0.920967376715    -0.555682116939    14.003074004430
         N           -0.874910127321     2.166661376715     0.507708883061    14.003074004430
         C           -0.653609127321    -0.210297623285    -0.050920116939    12.000000000000
         C            0.909319972679    -0.119822923285    -0.041947616939    12.000000000000
         C           -1.451708127321     0.937315376715     0.180599883061    12.000000000000
         C           -1.283190127321    -1.435570623285    -0.322943116939    12.000000000000
         C           -2.848381127321     0.789202376715     0.196234883061    12.000000000000
         C            1.560020872679    -1.217580623285     0.545414883061    12.000000000000
         C           -2.669610127321    -1.563169623285    -0.322658116939    12.000000000000
         C           -3.453276127321    -0.437693623285    -0.060265116939    12.000000000000
         C            2.951109872679    -1.176751623285     0.514495883061    12.000000000000
         C            3.578273872679    -0.071203623285    -0.059278116939    12.000000000000
         C            2.777995872679     0.952207376715    -0.564947116939    12.000000000000
         H           -0.664267127321    -2.300145623285    -0.555556116939     1.007825032230
         H           -3.464119127321     1.666011376715     0.393081883061     1.007825032230
         H            1.039503872679    -2.046896623285     1.015415883061     1.007825032230
         H           -3.132173127321    -2.521058623285    -0.545238116939     1.007825032230
         H           -4.538416127321    -0.512498623285    -0.052334116939     1.007825032230
         H            3.535597872679    -1.986011623285     0.945796883061     1.007825032230
         H            0.013291872679     2.312179376715     0.034186883061     1.007825032230
         H           -1.508284127321     2.948190376715     0.373396883061     1.007825032230
         H            4.660911872679     0.006820376715    -0.101718116939     1.007825032230
         H            3.225673872679     1.842124376715    -1.004625116939     1.007825032230

  Basis Set: AUG-CC-PVTZ
    Blend: AUG-CC-PVTZ
  Basis Set: (AUG-CC-PVTZ AUX)
    Blend: AUG-CC-PVTZ-JKFIT
	 Reference Energy          =    -531.4462033834566910 [Eh]
	 Singles Energy            =      -0.0000000000000000 [Eh]
	 Same-Spin Energy          =      -0.5950907162694199 [Eh]
	 Opposite-Spin Energy      =      -1.8185701350145496 [Eh]
	 Correlation Energy        =      -2.4136608512839697 [Eh]
	 Total Energy              =    -533.8598642347407122 [Eh]

	 ================> DF-SCS-MP2 Energies <==================
	-----------------------------------------------------------
	 SCS Same-Spin Scale       =       0.3333333333333333 [-]
	 SCS Opposite-Spin Scale   =       1.2000000000000000 [-]
	 SCS Same-Spin Energy      =      -0.1983635720898066 [Eh]
	 SCS Opposite-Spin Energy  =      -2.1822841620174596 [Eh]
	 SCS Correlation Energy    =      -2.3806477341072663 [Eh]
	 SCS Total Energy          =    -533.8268511175639333 [Eh]
	-----------------------------------------------------------

  Dipole Moment: [D]
     X:     1.8760      Y:    -0.4108      Z:    -0.0030     Total:     1.9204

*** Psi4 exiting successfully. Buy a developer a beer!
