                               Psi4 1.3.2 release

  ==> Input File <==

--------------------------------------------------------------------------
#psi4
#
memory 32 gb

molecule  {
0 1
  N        1.4447430     0.9271060    -0.5600120
  N       -0.8646290     2.1728000     0.5033790
  C       -0.6433280    -0.2041590    -0.0552500
  C        0.7113048    -0.0932854    -0.0547677
  C       -1.4414270     0.9434540     0.1762700
  C       -1.2729090    -1.4294320    -0.3272730
  C       -2.8381000     0.7953410     0.1919050
  C        1.5703020    -1.2114420     0.5410850
  C       -2.6593290    -1.5570310    -0.3269880
  C       -3.4429950    -0.4315550    -0.0645950
  C        2.9613910    -1.1706130     0.5101660
  C        3.5885550    -0.0650650    -0.0636080
  C        2.7882770     0.9583460    -0.5692770
  H       -0.6539860    -2.2940070    -0.5598860
  H       -3.4538380     1.6721500     0.3887520
  H        1.0497850    -2.0407580     1.0110860
  H       -3.1218920    -2.5149200    -0.5495680
  H       -4.5281350    -0.5063600    -0.0566640
  H        3.5458790    -1.9798730     0.9414670
  H        0.0235730     2.3183180     0.0298570
  H       -1.4980030     2.9543290     0.3690670
  H        4.6711930     0.0129590    -0.1060480
  H        3.2359550     1.8482630    -1.0089550
units angstrom
no_reorient  #important for SAPT in psi4, default
symmetry c1  #important for SAPT in psi4, default
}

set PROPERTIES_ORIGIN ["COM"]
properties('MP2/aug-cc-pvtz', properties = ['dipole'])
--------------------------------------------------------------------------

    Molecular point group: c1
  Charge       = 0
  Multiplicity = 1
  Basis Set: AUG-CC-PVTZ
    Blend: AUG-CC-PVTZ
  Basis Set: (AUG-CC-PVTZ AUX)
    Blend: AUG-CC-PVTZ-JKFIT

    Orbital Energies [Eh]
    ---------------------

    Doubly Occupied:

       1A    -15.563256     2A    -15.556582     3A    -11.296865
       4A    -11.287911     5A    -11.276120     6A    -11.255872
       7A    -11.248424     8A    -11.247635     9A    -11.245807
      10A    -11.237966    11A    -11.230755    12A    -11.228761
      13A    -11.226818    14A     -1.256145    15A     -1.217751
      16A     -1.136958    17A     -1.082732    18A     -1.067647
      19A     -0.998360    20A     -0.982233    21A     -0.884856
      22A     -0.853775    23A     -0.821465    24A     -0.798215
      25A     -0.723229    26A     -0.696934    27A     -0.689264
      28A     -0.668688    29A     -0.648377    30A     -0.625321
      31A     -0.600342    32A     -0.592054    33A     -0.587873
      34A     -0.574023    35A     -0.546870    36A     -0.537971
      37A     -0.522781    38A     -0.508776    39A     -0.500653
      40A     -0.450861    41A     -0.402563    42A     -0.389568
      43A     -0.364793    44A     -0.316214    45A     -0.283774

  @DF-RHF Final Energy:  -531.42476318220099

   => Energetics <=

    Nuclear Repulsion Energy =            715.0795895726762410
    One-Electron Energy =               -2138.5410265493392217
    Two-Electron Energy =                 892.0366737944619899
    Total Energy =                       -531.4247631822009907
  Basis Set: (AUG-CC-PVTZ AUX)
    Blend: AUG-CC-PVTZ-RI
    Molecular point group: c1

    Geometry (in Angstrom), charge = 0, multiplicity = 1:

       Center              X                  Y                   Z               Mass
    ------------   -----------------  -----------------  -----------------  -----------------
         N            1.449157844940     0.919528168872    -0.555083106090    14.003074004430
         N           -0.860214155060     2.165222168872     0.508307893910    14.003074004430
         C           -0.638913155060    -0.211736831128    -0.050321106090    12.000000000000
         C            0.715719644940    -0.100863231128    -0.049838806090    12.000000000000
         C           -1.437012155060     0.935876168872     0.181198893910    12.000000000000
         C           -1.268494155060    -1.437009831128    -0.322344106090    12.000000000000
         C           -2.833685155060     0.787763168872     0.196833893910    12.000000000000
         C            1.574716844940    -1.219019831128     0.546013893910    12.000000000000
         C           -2.654914155060    -1.564608831128    -0.322059106090    12.000000000000
         C           -3.438580155060    -0.439132831128    -0.059666106090    12.000000000000
         C            2.965805844940    -1.178190831128     0.515094893910    12.000000000000
         C            3.592969844940    -0.072642831128    -0.058679106090    12.000000000000
         C            2.792691844940     0.950768168872    -0.564348106090    12.000000000000
         H           -0.649571155060    -2.301584831128    -0.554957106090     1.007825032230
         H           -3.449423155060     1.664572168872     0.393680893910     1.007825032230
         H            1.054199844940    -2.048335831128     1.016014893910     1.007825032230
         H           -3.117477155060    -2.522497831128    -0.544639106090     1.007825032230
         H           -4.523720155060    -0.513937831128    -0.051735106090     1.007825032230
         H            3.550293844940    -1.987450831128     0.946395893910     1.007825032230
         H            0.027987844940     2.310740168872     0.034785893910     1.007825032230
         H           -1.493588155060     2.946751168872     0.373995893910     1.007825032230
         H            4.675607844940     0.005381168872    -0.101119106090     1.007825032230
         H            3.240369844940     1.840685168872    -1.004026106090     1.007825032230

  Basis Set: AUG-CC-PVTZ
    Blend: AUG-CC-PVTZ
  Basis Set: (AUG-CC-PVTZ AUX)
    Blend: AUG-CC-PVTZ-JKFIT
	 Reference Energy          =    -531.4247631822009907 [Eh]
	 Singles Energy            =      -0.0000000000000000 [Eh]
	 Same-Spin Energy          =      -0.5988059659044431 [Eh]
	 Opposite-Spin Energy      =      -1.8245867053550899 [Eh]
	 Correlation Energy        =      -2.4233926712595331 [Eh]
	 Total Energy              =    -533.8481558534605256 [Eh]

	 ================> DF-SCS-MP2 Energies <==================
	-----------------------------------------------------------
	 SCS Same-Spin Scale       =       0.3333333333333333 [-]
	 SCS Opposite-Spin Scale   =       1.2000000000000000 [-]
	 SCS Same-Spin Energy      =      -0.1996019886348144 [Eh]
	 SCS Opposite-Spin Energy  =      -2.1895040464261077 [Eh]
	 SCS Correlation Energy    =      -2.3891060350609221 [Eh]
	 SCS Total Energy          =    -533.8138692172618676 [Eh]
	-----------------------------------------------------------

  Dipole Moment: [D]
     X:     0.8419      Y:    -0.3591      Z:    -0.0073     Total:     0.9153

*** Psi4 exiting successfully. Buy a developer a beer!
