                               Psi4 1.3.2 release

  ==> Input File <==

--------------------------------------------------------------------------
#psi4
#
memory 32 gb

molecule  {
0 1
  N        1.4235589     0.9361611    -0.5653051
  N       -0.8646290     2.1728000     0.5033790
  C       -0.6433280    -0.2041590    -0.0552500
  C        0.8343400    -0.1560850    -0.0228830
  C       -1.4414270     0.9434540     0.1762700
  C       -1.2729090    -1.4294320    -0.3272730
  C       -2.8381000     0.7953410     0.1919050
  C        1.5703020    -1.2114420     0.5410850
  C       -2.6593290    -1.5570310    -0.3269880
  C       -3.4429950    -0.4315550    -0.0645950
  C        2.9613910    -1.1706130     0.5101660
  C        3.5885550    -0.0650650    -0.0636080
  C        2.7882770     0.9583460    -0.5692770
  H       -0.6539860    -2.2940070    -0.5598860
  H       -3.4538380     1.6721500     0.3887520
  H        1.0497850    -2.0407580     1.0110860
  H       -3.1218920    -2.5149200    -0.5495680
  H       -4.5281350    -0.5063600    -0.0566640
  H        3.5458790    -1.9798730     0.9414670
  H        0.0235730     2.3183180     0.0298570
  H       -1.4980030     2.9543290     0.3690670
  H        4.6711930     0.0129590    -0.1060480
  H        3.2359550     1.8482630    -1.0089550
units angstrom
no_reorient  #important for SAPT in psi4, default
symmetry c1  #important for SAPT in psi4, default
}

set PROPERTIES_ORIGIN ["COM"]
properties('MP2/aug-cc-pvtz', properties = ['dipole'])
--------------------------------------------------------------------------

    Molecular point group: c1
  Charge       = 0
  Multiplicity = 1
  Basis Set: AUG-CC-PVTZ
    Blend: AUG-CC-PVTZ
  Basis Set: (AUG-CC-PVTZ AUX)
    Blend: AUG-CC-PVTZ-JKFIT

    Orbital Energies [Eh]
    ---------------------

    Doubly Occupied:

       1A    -15.571723     2A    -15.550330     3A    -11.290346
       4A    -11.283973     5A    -11.280552     6A    -11.264615
       7A    -11.243673     8A    -11.242488     9A    -11.238815
      10A    -11.237895    11A    -11.233953    12A    -11.223673
      13A    -11.220934    14A     -1.259001    15A     -1.212902
      16A     -1.127413    17A     -1.089897    18A     -1.060065
      19A     -0.997525    20A     -0.980426    21A     -0.870146
      22A     -0.865968    23A     -0.816364    24A     -0.799629
      25A     -0.718370    26A     -0.689849    27A     -0.684689
      28A     -0.663476    29A     -0.652634    30A     -0.626990
      31A     -0.594849    32A     -0.592313    33A     -0.586003
      34A     -0.574009    35A     -0.549166    36A     -0.536382
      37A     -0.518793    38A     -0.500608    39A     -0.493588
      40A     -0.444979    41A     -0.424419    42A     -0.389448
      43A     -0.367349    44A     -0.319334    45A     -0.286536

  @DF-RHF Final Energy:  -531.45162321033661

   => Energetics <=

    Nuclear Repulsion Energy =            714.4230445182964786
    One-Electron Energy =               -2137.3971503332913926
    Two-Electron Energy =                 891.5224826046581938
    Total Energy =                       -531.4516232103366065
  Basis Set: (AUG-CC-PVTZ AUX)
    Blend: AUG-CC-PVTZ-RI
    Molecular point group: c1

    Geometry (in Angstrom), charge = 0, multiplicity = 1:

       Center              X                  Y                   Z               Mass
    ------------   -----------------  -----------------  -----------------  -----------------
         N            1.421037306963     0.932268474398    -0.562189992257    14.003074004430
         N           -0.867150593037     2.168907374398     0.506494107743    14.003074004430
         C           -0.645849593037    -0.208051625602    -0.052134892257    12.000000000000
         C            0.831818406963    -0.159977625602    -0.019767892257    12.000000000000
         C           -1.443948593037     0.939561374398     0.179385107743    12.000000000000
         C           -1.275430593037    -1.433324625602    -0.324157892257    12.000000000000
         C           -2.840621593037     0.791448374398     0.195020107743    12.000000000000
         C            1.567780406963    -1.215334625602     0.544200107743    12.000000000000
         C           -2.661850593037    -1.560923625602    -0.323872892257    12.000000000000
         C           -3.445516593037    -0.435447625602    -0.061479892257    12.000000000000
         C            2.958869406963    -1.174505625602     0.513281107743    12.000000000000
         C            3.586033406963    -0.068957625602    -0.060492892257    12.000000000000
         C            2.785755406963     0.954453374398    -0.566161892257    12.000000000000
         H           -0.656507593037    -2.297899625602    -0.556770892257     1.007825032230
         H           -3.456359593037     1.668257374398     0.391867107743     1.007825032230
         H            1.047263406963    -2.044650625602     1.014201107743     1.007825032230
         H           -3.124413593037    -2.518812625602    -0.546452892257     1.007825032230
         H           -4.530656593037    -0.510252625602    -0.053548892257     1.007825032230
         H            3.543357406963    -1.983765625602     0.944582107743     1.007825032230
         H            0.021051406963     2.314425374398     0.032972107743     1.007825032230
         H           -1.500524593037     2.950436374398     0.372182107743     1.007825032230
         H            4.668671406963     0.009066374398    -0.102932892257     1.007825032230
         H            3.233433406963     1.844370374398    -1.005839892257     1.007825032230

  Basis Set: AUG-CC-PVTZ
    Blend: AUG-CC-PVTZ
  Basis Set: (AUG-CC-PVTZ AUX)
    Blend: AUG-CC-PVTZ-JKFIT
	 Reference Energy          =    -531.4516232103366065 [Eh]
	 Singles Energy            =      -0.0000000000000000 [Eh]
	 Same-Spin Energy          =      -0.5967535964794073 [Eh]
	 Opposite-Spin Energy      =      -1.8215724334439103 [Eh]
	 Correlation Energy        =      -2.4183260299233176 [Eh]
	 Total Energy              =    -533.8699492402598707 [Eh]

	 ================> DF-SCS-MP2 Energies <==================
	-----------------------------------------------------------
	 SCS Same-Spin Scale       =       0.3333333333333333 [-]
	 SCS Opposite-Spin Scale   =       1.2000000000000000 [-]
	 SCS Same-Spin Energy      =      -0.1989178654931358 [Eh]
	 SCS Opposite-Spin Energy  =      -2.1858869201326923 [Eh]
	 SCS Correlation Energy    =      -2.3848047856258279 [Eh]
	 SCS Total Energy          =    -533.8364279959624810 [Eh]
	-----------------------------------------------------------

  Dipole Moment: [D]
     X:     1.5843      Y:    -0.4431      Z:     0.0243     Total:     1.6453

*** Psi4 exiting successfully. Buy a developer a beer!
