                               Psi4 1.3.2 release

  ==> Input File <==

--------------------------------------------------------------------------
#psi4
#
memory 32 gb

molecule  {
0 1
  N        1.4447430     0.9271060    -0.5600120
  N       -0.8646290     2.1728000     0.5033790
  C       -0.6433280    -0.2041590    -0.0552500
  C        0.9244762     0.0038663    -0.1021991
  C       -1.4414270     0.9434540     0.1762700
  C       -1.2729090    -1.4294320    -0.3272730
  C       -2.8381000     0.7953410     0.1919050
  C        1.5703020    -1.2114420     0.5410850
  C       -2.6593290    -1.5570310    -0.3269880
  C       -3.4429950    -0.4315550    -0.0645950
  C        2.9613910    -1.1706130     0.5101660
  C        3.5885550    -0.0650650    -0.0636080
  C        2.7882770     0.9583460    -0.5692770
  H       -0.6539860    -2.2940070    -0.5598860
  H       -3.4538380     1.6721500     0.3887520
  H        1.0497850    -2.0407580     1.0110860
  H       -3.1218920    -2.5149200    -0.5495680
  H       -4.5281350    -0.5063600    -0.0566640
  H        3.5458790    -1.9798730     0.9414670
  H        0.0235730     2.3183180     0.0298570
  H       -1.4980030     2.9543290     0.3690670
  H        4.6711930     0.0129590    -0.1060480
  H        3.2359550     1.8482630    -1.0089550
units angstrom
no_reorient  #important for SAPT in psi4, default
symmetry c1  #important for SAPT in psi4, default
}

set PROPERTIES_ORIGIN ["COM"]
properties('MP2/aug-cc-pvtz', properties = ['dipole'])
--------------------------------------------------------------------------

    Molecular point group: c1
  Charge       = 0
  Multiplicity = 1
  Basis Set: AUG-CC-PVTZ
    Blend: AUG-CC-PVTZ
  Basis Set: (AUG-CC-PVTZ AUX)
    Blend: AUG-CC-PVTZ-JKFIT

    Orbital Energies [Eh]
    ---------------------

    Doubly Occupied:

       1A    -15.557168     2A    -15.551259     3A    -11.288217
       4A    -11.282411     5A    -11.274906     6A    -11.258458
       7A    -11.250549     8A    -11.246353     9A    -11.237719
      10A    -11.234702    11A    -11.233897    12A    -11.221122
      13A    -11.219980    14A     -1.331747    15A     -1.214513
      16A     -1.123021    17A     -1.101779    18A     -1.043299
      19A     -0.996171    20A     -0.977390    21A     -0.885674
      22A     -0.851430    23A     -0.818591    24A     -0.796117
      25A     -0.721835    26A     -0.696060    27A     -0.681820
      28A     -0.665551    29A     -0.658345    30A     -0.622853
      31A     -0.592856    32A     -0.585792    33A     -0.584497
      34A     -0.580621    35A     -0.575793    36A     -0.534803
      37A     -0.526243    38A     -0.505510    39A     -0.492996
      40A     -0.443811    41A     -0.414213    42A     -0.396118
      43A     -0.351826    44A     -0.319229    45A     -0.287103

  @DF-RHF Final Energy:  -531.40188097463943

   => Energetics <=

    Nuclear Repulsion Energy =            715.6501585850087395
    One-Electron Energy =               -2139.6353843906349539
    Two-Electron Energy =                 892.5833448309867890
    Total Energy =                       -531.4018809746394254
  Basis Set: (AUG-CC-PVTZ AUX)
    Blend: AUG-CC-PVTZ-RI
    Molecular point group: c1

    Geometry (in Angstrom), charge = 0, multiplicity = 1:

       Center              X                  Y                   Z               Mass
    ------------   -----------------  -----------------  -----------------  -----------------
         N            1.434117918733     0.912673804736    -0.551736668641    14.003074004430
         N           -0.875254081267     2.158367804736     0.511654331359    14.003074004430
         C           -0.653953081267    -0.218591195264    -0.046974668641    12.000000000000
         C            0.913851118733    -0.010565895264    -0.093923768641    12.000000000000
         C           -1.452052081267     0.929021804736     0.184545331359    12.000000000000
         C           -1.283534081267    -1.443864195264    -0.318997668641    12.000000000000
         C           -2.848725081267     0.780908804736     0.200180331359    12.000000000000
         C            1.559676918733    -1.225874195264     0.549360331359    12.000000000000
         C           -2.669954081267    -1.571463195264    -0.318712668641    12.000000000000
         C           -3.453620081267    -0.445987195264    -0.056319668641    12.000000000000
         C            2.950765918733    -1.185045195264     0.518441331359    12.000000000000
         C            3.577929918733    -0.079497195264    -0.055332668641    12.000000000000
         C            2.777651918733     0.943913804736    -0.561001668641    12.000000000000
         H           -0.664611081267    -2.308439195264    -0.551610668641     1.007825032230
         H           -3.464463081267     1.657717804736     0.397027331359     1.007825032230
         H            1.039159918733    -2.055190195264     1.019361331359     1.007825032230
         H           -3.132517081267    -2.529352195264    -0.541292668641     1.007825032230
         H           -4.538760081267    -0.520792195264    -0.048388668641     1.007825032230
         H            3.535253918733    -1.994305195264     0.949742331359     1.007825032230
         H            0.012947918733     2.303885804736     0.038132331359     1.007825032230
         H           -1.508628081267     2.939896804736     0.377342331359     1.007825032230
         H            4.660567918733    -0.001473195264    -0.097772668641     1.007825032230
         H            3.225329918733     1.833830804736    -1.000679668641     1.007825032230

  Basis Set: AUG-CC-PVTZ
    Blend: AUG-CC-PVTZ
  Basis Set: (AUG-CC-PVTZ AUX)
    Blend: AUG-CC-PVTZ-JKFIT
	 Reference Energy          =    -531.4018809746394254 [Eh]
	 Singles Energy            =      -0.0000000000000000 [Eh]
	 Same-Spin Energy          =      -0.5932354481312770 [Eh]
	 Opposite-Spin Energy      =      -1.8175729551062465 [Eh]
	 Correlation Energy        =      -2.4108084032375237 [Eh]
	 Total Energy              =    -533.8126893778769499 [Eh]

	 ================> DF-SCS-MP2 Energies <==================
	-----------------------------------------------------------
	 SCS Same-Spin Scale       =       0.3333333333333333 [-]
	 SCS Opposite-Spin Scale   =       1.2000000000000000 [-]
	 SCS Same-Spin Energy      =      -0.1977451493770923 [Eh]
	 SCS Opposite-Spin Energy  =      -2.1810875461274959 [Eh]
	 SCS Correlation Energy    =      -2.3788326955045882 [Eh]
	 SCS Total Energy          =    -533.7807136701439958 [Eh]
	-----------------------------------------------------------

  Dipole Moment: [D]
     X:     1.7640      Y:    -0.2656      Z:    -0.0943     Total:     1.7864

*** Psi4 exiting successfully. Buy a developer a beer!
