                               Psi4 1.3.2 release

  ==> Input File <==

--------------------------------------------------------------------------
#psi4
#
memory 32 gb

molecule  {
0 1
  N        1.4447430     0.9271060    -0.5600120
  N       -0.8646290     2.1728000     0.5033790
  C       -0.6433280    -0.2041590    -0.0552500
  C        0.8343400    -0.1560850    -0.0228830
  C       -1.4414270     0.9434540     0.1762700
  C       -1.2729090    -1.4294320    -0.3272730
  C       -2.8381000     0.7953410     0.1919050
  C        1.5703020    -1.2114420     0.5410850
  C       -2.6593290    -1.5570310    -0.3269880
  C       -3.4429950    -0.4315550    -0.0645950
  C        2.9613910    -1.1706130     0.5101660
  C        3.5885550    -0.0650650    -0.0636080
  C        2.6883064     0.9560215    -0.5685876
  H       -0.6539860    -2.2940070    -0.5598860
  H       -3.4538380     1.6721500     0.3887520
  H        1.0497850    -2.0407580     1.0110860
  H       -3.1218920    -2.5149200    -0.5495680
  H       -4.5281350    -0.5063600    -0.0566640
  H        3.5458790    -1.9798730     0.9414670
  H        0.0235730     2.3183180     0.0298570
  H       -1.4980030     2.9543290     0.3690670
  H        4.6711930     0.0129590    -0.1060480
  H        3.2359550     1.8482630    -1.0089550
units angstrom
no_reorient  #important for SAPT in psi4, default
symmetry c1  #important for SAPT in psi4, default
}

set PROPERTIES_ORIGIN ["COM"]
properties('MP2/aug-cc-pvtz', properties = ['dipole'])
--------------------------------------------------------------------------

    Molecular point group: c1
  Charge       = 0
  Multiplicity = 1
  Basis Set: AUG-CC-PVTZ
    Blend: AUG-CC-PVTZ
  Basis Set: (AUG-CC-PVTZ AUX)
    Blend: AUG-CC-PVTZ-JKFIT

    Orbital Energies [Eh]
    ---------------------

    Doubly Occupied:

       1A    -15.563779     2A    -15.552427     3A    -11.290192
       4A    -11.282783     5A    -11.281112     6A    -11.261077
       7A    -11.245956     8A    -11.240729     9A    -11.238918
      10A    -11.238229    11A    -11.234839    12A    -11.224299
      13A    -11.221375    14A     -1.291634    15A     -1.216871
      16A     -1.129082    17A     -1.093696    18A     -1.060190
      19A     -0.995052    20A     -0.978216    21A     -0.879531
      22A     -0.855333    23A     -0.817724    24A     -0.803145
      25A     -0.718100    26A     -0.693893    27A     -0.685131
      28A     -0.668157    29A     -0.653893    30A     -0.622930
      31A     -0.595481    32A     -0.588272    33A     -0.585533
      34A     -0.576144    35A     -0.561600    36A     -0.539277
      37A     -0.523692    38A     -0.502239    39A     -0.491531
      40A     -0.445840    41A     -0.414041    42A     -0.398535
      43A     -0.368792    44A     -0.316024    45A     -0.284984

  @DF-RHF Final Energy:  -531.44329255843832

   => Energetics <=

    Nuclear Repulsion Energy =            716.3330469903424955
    One-Electron Energy =               -2141.0921221832199990
    Two-Electron Energy =                 893.3157826344390742
    Total Energy =                       -531.4432925584383156
  Basis Set: (AUG-CC-PVTZ AUX)
    Blend: AUG-CC-PVTZ-RI
    Molecular point group: c1

    Geometry (in Angstrom), charge = 0, multiplicity = 1:

       Center              X                  Y                   Z               Mass
    ------------   -----------------  -----------------  -----------------  -----------------
         N            1.447530563410     0.924122883071    -0.557381313355    14.003074004430
         N           -0.861841436590     2.169816883071     0.506009686645    14.003074004430
         C           -0.640540436590    -0.207142116929    -0.052619313355    12.000000000000
         C            0.837127563410    -0.159068116929    -0.020252313355    12.000000000000
         C           -1.438639436590     0.940470883071     0.178900686645    12.000000000000
         C           -1.270121436590    -1.432415116929    -0.324642313355    12.000000000000
         C           -2.835312436590     0.792357883071     0.194535686645    12.000000000000
         C            1.573089563410    -1.214425116929     0.543715686645    12.000000000000
         C           -2.656541436590    -1.560014116929    -0.324357313355    12.000000000000
         C           -3.440207436590    -0.434538116929    -0.061964313355    12.000000000000
         C            2.964178563410    -1.173596116929     0.512796686645    12.000000000000
         C            3.591342563410    -0.068048116929    -0.060977313355    12.000000000000
         C            2.691093963410     0.953038383071    -0.565956913355    12.000000000000
         H           -0.651198436590    -2.296990116929    -0.557255313355     1.007825032230
         H           -3.451050436590     1.669166883071     0.391382686645     1.007825032230
         H            1.052572563410    -2.043741116929     1.013716686645     1.007825032230
         H           -3.119104436590    -2.517903116929    -0.546937313355     1.007825032230
         H           -4.525347436590    -0.509343116929    -0.054033313355     1.007825032230
         H            3.548666563410    -1.982856116929     0.944097686645     1.007825032230
         H            0.026360563410     2.315334883071     0.032487686645     1.007825032230
         H           -1.495215436590     2.951345883071     0.371697686645     1.007825032230
         H            4.673980563410     0.009975883071    -0.103417313355     1.007825032230
         H            3.238742563410     1.845279883071    -1.006324313355     1.007825032230

  Basis Set: AUG-CC-PVTZ
    Blend: AUG-CC-PVTZ
  Basis Set: (AUG-CC-PVTZ AUX)
    Blend: AUG-CC-PVTZ-JKFIT
	 Reference Energy          =    -531.4432925584383156 [Eh]
	 Singles Energy            =      -0.0000000000000000 [Eh]
	 Same-Spin Energy          =      -0.5956242170479149 [Eh]
	 Opposite-Spin Energy      =      -1.8192506698439361 [Eh]
	 Correlation Energy        =      -2.4148748868918508 [Eh]
	 Total Energy              =    -533.8581674453301957 [Eh]

	 ================> DF-SCS-MP2 Energies <==================
	-----------------------------------------------------------
	 SCS Same-Spin Scale       =       0.3333333333333333 [-]
	 SCS Opposite-Spin Scale   =       1.2000000000000000 [-]
	 SCS Same-Spin Energy      =      -0.1985414056826383 [Eh]
	 SCS Opposite-Spin Energy  =      -2.1831008038127231 [Eh]
	 SCS Correlation Energy    =      -2.3816422094953613 [Eh]
	 SCS Total Energy          =    -533.8249347679336552 [Eh]
	-----------------------------------------------------------

  Dipole Moment: [D]
     X:     1.4485      Y:    -0.4160      Z:     0.0071     Total:     1.5071

*** Psi4 exiting successfully. Buy a developer a beer!
