                               Psi4 1.3.2 release

  ==> Input File <==

--------------------------------------------------------------------------
#psi4
#
memory 32 gb

molecule  {
0 1
  N        1.4447430     0.9271060    -0.5600120
  N       -0.8646290     2.1728000     0.5033790
  C       -0.6433280    -0.2041590    -0.0552500
  C        0.8343400    -0.1560850    -0.0228830
  C       -1.4414270     0.9434540     0.1762700
  C       -1.2729090    -1.4294320    -0.3272730
  C       -2.8381000     0.7953410     0.1919050
  C        1.5703020    -1.2114420     0.5410850
  C       -2.6593290    -1.5570310    -0.3269880
  C       -3.4429950    -0.4315550    -0.0645950
  C        2.9613910    -1.1706130     0.5101660
  C        3.5885550    -0.0650650    -0.0636080
  C        2.9882182     0.9629951    -0.5706558
  H       -0.6539860    -2.2940070    -0.5598860
  H       -3.4538380     1.6721500     0.3887520
  H        1.0497850    -2.0407580     1.0110860
  H       -3.1218920    -2.5149200    -0.5495680
  H       -4.5281350    -0.5063600    -0.0566640
  H        3.5458790    -1.9798730     0.9414670
  H        0.0235730     2.3183180     0.0298570
  H       -1.4980030     2.9543290     0.3690670
  H        4.6711930     0.0129590    -0.1060480
  H        3.2359550     1.8482630    -1.0089550
units angstrom
no_reorient  #important for SAPT in psi4, default
symmetry c1  #important for SAPT in psi4, default
}

set PROPERTIES_ORIGIN ["COM"]
properties('MP2/aug-cc-pvtz', properties = ['dipole'])
--------------------------------------------------------------------------

    Molecular point group: c1
  Charge       = 0
  Multiplicity = 1
  Basis Set: AUG-CC-PVTZ
    Blend: AUG-CC-PVTZ
  Basis Set: (AUG-CC-PVTZ AUX)
    Blend: AUG-CC-PVTZ-JKFIT

    Orbital Energies [Eh]
    ---------------------

    Doubly Occupied:

       1A    -15.572141     2A    -15.549207     3A    -11.289222
       4A    -11.280584     5A    -11.275859     6A    -11.266453
       7A    -11.246961     8A    -11.239641     9A    -11.238159
      10A    -11.237078    11A    -11.234348    12A    -11.223584
      13A    -11.221175    14A     -1.233745    15A     -1.205594
      16A     -1.126971    17A     -1.090520    18A     -1.056539
      19A     -1.005183    20A     -0.982722    21A     -0.879203
      22A     -0.859408    23A     -0.816722    24A     -0.797244
      25A     -0.722661    26A     -0.688104    27A     -0.686489
      28A     -0.662849    29A     -0.653374    30A     -0.629432
      31A     -0.602668    32A     -0.590527    33A     -0.585574
      34A     -0.574443    35A     -0.540180    36A     -0.530553
      37A     -0.512513    38A     -0.499573    39A     -0.495331
      40A     -0.443917    41A     -0.410245    42A     -0.394406
      43A     -0.356573    44A     -0.325394    45A     -0.288593

  @DF-RHF Final Energy:  -531.40896312394682

   => Energetics <=

    Nuclear Repulsion Energy =            711.7840716402043881
    One-Electron Energy =               -2132.1427506382938191
    Two-Electron Energy =                 888.9497158741427256
    Total Energy =                       -531.4089631239468190
  Basis Set: (AUG-CC-PVTZ AUX)
    Blend: AUG-CC-PVTZ-RI
    Molecular point group: c1

    Geometry (in Angstrom), charge = 0, multiplicity = 1:

       Center              X                  Y                   Z               Mass
    ------------   -----------------  -----------------  -----------------  -----------------
         N            1.426370823685     0.923630873217    -0.557235395209    14.003074004430
         N           -0.883001176315     2.169324873217     0.506155604791    14.003074004430
         C           -0.661700176315    -0.207634126783    -0.052473395209    12.000000000000
         C            0.815967823685    -0.159560126783    -0.020106395209    12.000000000000
         C           -1.459799176315     0.939978873217     0.179046604791    12.000000000000
         C           -1.291281176315    -1.432907126783    -0.324496395209    12.000000000000
         C           -2.856472176315     0.791865873217     0.194681604791    12.000000000000
         C            1.551929823685    -1.214917126783     0.543861604791    12.000000000000
         C           -2.677701176315    -1.560506126783    -0.324211395209    12.000000000000
         C           -3.461367176315    -0.435030126783    -0.061818395209    12.000000000000
         C            2.943018823685    -1.174088126783     0.512942604791    12.000000000000
         C            3.570182823685    -0.068540126783    -0.060831395209    12.000000000000
         C            2.969846023685     0.959519973217    -0.567879195209    12.000000000000
         H           -0.672358176315    -2.297482126783    -0.557109395209     1.007825032230
         H           -3.472210176315     1.668674873217     0.391528604791     1.007825032230
         H            1.031412823685    -2.044233126783     1.013862604791     1.007825032230
         H           -3.140264176315    -2.518395126783    -0.546791395209     1.007825032230
         H           -4.546507176315    -0.509835126783    -0.053887395209     1.007825032230
         H            3.527506823685    -1.983348126783     0.944243604791     1.007825032230
         H            0.005200823685     2.314842873217     0.032633604791     1.007825032230
         H           -1.516375176315     2.950853873217     0.371843604791     1.007825032230
         H            4.652820823685     0.009483873217    -0.103271395209     1.007825032230
         H            3.217582823685     1.844787873217    -1.006178395209     1.007825032230

  Basis Set: AUG-CC-PVTZ
    Blend: AUG-CC-PVTZ
  Basis Set: (AUG-CC-PVTZ AUX)
    Blend: AUG-CC-PVTZ-JKFIT
	 Reference Energy          =    -531.4089631239468190 [Eh]
	 Singles Energy            =      -0.0000000000000000 [Eh]
	 Same-Spin Energy          =      -0.5972309829211915 [Eh]
	 Opposite-Spin Energy      =      -1.8265428916362239 [Eh]
	 Correlation Energy        =      -2.4237738745574156 [Eh]
	 Total Energy              =    -533.8327369985042878 [Eh]

	 ================> DF-SCS-MP2 Energies <==================
	-----------------------------------------------------------
	 SCS Same-Spin Scale       =       0.3333333333333333 [-]
	 SCS Opposite-Spin Scale   =       1.2000000000000000 [-]
	 SCS Same-Spin Energy      =      -0.1990769943070638 [Eh]
	 SCS Opposite-Spin Energy  =      -2.1918514699634684 [Eh]
	 SCS Correlation Energy    =      -2.3909284642705320 [Eh]
	 SCS Total Energy          =    -533.7998915882174060 [Eh]
	-----------------------------------------------------------

  Dipole Moment: [D]
     X:     1.5481      Y:    -0.4150      Z:     0.0192     Total:     1.6028

*** Psi4 exiting successfully. Buy a developer a beer!
