                               Psi4 1.3.2 release

  ==> Input File <==

--------------------------------------------------------------------------
#psi4
#
memory 32 gb

molecule  {
0 1
  N        1.4447430     0.9271060    -0.5600120
  N       -0.8646290     2.1728000     0.5033790
  C       -0.6433280    -0.2041590    -0.0552500
  C        0.8343400    -0.1560850    -0.0228830
  C       -1.5211330     0.8864838     0.1627767
  C       -1.2729090    -1.4294320    -0.3272730
  C       -2.8381000     0.7953410     0.1919050
  C        1.5703020    -1.2114420     0.5410850
  C       -2.6593290    -1.5570310    -0.3269880
  C       -3.4429950    -0.4315550    -0.0645950
  C        2.9613910    -1.1706130     0.5101660
  C        3.5885550    -0.0650650    -0.0636080
  C        2.7882770     0.9583460    -0.5692770
  H       -0.6539860    -2.2940070    -0.5598860
  H       -3.4538380     1.6721500     0.3887520
  H        1.0497850    -2.0407580     1.0110860
  H       -3.1218920    -2.5149200    -0.5495680
  H       -4.5281350    -0.5063600    -0.0566640
  H        3.5458790    -1.9798730     0.9414670
  H        0.0235730     2.3183180     0.0298570
  H       -1.4980030     2.9543290     0.3690670
  H        4.6711930     0.0129590    -0.1060480
  H        3.2359550     1.8482630    -1.0089550
units angstrom
no_reorient  #important for SAPT in psi4, default
symmetry c1  #important for SAPT in psi4, default
}

set PROPERTIES_ORIGIN ["COM"]
properties('MP2/aug-cc-pvtz', properties = ['dipole'])
--------------------------------------------------------------------------

    Molecular point group: c1
  Charge       = 0
  Multiplicity = 1
  Basis Set: AUG-CC-PVTZ
    Blend: AUG-CC-PVTZ
  Basis Set: (AUG-CC-PVTZ AUX)
    Blend: AUG-CC-PVTZ-JKFIT

    Orbital Energies [Eh]
    ---------------------

    Doubly Occupied:

       1A    -15.569701     2A    -15.540528     3A    -11.293078
       4A    -11.281765     5A    -11.272542     6A    -11.264439
       7A    -11.244256     8A    -11.244128     9A    -11.240768
      10A    -11.240602    11A    -11.239306    12A    -11.225523
      13A    -11.218025    14A     -1.262325    15A     -1.194953
      16A     -1.124254    17A     -1.089903    18A     -1.065392
      19A     -1.006952    20A     -0.984863    21A     -0.875919
      22A     -0.865217    23A     -0.817483    24A     -0.802840
      25A     -0.721970    26A     -0.687461    27A     -0.678673
      28A     -0.660919    29A     -0.649547    30A     -0.619667
      31A     -0.605893    32A     -0.592636    33A     -0.581263
      34A     -0.574143    35A     -0.551269    36A     -0.536426
      37A     -0.520346    38A     -0.505672    39A     -0.490977
      40A     -0.434501    41A     -0.420691    42A     -0.389724
      43A     -0.370263    44A     -0.324718    45A     -0.295118

  @DF-RHF Final Energy:  -531.44175473456346

   => Energetics <=

    Nuclear Repulsion Energy =            714.7070182657854502
    One-Electron Energy =               -2137.9442761165751108
    Two-Electron Energy =                 891.7955031162263140
    Total Energy =                       -531.4417547345634603
  Basis Set: (AUG-CC-PVTZ AUX)
    Blend: AUG-CC-PVTZ-RI
    Molecular point group: c1

    Geometry (in Angstrom), charge = 0, multiplicity = 1:

       Center              X                  Y                   Z               Mass
    ------------   -----------------  -----------------  -----------------  -----------------
         N            1.446100830863     0.927978312531    -0.556380678366    14.003074004430
         N           -0.863271169137     2.173672312531     0.507010321634    14.003074004430
         C           -0.641970169137    -0.203286687469    -0.051618678366    12.000000000000
         C            0.835697830863    -0.155212687469    -0.019251678366    12.000000000000
         C           -1.519775169137     0.887356112531     0.166408021634    12.000000000000
         C           -1.271551169137    -1.428559687469    -0.323641678366    12.000000000000
         C           -2.836742169137     0.796213312531     0.195536321634    12.000000000000
         C            1.571659830863    -1.210569687469     0.544716321634    12.000000000000
         C           -2.657971169137    -1.556158687469    -0.323356678366    12.000000000000
         C           -3.441637169137    -0.430682687469    -0.060963678366    12.000000000000
         C            2.962748830863    -1.169740687469     0.513797321634    12.000000000000
         C            3.589912830863    -0.064192687469    -0.059976678366    12.000000000000
         C            2.789634830863     0.959218312531    -0.565645678366    12.000000000000
         H           -0.652628169137    -2.293134687469    -0.556254678366     1.007825032230
         H           -3.452480169137     1.673022312531     0.392383321634     1.007825032230
         H            1.051142830863    -2.039885687469     1.014717321634     1.007825032230
         H           -3.120534169137    -2.514047687469    -0.545936678366     1.007825032230
         H           -4.526777169137    -0.505487687469    -0.053032678366     1.007825032230
         H            3.547236830863    -1.979000687469     0.945098321634     1.007825032230
         H            0.024930830863     2.319190312531     0.033488321634     1.007825032230
         H           -1.496645169137     2.955201312531     0.372698321634     1.007825032230
         H            4.672550830863     0.013831312531    -0.102416678366     1.007825032230
         H            3.237312830863     1.849135312531    -1.005323678366     1.007825032230

  Basis Set: AUG-CC-PVTZ
    Blend: AUG-CC-PVTZ
  Basis Set: (AUG-CC-PVTZ AUX)
    Blend: AUG-CC-PVTZ-JKFIT
	 Reference Energy          =    -531.4417547345634603 [Eh]
	 Singles Energy            =      -0.0000000000000000 [Eh]
	 Same-Spin Energy          =      -0.5961656722466427 [Eh]
	 Opposite-Spin Energy      =      -1.8210203455137093 [Eh]
	 Correlation Energy        =      -2.4171860177603519 [Eh]
	 Total Energy              =    -533.8589407523238606 [Eh]

	 ================> DF-SCS-MP2 Energies <==================
	-----------------------------------------------------------
	 SCS Same-Spin Scale       =       0.3333333333333333 [-]
	 SCS Opposite-Spin Scale   =       1.2000000000000000 [-]
	 SCS Same-Spin Energy      =      -0.1987218907488809 [Eh]
	 SCS Opposite-Spin Energy  =      -2.1852244146164512 [Eh]
	 SCS Correlation Energy    =      -2.3839463053653320 [Eh]
	 SCS Total Energy          =    -533.8257010399288447 [Eh]
	-----------------------------------------------------------

  Dipole Moment: [D]
     X:     1.4040      Y:    -0.9057      Z:    -0.1120     Total:     1.6745

*** Psi4 exiting successfully. Buy a developer a beer!
