                               Psi4 1.3.2 release

  ==> Input File <==

--------------------------------------------------------------------------
#psi4
#
memory 32 gb

molecule  {
0 1
  N        1.4447430     0.9271060    -0.5600120
  N       -0.8646290     2.1728000     0.5033790
  C       -0.6377613    -0.2959792    -0.0084287
  C        0.8343400    -0.1560850    -0.0228830
  C       -1.4414270     0.9434540     0.1762700
  C       -1.2729090    -1.4294320    -0.3272730
  C       -2.8381000     0.7953410     0.1919050
  C        1.5703020    -1.2114420     0.5410850
  C       -2.6593290    -1.5570310    -0.3269880
  C       -3.4429950    -0.4315550    -0.0645950
  C        2.9613910    -1.1706130     0.5101660
  C        3.5885550    -0.0650650    -0.0636080
  C        2.7882770     0.9583460    -0.5692770
  H       -0.6539860    -2.2940070    -0.5598860
  H       -3.4538380     1.6721500     0.3887520
  H        1.0497850    -2.0407580     1.0110860
  H       -3.1218920    -2.5149200    -0.5495680
  H       -4.5281350    -0.5063600    -0.0566640
  H        3.5458790    -1.9798730     0.9414670
  H        0.0235730     2.3183180     0.0298570
  H       -1.4980030     2.9543290     0.3690670
  H        4.6711930     0.0129590    -0.1060480
  H        3.2359550     1.8482630    -1.0089550
units angstrom
no_reorient  #important for SAPT in psi4, default
symmetry c1  #important for SAPT in psi4, default
}

set PROPERTIES_ORIGIN ["COM"]
properties('MP2/aug-cc-pvtz', properties = ['dipole'])
--------------------------------------------------------------------------

    Molecular point group: c1
  Charge       = 0
  Multiplicity = 1
  Basis Set: AUG-CC-PVTZ
    Blend: AUG-CC-PVTZ
  Basis Set: (AUG-CC-PVTZ AUX)
    Blend: AUG-CC-PVTZ-JKFIT

    Orbital Energies [Eh]
    ---------------------

    Doubly Occupied:

       1A    -15.571087     2A    -15.554856     3A    -11.290647
       4A    -11.288144     5A    -11.282790     6A    -11.263065
       7A    -11.243169     8A    -11.240626     9A    -11.237702
      10A    -11.236512    11A    -11.232136    12A    -11.220389
      13A    -11.218713    14A     -1.262760    15A     -1.212900
      16A     -1.132959    17A     -1.089024    18A     -1.063320
      19A     -1.003739    20A     -0.973988    21A     -0.871267
      22A     -0.864757    23A     -0.811395    24A     -0.804048
      25A     -0.719552    26A     -0.692851    27A     -0.684270
      28A     -0.662537    29A     -0.656902    30A     -0.625865
      31A     -0.596428    32A     -0.592276    33A     -0.585997
      34A     -0.573971    35A     -0.550656    36A     -0.536411
      37A     -0.521304    38A     -0.506325    39A     -0.483315
      40A     -0.449172    41A     -0.419495    42A     -0.389552
      43A     -0.371713    44A     -0.323428    45A     -0.280836

  @DF-RHF Final Energy:  -531.44385381853431

   => Energetics <=

    Nuclear Repulsion Energy =            714.3851024940074694
    One-Electron Energy =               -2137.2722156577110582
    Two-Electron Energy =                 891.4432593451692810
    Total Energy =                       -531.4438538185343077
  Basis Set: (AUG-CC-PVTZ AUX)
    Blend: AUG-CC-PVTZ-RI
    Molecular point group: c1

    Geometry (in Angstrom), charge = 0, multiplicity = 1:

       Center              X                  Y                   Z               Mass
    ------------   -----------------  -----------------  -----------------  -----------------
         N            1.440084568290     0.930437091843    -0.560636066909    14.003074004430
         N           -0.869287431710     2.176131091843     0.502754933091    14.003074004430
         C           -0.642419731710    -0.292648108157    -0.009052766909    12.000000000000
         C            0.829681568290    -0.152753908157    -0.023507066909    12.000000000000
         C           -1.446085431710     0.946785091843     0.175645933091    12.000000000000
         C           -1.277567431710    -1.426100908157    -0.327897066909    12.000000000000
         C           -2.842758431710     0.798672091843     0.191280933091    12.000000000000
         C            1.565643568290    -1.208110908157     0.540460933091    12.000000000000
         C           -2.663987431710    -1.553699908157    -0.327612066909    12.000000000000
         C           -3.447653431710    -0.428223908157    -0.065219066909    12.000000000000
         C            2.956732568290    -1.167281908157     0.509541933091    12.000000000000
         C            3.583896568290    -0.061733908157    -0.064232066909    12.000000000000
         C            2.783618568290     0.961677091843    -0.569901066909    12.000000000000
         H           -0.658644431710    -2.290675908157    -0.560510066909     1.007825032230
         H           -3.458496431710     1.675481091843     0.388127933091     1.007825032230
         H            1.045126568290    -2.037426908157     1.010461933091     1.007825032230
         H           -3.126550431710    -2.511588908157    -0.550192066909     1.007825032230
         H           -4.532793431710    -0.503028908157    -0.057288066909     1.007825032230
         H            3.541220568290    -1.976541908157     0.940842933091     1.007825032230
         H            0.018914568290     2.321649091843     0.029232933091     1.007825032230
         H           -1.502661431710     2.957660091843     0.368442933091     1.007825032230
         H            4.666534568290     0.016290091843    -0.106672066909     1.007825032230
         H            3.231296568290     1.851594091843    -1.009579066909     1.007825032230

  Basis Set: AUG-CC-PVTZ
    Blend: AUG-CC-PVTZ
  Basis Set: (AUG-CC-PVTZ AUX)
    Blend: AUG-CC-PVTZ-JKFIT
	 Reference Energy          =    -531.4438538185343077 [Eh]
	 Singles Energy            =      -0.0000000000000000 [Eh]
	 Same-Spin Energy          =      -0.5964381990231397 [Eh]
	 Opposite-Spin Energy      =      -1.8209523536109540 [Eh]
	 Correlation Energy        =      -2.4173905526340937 [Eh]
	 Total Energy              =    -533.8612443711683682 [Eh]

	 ================> DF-SCS-MP2 Energies <==================
	-----------------------------------------------------------
	 SCS Same-Spin Scale       =       0.3333333333333333 [-]
	 SCS Opposite-Spin Scale   =       1.2000000000000000 [-]
	 SCS Same-Spin Energy      =      -0.1988127330077132 [Eh]
	 SCS Opposite-Spin Energy  =      -2.1851428243331448 [Eh]
	 SCS Correlation Energy    =      -2.3839555573408582 [Eh]
	 SCS Total Energy          =    -533.8278093758751766 [Eh]
	-----------------------------------------------------------

  Dipole Moment: [D]
     X:     1.6058      Y:    -0.3376      Z:     0.0176     Total:     1.6410

*** Psi4 exiting successfully. Buy a developer a beer!
