                               Psi4 1.3.2 release

  ==> Input File <==

--------------------------------------------------------------------------
#psi4
#
memory 32 gb

molecule  {
0 1
  N        1.4447430     0.9271060    -0.5600120
  N       -0.8646290     2.1728000     0.5033790
  C       -0.7268851    -0.2566071    -0.0621879
  C        0.8343400    -0.1560850    -0.0228830
  C       -1.4414270     0.9434540     0.1762700
  C       -1.2729090    -1.4294320    -0.3272730
  C       -2.8381000     0.7953410     0.1919050
  C        1.5703020    -1.2114420     0.5410850
  C       -2.6593290    -1.5570310    -0.3269880
  C       -3.4429950    -0.4315550    -0.0645950
  C        2.9613910    -1.1706130     0.5101660
  C        3.5885550    -0.0650650    -0.0636080
  C        2.7882770     0.9583460    -0.5692770
  H       -0.6539860    -2.2940070    -0.5598860
  H       -3.4538380     1.6721500     0.3887520
  H        1.0497850    -2.0407580     1.0110860
  H       -3.1218920    -2.5149200    -0.5495680
  H       -4.5281350    -0.5063600    -0.0566640
  H        3.5458790    -1.9798730     0.9414670
  H        0.0235730     2.3183180     0.0298570
  H       -1.4980030     2.9543290     0.3690670
  H        4.6711930     0.0129590    -0.1060480
  H        3.2359550     1.8482630    -1.0089550
units angstrom
no_reorient  #important for SAPT in psi4, default
symmetry c1  #important for SAPT in psi4, default
}

set PROPERTIES_ORIGIN ["COM"]
properties('MP2/aug-cc-pvtz', properties = ['dipole'])
--------------------------------------------------------------------------

    Molecular point group: c1
  Charge       = 0
  Multiplicity = 1
  Basis Set: AUG-CC-PVTZ
    Blend: AUG-CC-PVTZ
  Basis Set: (AUG-CC-PVTZ AUX)
    Blend: AUG-CC-PVTZ-JKFIT

    Orbital Energies [Eh]
    ---------------------

    Doubly Occupied:

       1A    -15.570209     2A    -15.553784     3A    -11.293406
       4A    -11.281926     5A    -11.279970     6A    -11.263427
       7A    -11.243065     8A    -11.241548     9A    -11.234861
      10A    -11.234542    11A    -11.228481    12A    -11.221759
      13A    -11.219573    14A     -1.260700    15A     -1.215040
      16A     -1.137102    17A     -1.088814    18A     -1.055127
      19A     -1.004969    20A     -0.980453    21A     -0.864811
      22A     -0.862358    23A     -0.819328    24A     -0.803705
      25A     -0.718191    26A     -0.691438    27A     -0.684342
      28A     -0.660009    29A     -0.652430    30A     -0.627063
      31A     -0.599407    32A     -0.592532    33A     -0.589313
      34A     -0.571626    35A     -0.550166    36A     -0.537024
      37A     -0.522682    38A     -0.507255    39A     -0.480830
      40A     -0.448770    41A     -0.417049    42A     -0.388296
      43A     -0.367575    44A     -0.326110    45A     -0.286924

  @DF-RHF Final Energy:  -531.44331766362757

   => Energetics <=

    Nuclear Repulsion Energy =            714.5259229452617546
    One-Electron Energy =               -2137.5825159036949117
    Two-Electron Energy =                 891.6132752948055895
    Total Energy =                       -531.4433176636275675
  Basis Set: (AUG-CC-PVTZ AUX)
    Blend: AUG-CC-PVTZ-RI
    Molecular point group: c1

    Geometry (in Angstrom), charge = 0, multiplicity = 1:

       Center              X                  Y                   Z               Mass
    ------------   -----------------  -----------------  -----------------  -----------------
         N            1.446372538324     0.927659263867    -0.556843182869    14.003074004430
         N           -0.862999461676     2.173353263867     0.506547817131    14.003074004430
         C           -0.725255561676    -0.256053836133    -0.059019082869    12.000000000000
         C            0.835969538324    -0.155531736133    -0.019714182869    12.000000000000
         C           -1.439797461676     0.944007263867     0.179438817131    12.000000000000
         C           -1.271279461676    -1.428878736133    -0.324104182869    12.000000000000
         C           -2.836470461676     0.795894263867     0.195073817131    12.000000000000
         C            1.571931538324    -1.210888736133     0.544253817131    12.000000000000
         C           -2.657699461676    -1.556477736133    -0.323819182869    12.000000000000
         C           -3.441365461676    -0.431001736133    -0.061426182869    12.000000000000
         C            2.963020538324    -1.170059736133     0.513334817131    12.000000000000
         C            3.590184538324    -0.064511736133    -0.060439182869    12.000000000000
         C            2.789906538324     0.958899263867    -0.566108182869    12.000000000000
         H           -0.652356461676    -2.293453736133    -0.556717182869     1.007825032230
         H           -3.452208461676     1.672703263867     0.391920817131     1.007825032230
         H            1.051414538324    -2.040204736133     1.014254817131     1.007825032230
         H           -3.120262461676    -2.514366736133    -0.546399182869     1.007825032230
         H           -4.526505461676    -0.505806736133    -0.053495182869     1.007825032230
         H            3.547508538324    -1.979319736133     0.944635817131     1.007825032230
         H            0.025202538324     2.318871263867     0.033025817131     1.007825032230
         H           -1.496373461676     2.954882263867     0.372235817131     1.007825032230
         H            4.672822538324     0.013512263867    -0.102879182869     1.007825032230
         H            3.237584538324     1.848816263867    -1.005786182869     1.007825032230

  Basis Set: AUG-CC-PVTZ
    Blend: AUG-CC-PVTZ
  Basis Set: (AUG-CC-PVTZ AUX)
    Blend: AUG-CC-PVTZ-JKFIT
	 Reference Energy          =    -531.4433176636275675 [Eh]
	 Singles Energy            =      -0.0000000000000000 [Eh]
	 Same-Spin Energy          =      -0.5959445650412557 [Eh]
	 Opposite-Spin Energy      =      -1.8199943379443311 [Eh]
	 Correlation Energy        =      -2.4159389029855869 [Eh]
	 Total Energy              =    -533.8592565666131122 [Eh]

	 ================> DF-SCS-MP2 Energies <==================
	-----------------------------------------------------------
	 SCS Same-Spin Scale       =       0.3333333333333333 [-]
	 SCS Opposite-Spin Scale   =       1.2000000000000000 [-]
	 SCS Same-Spin Energy      =      -0.1986481883470852 [Eh]
	 SCS Opposite-Spin Energy  =      -2.1839932055331972 [Eh]
	 SCS Correlation Energy    =      -2.3826413938802826 [Eh]
	 SCS Total Energy          =    -533.8259590575078164 [Eh]
	-----------------------------------------------------------

  Dipole Moment: [D]
     X:     1.6094      Y:    -0.4039      Z:     0.0035     Total:     1.6593

*** Psi4 exiting successfully. Buy a developer a beer!
