                               Psi4 1.4a3.dev225

  ==> Input File <==

--------------------------------------------------------------------------
#psi4
#
memory 32 gb

molecule  {
0 1
  N        1.4447430     0.9271060    -0.5600120
  N       -0.8646290     2.1728000     0.5033790
  C       -0.6433280    -0.2041590    -0.0552500
  C        0.8343400    -0.1560850    -0.0228830
  C       -1.4414270     0.9434540     0.1762700
  C       -1.2729090    -1.4294320    -0.3272730
  C       -2.8381000     0.7953410     0.1919050
  C        1.5598242    -1.1964170     0.5330559
  C       -2.6593290    -1.5570310    -0.3269880
  C       -3.4429950    -0.4315550    -0.0645950
  C        2.9613910    -1.1706130     0.5101660
  C        3.5885550    -0.0650650    -0.0636080
  C        2.7882770     0.9583460    -0.5692770
  H       -0.6539860    -2.2940070    -0.5598860
  H       -3.4538380     1.6721500     0.3887520
  H        1.0497850    -2.0407580     1.0110860
  H       -3.1218920    -2.5149200    -0.5495680
  H       -4.5281350    -0.5063600    -0.0566640
  H        3.5458790    -1.9798730     0.9414670
  H        0.0235730     2.3183180     0.0298570
  H       -1.4980030     2.9543290     0.3690670
  H        4.6711930     0.0129590    -0.1060480
  H        3.2359550     1.8482630    -1.0089550
units angstrom
no_reorient  #important for SAPT in psi4, default
symmetry c1  #important for SAPT in psi4, default
}

set PROPERTIES_ORIGIN ["COM"]
properties('MP2/aug-cc-pvtz', properties = ['dipole'])
--------------------------------------------------------------------------

    Molecular point group: c1
  Charge       = 0
  Multiplicity = 1
  Basis Set: AUG-CC-PVTZ
    Blend: AUG-CC-PVTZ
  Basis Set: (AUG-CC-PVTZ AUX)
    Blend: AUG-CC-PVTZ-JKFIT

    Orbital Energies [Eh]
    ---------------------

    Doubly Occupied:

       1A    -15.568848     2A    -15.550742     3A    -11.287141
       4A    -11.281925     5A    -11.280353     6A    -11.265145
       7A    -11.243265     8A    -11.241658     9A    -11.238617
      10A    -11.237704    11A    -11.234025    12A    -11.223565
      13A    -11.220824    14A     -1.263344    15A     -1.213717
      16A     -1.127612    17A     -1.088059    18A     -1.062702
      19A     -0.997823    20A     -0.980396    21A     -0.870497
      22A     -0.866406    23A     -0.816322    24A     -0.801040
      25A     -0.718983    26A     -0.690128    27A     -0.684827
      28A     -0.662378    29A     -0.653603    30A     -0.627454
      31A     -0.595341    32A     -0.592382    33A     -0.585742
      34A     -0.575611    35A     -0.551480    36A     -0.534604
      37A     -0.519574    38A     -0.500553    39A     -0.493001
      40A     -0.444909    41A     -0.421793    42A     -0.387707
      43A     -0.369756    44A     -0.319501    45A     -0.286579

  @DF-RHF Final Energy:  -531.45300900562233

   => Energetics <=

    Nuclear Repulsion Energy =            714.9674972959685419
    One-Electron Energy =               -2138.4857408924367519
    Two-Electron Energy =                 892.0652345908458756
    Total Energy =                       -531.4530090056223344
  Basis Set: (AUG-CC-PVTZ AUX)
    Blend: AUG-CC-PVTZ-RI
    Molecular point group: c1

    Geometry (in Angstrom), charge = 0, multiplicity = 1:

       Center              X                  Y                   Z               Mass
    ------------   -----------------  -----------------  -----------------  -----------------
         N            1.441216559242     0.922898820182    -0.556766195208    14.003074004430
         N           -0.868155440758     2.168592820182     0.506624804792    14.003074004430
         C           -0.646854440758    -0.208366179818    -0.052004195208    12.000000000000
         C            0.830813559242    -0.160292179818    -0.019637195208    12.000000000000
         C           -1.444953440758     0.939246820182     0.179515804792    12.000000000000
         C           -1.276435440758    -1.433639179818    -0.324027195208    12.000000000000
         C           -2.841626440758     0.791133820182     0.195150804792    12.000000000000
         C            1.556297759242    -1.200624179818     0.536301704792    12.000000000000
         C           -2.662855440758    -1.561238179818    -0.323742195208    12.000000000000
         C           -3.446521440758    -0.435762179818    -0.061349195208    12.000000000000
         C            2.957864559242    -1.174820179818     0.513411804792    12.000000000000
         C            3.585028559242    -0.069272179818    -0.060362195208    12.000000000000
         C            2.784750559242     0.954138820182    -0.566031195208    12.000000000000
         H           -0.657512440758    -2.298214179818    -0.556640195208     1.007825032230
         H           -3.457364440758     1.667942820182     0.391997804792     1.007825032230
         H            1.046258559242    -2.044965179818     1.014331804792     1.007825032230
         H           -3.125418440758    -2.519127179818    -0.546322195208     1.007825032230
         H           -4.531661440758    -0.510567179818    -0.053418195208     1.007825032230
         H            3.542352559242    -1.984080179818     0.944712804792     1.007825032230
         H            0.020046559242     2.314110820182     0.033102804792     1.007825032230
         H           -1.501529440758     2.950121820182     0.372312804792     1.007825032230
         H            4.667666559242     0.008751820182    -0.102802195208     1.007825032230
         H            3.232428559242     1.844055820182    -1.005709195208     1.007825032230

  Basis Set: AUG-CC-PVTZ
    Blend: AUG-CC-PVTZ
  Basis Set: (AUG-CC-PVTZ AUX)
    Blend: AUG-CC-PVTZ-JKFIT
	 Reference Energy          =    -531.4530090056223344 [Eh]
	 Singles Energy            =      -0.0000000000000000 [Eh]
	 Same-Spin Energy          =      -0.5965556635827953 [Eh]
	 Opposite-Spin Energy      =      -1.8208354345632134 [Eh]
	 Correlation Energy        =      -2.4173910981460089 [Eh]
	 Total Energy              =    -533.8704001037683611 [Eh]

	 ================> DF-SCS-MP2 Energies <==================
	-----------------------------------------------------------
	 SCS Same-Spin Scale       =       0.3333333333333333 [-]
	 SCS Opposite-Spin Scale   =       1.2000000000000000 [-]
	 SCS Same-Spin Energy      =      -0.1988518878609318 [Eh]
	 SCS Opposite-Spin Energy  =      -2.1850025214758562 [Eh]
	 SCS Correlation Energy    =      -2.3838544093367879 [Eh]
	 SCS Total Energy          =    -533.8368634149591117 [Eh]
	-----------------------------------------------------------

  Dipole Moment: [D]
     X:     1.5651      Y:    -0.4230      Z:     0.0134     Total:     1.6213

*** Psi4 exiting successfully. Buy a developer a beer!
