                               Psi4 1.4a3.dev225

  ==> Input File <==

--------------------------------------------------------------------------
#psi4
#
memory 32 gb

molecule  {
0 1
  N        1.4447430     0.9271060    -0.5600120
  N       -0.8646290     2.1728000     0.5033790
  C       -0.6433280    -0.2041590    -0.0552500
  C        0.8343400    -0.1560850    -0.0228830
  C       -1.4620745     0.8994475     0.1645606
  C       -1.2729090    -1.4294320    -0.3272730
  C       -2.8381000     0.7953410     0.1919050
  C        1.5703020    -1.2114420     0.5410850
  C       -2.6593290    -1.5570310    -0.3269880
  C       -3.4429950    -0.4315550    -0.0645950
  C        2.9613910    -1.1706130     0.5101660
  C        3.5885550    -0.0650650    -0.0636080
  C        2.7882770     0.9583460    -0.5692770
  H       -0.6539860    -2.2940070    -0.5598860
  H       -3.4538380     1.6721500     0.3887520
  H        1.0497850    -2.0407580     1.0110860
  H       -3.1218920    -2.5149200    -0.5495680
  H       -4.5281350    -0.5063600    -0.0566640
  H        3.5458790    -1.9798730     0.9414670
  H        0.0235730     2.3183180     0.0298570
  H       -1.4980030     2.9543290     0.3690670
  H        4.6711930     0.0129590    -0.1060480
  H        3.2359550     1.8482630    -1.0089550
units angstrom
no_reorient  #important for SAPT in psi4, default
symmetry c1  #important for SAPT in psi4, default
}

set PROPERTIES_ORIGIN ["COM"]
properties('MP2/aug-cc-pvtz', properties = ['dipole'])
--------------------------------------------------------------------------

    Molecular point group: c1
  Charge       = 0
  Multiplicity = 1
  Basis Set: AUG-CC-PVTZ
    Blend: AUG-CC-PVTZ
  Basis Set: (AUG-CC-PVTZ AUX)
    Blend: AUG-CC-PVTZ-JKFIT

    Orbital Energies [Eh]
    ---------------------

    Doubly Occupied:

       1A    -15.569353     2A    -15.544994     3A    -11.291523
       4A    -11.281635     5A    -11.276310     6A    -11.264058
       7A    -11.243529     8A    -11.243232     9A    -11.240114
      10A    -11.239090    11A    -11.234700    12A    -11.223878
      13A    -11.223813    14A     -1.262490    15A     -1.200968
      16A     -1.126956    17A     -1.089548    18A     -1.063452
      19A     -1.000795    20A     -0.984636    21A     -0.873087
      22A     -0.865450    23A     -0.819491    24A     -0.800734
      25A     -0.720526    26A     -0.687503    27A     -0.680831
      28A     -0.662274    29A     -0.650965    30A     -0.623462
      31A     -0.598704    32A     -0.594003    33A     -0.585080
      34A     -0.574273    35A     -0.550992    36A     -0.536401
      37A     -0.519367    38A     -0.500303    39A     -0.498020
      40A     -0.438744    41A     -0.421094    42A     -0.389334
      43A     -0.369609    44A     -0.320763    45A     -0.292923

  @DF-RHF Final Energy:  -531.45105502285458

   => Energetics <=

    Nuclear Repulsion Energy =            714.8833121595612283
    One-Electron Energy =               -2138.3107254565138646
    Two-Electron Energy =                 891.9763582740980610
    Total Energy =                       -531.4510550228545753
  Basis Set: (AUG-CC-PVTZ AUX)
    Blend: AUG-CC-PVTZ-RI
    Molecular point group: c1

    Geometry (in Angstrom), charge = 0, multiplicity = 1:

       Center              X                  Y                   Z               Mass
    ------------   -----------------  -----------------  -----------------  -----------------
         N            1.441934064205     0.927063681903    -0.556506538235    14.003074004430
         N           -0.867437935795     2.172757681903     0.506884461765    14.003074004430
         C           -0.646136935795    -0.204201318097    -0.051744538235    12.000000000000
         C            0.831531064205    -0.156127318097    -0.019377538235    12.000000000000
         C           -1.464883435795     0.899405181903     0.168066061765    12.000000000000
         C           -1.275717935795    -1.429474318097    -0.323767538235    12.000000000000
         C           -2.840908935795     0.795298681903     0.195410461765    12.000000000000
         C            1.567493064205    -1.211484318097     0.544590461765    12.000000000000
         C           -2.662137935795    -1.557073318097    -0.323482538235    12.000000000000
         C           -3.445803935795    -0.431597318097    -0.061089538235    12.000000000000
         C            2.958582064205    -1.170655318097     0.513671461765    12.000000000000
         C            3.585746064205    -0.065107318097    -0.060102538235    12.000000000000
         C            2.785468064205     0.958303681903    -0.565771538235    12.000000000000
         H           -0.656794935795    -2.294049318097    -0.556380538235     1.007825032230
         H           -3.456646935795     1.672107681903     0.392257461765     1.007825032230
         H            1.046976064205    -2.040800318097     1.014591461765     1.007825032230
         H           -3.124700935795    -2.514962318097    -0.546062538235     1.007825032230
         H           -4.530943935795    -0.506402318097    -0.053158538235     1.007825032230
         H            3.543070064205    -1.979915318097     0.944972461765     1.007825032230
         H            0.020764064205     2.318275681903     0.033362461765     1.007825032230
         H           -1.500811935795     2.954286681903     0.372572461765     1.007825032230
         H            4.668384064205     0.012916681903    -0.102542538235     1.007825032230
         H            3.233146064205     1.848220681903    -1.005449538235     1.007825032230

  Basis Set: AUG-CC-PVTZ
    Blend: AUG-CC-PVTZ
  Basis Set: (AUG-CC-PVTZ AUX)
    Blend: AUG-CC-PVTZ-JKFIT
	 Reference Energy          =    -531.4510550228545753 [Eh]
	 Singles Energy            =      -0.0000000000000000 [Eh]
	 Same-Spin Energy          =      -0.5962442553894208 [Eh]
	 Opposite-Spin Energy      =      -1.8207303216517232 [Eh]
	 Correlation Energy        =      -2.4169745770411439 [Eh]
	 Total Energy              =    -533.8680295998957490 [Eh]

	 ================> DF-SCS-MP2 Energies <==================
	-----------------------------------------------------------
	 SCS Same-Spin Scale       =       0.3333333333333333 [-]
	 SCS Opposite-Spin Scale   =       1.2000000000000000 [-]
	 SCS Same-Spin Energy      =      -0.1987480851298069 [Eh]
	 SCS Opposite-Spin Energy  =      -2.1848763859820677 [Eh]
	 SCS Correlation Energy    =      -2.3836244711118746 [Eh]
	 SCS Total Energy          =    -533.8346794939664051 [Eh]
	-----------------------------------------------------------

  Dipole Moment: [D]
     X:     1.4482      Y:    -0.6972      Z:    -0.0589     Total:     1.6083

*** Psi4 exiting successfully. Buy a developer a beer!
