                               Psi4 1.3.2 release

  ==> Input File <==

--------------------------------------------------------------------------
#psi4
#
memory 32 gb

molecule  {
0 1
  N        1.4447430     0.9271060    -0.5600120
  N       -0.8646290     2.1728000     0.5033790
  C       -0.6433280    -0.2041590    -0.0552500
  C        0.8343400    -0.1560850    -0.0228830
  C       -1.4208773     0.9568332     0.1794695
  C       -1.2729090    -1.4294320    -0.3272730
  C       -2.8381000     0.7953410     0.1919050
  C        1.5703020    -1.2114420     0.5410850
  C       -2.6593290    -1.5570310    -0.3269880
  C       -3.4429950    -0.4315550    -0.0645950
  C        2.9613910    -1.1706130     0.5101660
  C        3.5885550    -0.0650650    -0.0636080
  C        2.7882770     0.9583460    -0.5692770
  H       -0.6539860    -2.2940070    -0.5598860
  H       -3.4538380     1.6721500     0.3887520
  H        1.0497850    -2.0407580     1.0110860
  H       -3.1218920    -2.5149200    -0.5495680
  H       -4.5281350    -0.5063600    -0.0566640
  H        3.5458790    -1.9798730     0.9414670
  H        0.0235730     2.3183180     0.0298570
  H       -1.4980030     2.9543290     0.3690670
  H        4.6711930     0.0129590    -0.1060480
  H        3.2359550     1.8482630    -1.0089550
units angstrom
no_reorient  #important for SAPT in psi4, default
symmetry c1  #important for SAPT in psi4, default
}

set PROPERTIES_ORIGIN ["COM"]
properties('MP2/aug-cc-pvtz', properties = ['dipole'])
--------------------------------------------------------------------------

    Molecular point group: c1
  Charge       = 0
  Multiplicity = 1
  Basis Set: AUG-CC-PVTZ
    Blend: AUG-CC-PVTZ
  Basis Set: (AUG-CC-PVTZ AUX)
    Blend: AUG-CC-PVTZ-JKFIT

    Orbital Energies [Eh]
    ---------------------

    Doubly Occupied:

       1A    -15.568584     2A    -15.553843     3A    -11.289291
       4A    -11.283079     5A    -11.281294     6A    -11.263217
       7A    -11.242289     8A    -11.241371     9A    -11.238852
      10A    -11.237604    11A    -11.233341    12A    -11.225273
      13A    -11.220041    14A     -1.262828    15A     -1.220853
      16A     -1.127753    17A     -1.088722    18A     -1.060548
      19A     -0.995961    20A     -0.979166    21A     -0.870473
      22A     -0.864297    23A     -0.817374    24A     -0.799928
      25A     -0.718175    26A     -0.692130    27A     -0.687855
      28A     -0.663761    29A     -0.654172    30A     -0.629332
      31A     -0.595652    32A     -0.590109    33A     -0.586102
      34A     -0.574177    35A     -0.550514    36A     -0.536790
      37A     -0.520737    38A     -0.502557    39A     -0.491018
      40A     -0.447560    41A     -0.420588    42A     -0.388828
      43A     -0.368323    44A     -0.318155    45A     -0.284149

  @DF-RHF Final Energy:  -531.45246262432556

   => Energetics <=

    Nuclear Repulsion Energy =            714.6565020828526258
    One-Electron Energy =               -2137.8445939361949968
    Two-Electron Energy =                 891.7356292290169222
    Total Energy =                       -531.4524626243255625
  Basis Set: (AUG-CC-PVTZ AUX)
    Blend: AUG-CC-PVTZ-RI
    Molecular point group: c1

    Geometry (in Angstrom), charge = 0, multiplicity = 1:

       Center              X                  Y                   Z               Mass
    ------------   -----------------  -----------------  -----------------  -----------------
         N            1.439027469569     0.923014936652    -0.557558408963    14.003074004430
         N           -0.870344530431     2.168708936652     0.505832591037    14.003074004430
         C           -0.649043530431    -0.208250063348    -0.052796408963    12.000000000000
         C            0.828624469569    -0.160176063348    -0.020429408963    12.000000000000
         C           -1.426592830431     0.952742136652     0.181923091037    12.000000000000
         C           -1.278624530431    -1.433523063348    -0.324819408963    12.000000000000
         C           -2.843815530431     0.791249936652     0.194358591037    12.000000000000
         C            1.564586469569    -1.215533063348     0.543538591037    12.000000000000
         C           -2.665044530431    -1.561122063348    -0.324534408963    12.000000000000
         C           -3.448710530431    -0.435646063348    -0.062141408963    12.000000000000
         C            2.955675469569    -1.174704063348     0.512619591037    12.000000000000
         C            3.582839469569    -0.069156063348    -0.061154408963    12.000000000000
         C            2.782561469569     0.954254936652    -0.566823408963    12.000000000000
         H           -0.659701530431    -2.298098063348    -0.557432408963     1.007825032230
         H           -3.459553530431     1.668058936652     0.391205591037     1.007825032230
         H            1.044069469569    -2.044849063348     1.013539591037     1.007825032230
         H           -3.127607530431    -2.519011063348    -0.547114408963     1.007825032230
         H           -4.533850530431    -0.510451063348    -0.054210408963     1.007825032230
         H            3.540163469569    -1.983964063348     0.943920591037     1.007825032230
         H            0.017857469569     2.314226936652     0.032310591037     1.007825032230
         H           -1.503718530431     2.950237936652     0.371520591037     1.007825032230
         H            4.665477469569     0.008867936652    -0.103594408963     1.007825032230
         H            3.230239469569     1.844171936652    -1.006501408963     1.007825032230

  Basis Set: AUG-CC-PVTZ
    Blend: AUG-CC-PVTZ
  Basis Set: (AUG-CC-PVTZ AUX)
    Blend: AUG-CC-PVTZ-JKFIT
	 Reference Energy          =    -531.4524626243255625 [Eh]
	 Singles Energy            =      -0.0000000000000000 [Eh]
	 Same-Spin Energy          =      -0.5966438424444317 [Eh]
	 Opposite-Spin Energy      =      -1.8208928952550705 [Eh]
	 Correlation Energy        =      -2.4175367376995021 [Eh]
	 Total Energy              =    -533.8699993620250552 [Eh]

	 ================> DF-SCS-MP2 Energies <==================
	-----------------------------------------------------------
	 SCS Same-Spin Scale       =       0.3333333333333333 [-]
	 SCS Opposite-Spin Scale   =       1.2000000000000000 [-]
	 SCS Same-Spin Energy      =      -0.1988812808148105 [Eh]
	 SCS Opposite-Spin Energy  =      -2.1850714743060844 [Eh]
	 SCS Correlation Energy    =      -2.3839527551208950 [Eh]
	 SCS Total Energy          =    -533.8364153794464073 [Eh]
	-----------------------------------------------------------

  Dipole Moment: [D]
     X:     1.5548      Y:    -0.2939      Z:     0.0471     Total:     1.5830

*** Psi4 exiting successfully. Buy a developer a beer!
