                               Psi4 1.3.2 release

  ==> Input File <==

--------------------------------------------------------------------------
#psi4
#
memory 32 gb

molecule  {
0 1
  N        1.3151125     0.9758693    -0.5902801
  N       -0.8646290     2.1728000     0.5033790
  C       -0.6433280    -0.2041590    -0.0552500
  C        0.8343400    -0.1560850    -0.0228830
  C       -1.4414270     0.9434540     0.1762700
  C       -1.2729090    -1.4294320    -0.3272730
  C       -2.8381000     0.7953410     0.1919050
  C        1.5703020    -1.2114420     0.5410850
  C       -2.6593290    -1.5570310    -0.3269880
  C       -3.4429950    -0.4315550    -0.0645950
  C        2.9613910    -1.1706130     0.5101660
  C        3.5885550    -0.0650650    -0.0636080
  C        2.7882770     0.9583460    -0.5692770
  H       -0.6539860    -2.2940070    -0.5598860
  H       -3.4538380     1.6721500     0.3887520
  H        1.0497850    -2.0407580     1.0110860
  H       -3.1218920    -2.5149200    -0.5495680
  H       -4.5281350    -0.5063600    -0.0566640
  H        3.5458790    -1.9798730     0.9414670
  H        0.0235730     2.3183180     0.0298570
  H       -1.4980030     2.9543290     0.3690670
  H        4.6711930     0.0129590    -0.1060480
  H        3.2359550     1.8482630    -1.0089550
units angstrom
no_reorient  #important for SAPT in psi4, default
symmetry c1  #important for SAPT in psi4, default
}

set PROPERTIES_ORIGIN ["COM"]
properties('MP2/aug-cc-pvtz', properties = ['dipole'])
--------------------------------------------------------------------------

    Molecular point group: c1
  Charge       = 0
  Multiplicity = 1
  Basis Set: AUG-CC-PVTZ
    Blend: AUG-CC-PVTZ
  Basis Set: (AUG-CC-PVTZ AUX)
    Blend: AUG-CC-PVTZ-JKFIT

    Orbital Energies [Eh]
    ---------------------

    Doubly Occupied:

       1A    -15.584817     2A    -15.546757     3A    -11.295275
       4A    -11.292251     5A    -11.278709     6A    -11.269994
       7A    -11.248284     8A    -11.245063     9A    -11.236866
      10A    -11.236263    11A    -11.231033    12A    -11.222223
      13A    -11.219416    14A     -1.246116    15A     -1.206535
      16A     -1.124941    17A     -1.095400    18A     -1.052556
      19A     -0.996314    20A     -0.979244    21A     -0.873187
      22A     -0.862715    23A     -0.813954    24A     -0.793942
      25A     -0.716914    26A     -0.687400    27A     -0.683474
      28A     -0.662857    29A     -0.649572    30A     -0.625908
      31A     -0.592933    32A     -0.590402    33A     -0.584944
      34A     -0.572296    35A     -0.542928    36A     -0.534272
      37A     -0.512384    38A     -0.496570    39A     -0.493267
      40A     -0.444760    41A     -0.435041    42A     -0.393289
      43A     -0.360009    44A     -0.320197    45A     -0.285704

  @DF-RHF Final Energy:  -531.42929644464107

   => Energetics <=

    Nuclear Repulsion Energy =            713.5526374837122603
    One-Electron Energy =               -2135.6899113389554259
    Two-Electron Energy =                 890.7079774106020977
    Total Energy =                       -531.4292964446410679
  Basis Set: (AUG-CC-PVTZ AUX)
    Blend: AUG-CC-PVTZ-RI
    Molecular point group: c1

    Geometry (in Angstrom), charge = 0, multiplicity = 1:

       Center              X                  Y                   Z               Mass
    ------------   -----------------  -----------------  -----------------  -----------------
         N            1.321519315327     0.968707492341    -0.585108796764    14.003074004430
         N           -0.858222184673     2.165638192341     0.508550303236    14.003074004430
         C           -0.636921184673    -0.211320807659    -0.050078696764    12.000000000000
         C            0.840746815327    -0.163246807659    -0.017711696764    12.000000000000
         C           -1.435020184673     0.936292192341     0.181441303236    12.000000000000
         C           -1.266502184673    -1.436593807659    -0.322101696764    12.000000000000
         C           -2.831693184673     0.788179192341     0.197076303236    12.000000000000
         C            1.576708815327    -1.218603807659     0.546256303236    12.000000000000
         C           -2.652922184673    -1.564192807659    -0.321816696764    12.000000000000
         C           -3.436588184673    -0.438716807659    -0.059423696764    12.000000000000
         C            2.967797815327    -1.177774807659     0.515337303236    12.000000000000
         C            3.594961815327    -0.072226807659    -0.058436696764    12.000000000000
         C            2.794683815327     0.951184192341    -0.564105696764    12.000000000000
         H           -0.647579184673    -2.301168807659    -0.554714696764     1.007825032230
         H           -3.447431184673     1.664988192341     0.393923303236     1.007825032230
         H            1.056191815327    -2.047919807659     1.016257303236     1.007825032230
         H           -3.115485184673    -2.522081807659    -0.544396696764     1.007825032230
         H           -4.521728184673    -0.513521807659    -0.051492696764     1.007825032230
         H            3.552285815327    -1.987034807659     0.946638303236     1.007825032230
         H            0.029979815327     2.311156192341     0.035028303236     1.007825032230
         H           -1.491596184673     2.947167192341     0.374238303236     1.007825032230
         H            4.677599815327     0.005797192341    -0.100876696764     1.007825032230
         H            3.242361815327     1.841101192341    -1.003783696764     1.007825032230

  Basis Set: AUG-CC-PVTZ
    Blend: AUG-CC-PVTZ
  Basis Set: (AUG-CC-PVTZ AUX)
    Blend: AUG-CC-PVTZ-JKFIT
	 Reference Energy          =    -531.4292964446410679 [Eh]
	 Singles Energy            =      -0.0000000000000000 [Eh]
	 Same-Spin Energy          =      -0.5982198632984428 [Eh]
	 Opposite-Spin Energy      =      -1.8265909814288086 [Eh]
	 Correlation Energy        =      -2.4248108447272516 [Eh]
	 Total Energy              =    -533.8541072893683577 [Eh]

	 ================> DF-SCS-MP2 Energies <==================
	-----------------------------------------------------------
	 SCS Same-Spin Scale       =       0.3333333333333333 [-]
	 SCS Opposite-Spin Scale   =       1.2000000000000000 [-]
	 SCS Same-Spin Energy      =      -0.1994066210994809 [Eh]
	 SCS Opposite-Spin Energy  =      -2.1919091777145701 [Eh]
	 SCS Correlation Energy    =      -2.3913157988140510 [Eh]
	 SCS Total Energy          =    -533.8206122434551162 [Eh]
	-----------------------------------------------------------

  Dipole Moment: [D]
     X:     1.8365      Y:    -0.5371      Z:     0.0663     Total:     1.9145

*** Psi4 exiting successfully. Buy a developer a beer!
