                               Psi4 1.3.2 release

  ==> Input File <==

--------------------------------------------------------------------------
#psi4
#
memory 32 gb

molecule  {
0 1
  N        1.4447430     0.9271060    -0.5600120
  N       -0.8646290     2.1728000     0.5033790
  C       -0.6433280    -0.2041590    -0.0552500
  C        0.9640630    -0.2070169     0.0031168
  C       -1.4414270     0.9434540     0.1762700
  C       -1.2729090    -1.4294320    -0.3272730
  C       -2.8381000     0.7953410     0.1919050
  C        1.5703020    -1.2114420     0.5410850
  C       -2.6593290    -1.5570310    -0.3269880
  C       -3.4429950    -0.4315550    -0.0645950
  C        2.9613910    -1.1706130     0.5101660
  C        3.5885550    -0.0650650    -0.0636080
  C        2.7882770     0.9583460    -0.5692770
  H       -0.6539860    -2.2940070    -0.5598860
  H       -3.4538380     1.6721500     0.3887520
  H        1.0497850    -2.0407580     1.0110860
  H       -3.1218920    -2.5149200    -0.5495680
  H       -4.5281350    -0.5063600    -0.0566640
  H        3.5458790    -1.9798730     0.9414670
  H        0.0235730     2.3183180     0.0298570
  H       -1.4980030     2.9543290     0.3690670
  H        4.6711930     0.0129590    -0.1060480
  H        3.2359550     1.8482630    -1.0089550
units angstrom
no_reorient  #important for SAPT in psi4, default
symmetry c1  #important for SAPT in psi4, default
}

set PROPERTIES_ORIGIN ["COM"]
properties('MP2/aug-cc-pvtz', properties = ['dipole'])
--------------------------------------------------------------------------

    Molecular point group: c1
  Charge       = 0
  Multiplicity = 1
  Basis Set: AUG-CC-PVTZ
    Blend: AUG-CC-PVTZ
  Basis Set: (AUG-CC-PVTZ AUX)
    Blend: AUG-CC-PVTZ-JKFIT

    Orbital Energies [Eh]
    ---------------------

    Doubly Occupied:

       1A    -15.574426     2A    -15.546552     3A    -11.286859
       4A    -11.282672     5A    -11.274822     6A    -11.270381
       7A    -11.246299     8A    -11.235709     9A    -11.232598
      10A    -11.231687    11A    -11.231630    12A    -11.219670
      13A    -11.216389    14A     -1.272830    15A     -1.209471
      16A     -1.121361    17A     -1.103695    18A     -1.059912
      19A     -0.996702    20A     -0.975174    21A     -0.878627
      22A     -0.860260    23A     -0.812398    24A     -0.798909
      25A     -0.720534    26A     -0.685035    27A     -0.681788
      28A     -0.667223    29A     -0.653753    30A     -0.627630
      31A     -0.594851    32A     -0.588195    33A     -0.582702
      34A     -0.571480    35A     -0.559372    36A     -0.532530
      37A     -0.516624    38A     -0.493953    39A     -0.478472
      40A     -0.439884    41A     -0.432198    42A     -0.390549
      43A     -0.375117    44A     -0.321625    45A     -0.284752

  @DF-RHF Final Energy:  -531.43099405259034

   => Energetics <=

    Nuclear Repulsion Energy =            714.5322743125225315
    One-Electron Energy =               -2137.6519367984924429
    Two-Electron Energy =                 891.6886684333795756
    Total Energy =                       -531.4309940525903357
  Basis Set: (AUG-CC-PVTZ AUX)
    Blend: AUG-CC-PVTZ-RI
    Molecular point group: c1

    Geometry (in Angstrom), charge = 0, multiplicity = 1:

       Center              X                  Y                   Z               Mass
    ------------   -----------------  -----------------  -----------------  -----------------
         N            1.431324942983     0.927552291093    -0.559167043281    14.003074004430
         N           -0.878047057017     2.173246291093     0.504223956719    14.003074004430
         C           -0.656746057017    -0.203712708907    -0.054405043281    12.000000000000
         C            0.950644942983    -0.206570608907     0.003961756719    12.000000000000
         C           -1.454845057017     0.943900291093     0.177114956719    12.000000000000
         C           -1.286327057017    -1.428985708907    -0.326428043281    12.000000000000
         C           -2.851518057017     0.795787291093     0.192749956719    12.000000000000
         C            1.556883942983    -1.210995708907     0.541929956719    12.000000000000
         C           -2.672747057017    -1.556584708907    -0.326143043281    12.000000000000
         C           -3.456413057017    -0.431108708907    -0.063750043281    12.000000000000
         C            2.947972942983    -1.170166708907     0.511010956719    12.000000000000
         C            3.575136942983    -0.064618708907    -0.062763043281    12.000000000000
         C            2.774858942983     0.958792291093    -0.568432043281    12.000000000000
         H           -0.667404057017    -2.293560708907    -0.559041043281     1.007825032230
         H           -3.467256057017     1.672596291093     0.389596956719     1.007825032230
         H            1.036366942983    -2.040311708907     1.011930956719     1.007825032230
         H           -3.135310057017    -2.514473708907    -0.548723043281     1.007825032230
         H           -4.541553057017    -0.505913708907    -0.055819043281     1.007825032230
         H            3.532460942983    -1.979426708907     0.942311956719     1.007825032230
         H            0.010154942983     2.318764291093     0.030701956719     1.007825032230
         H           -1.511421057017     2.954775291093     0.369911956719     1.007825032230
         H            4.657774942983     0.013405291093    -0.105203043281     1.007825032230
         H            3.222536942983     1.848709291093    -1.008110043281     1.007825032230

  Basis Set: AUG-CC-PVTZ
    Blend: AUG-CC-PVTZ
  Basis Set: (AUG-CC-PVTZ AUX)
    Blend: AUG-CC-PVTZ-JKFIT
	 Reference Energy          =    -531.4309940525903357 [Eh]
	 Singles Energy            =      -0.0000000000000000 [Eh]
	 Same-Spin Energy          =      -0.5956201375392201 [Eh]
	 Opposite-Spin Energy      =      -1.8203168732706601 [Eh]
	 Correlation Energy        =      -2.4159370108098801 [Eh]
	 Total Energy              =    -533.8469310634002341 [Eh]

	 ================> DF-SCS-MP2 Energies <==================
	-----------------------------------------------------------
	 SCS Same-Spin Scale       =       0.3333333333333333 [-]
	 SCS Opposite-Spin Scale   =       1.2000000000000000 [-]
	 SCS Same-Spin Energy      =      -0.1985400458464067 [Eh]
	 SCS Opposite-Spin Energy  =      -2.1843802479247918 [Eh]
	 SCS Correlation Energy    =      -2.3829202937711984 [Eh]
	 SCS Total Energy          =    -533.8139143463615710 [Eh]
	-----------------------------------------------------------

  Dipole Moment: [D]
     X:     2.1676      Y:    -0.4409      Z:     0.0250     Total:     2.2122

*** Psi4 exiting successfully. Buy a developer a beer!
