                               Psi4 1.4a3.dev225

  ==> Input File <==

--------------------------------------------------------------------------
#psi4
#
memory 32 gb

molecule  {
0 1
  N        1.4447430     0.9271060    -0.5600120
  N       -0.8646290     2.1728000     0.5033790
  C       -0.6433280    -0.2041590    -0.0552500
  C        0.8343400    -0.1560850    -0.0228830
  C       -1.4414270     0.9434540     0.1762700
  C       -1.2729090    -1.4294320    -0.3272730
  C       -2.8381000     0.7953410     0.1919050
  C        1.5703020    -1.2114420     0.5410850
  C       -2.6593290    -1.5570310    -0.3269880
  C       -3.4429950    -0.4315550    -0.0645950
  C        2.9613910    -1.1706130     0.5101660
  C        3.5885550    -0.0650650    -0.0636080
  C        2.7882770     0.9583460    -0.5692770
  H       -0.6539860    -2.2940070    -0.5598860
  H       -3.4538380     1.6721500     0.3887520
  H        1.0497850    -2.0407580     1.0110860
  H       -3.1218920    -2.5149200    -0.5495680
  H       -4.5281350    -0.5063600    -0.0566640
  H        3.5458790    -1.9798730     0.9414670
  H        0.0235730     2.3183180     0.0298570
  H       -1.4980030     2.9543290     0.3690670
  H        4.6711930     0.0129590    -0.1060480
  H        3.2277324     1.8319176    -1.0008793
units angstrom
no_reorient  #important for SAPT in psi4, default
symmetry c1  #important for SAPT in psi4, default
}

set PROPERTIES_ORIGIN ["COM"]
properties('MP2/aug-cc-pvtz', properties = ['dipole'])
--------------------------------------------------------------------------

    Molecular point group: c1
  Charge       = 0
  Multiplicity = 1
  Basis Set: AUG-CC-PVTZ
    Blend: AUG-CC-PVTZ
  Basis Set: (AUG-CC-PVTZ AUX)
    Blend: AUG-CC-PVTZ-JKFIT

    Orbital Energies [Eh]
    ---------------------

    Doubly Occupied:

       1A    -15.568668     2A    -15.551017     3A    -11.289916
       4A    -11.280854     5A    -11.279077     6A    -11.263366
       7A    -11.242529     8A    -11.241949     9A    -11.239128
      10A    -11.238156    11A    -11.234514    12A    -11.223929
      13A    -11.221196    14A     -1.262482    15A     -1.213968
      16A     -1.127895    17A     -1.088881    18A     -1.061670
      19A     -0.997955    20A     -0.980707    21A     -0.871647
      22A     -0.865502    23A     -0.817338    24A     -0.800778
      25A     -0.719708    26A     -0.690714    27A     -0.685028
      28A     -0.664005    29A     -0.653298    30A     -0.628444
      31A     -0.596248    32A     -0.592404    33A     -0.586184
      34A     -0.574340    35A     -0.550669    36A     -0.536849
      37A     -0.520225    38A     -0.501564    39A     -0.493941
      40A     -0.445206    41A     -0.421019    42A     -0.388896
      43A     -0.368603    44A     -0.319090    45A     -0.286604

  @DF-RHF Final Energy:  -531.45365089951838

   => Energetics <=

    Nuclear Repulsion Energy =            714.7470354349461559
    One-Electron Energy =               -2138.0290498769040823
    Two-Electron Energy =                 891.8283635424395470
    Total Energy =                       -531.4536508995183794
  Basis Set: (AUG-CC-PVTZ AUX)
    Blend: AUG-CC-PVTZ-RI
    Molecular point group: c1

    Geometry (in Angstrom), charge = 0, multiplicity = 1:

       Center              X                  Y                   Z               Mass
    ------------   -----------------  -----------------  -----------------  -----------------
         N            1.440526039365     0.924055735838    -0.557380526055    14.003074004430
         N           -0.868845960635     2.169749735838     0.506010473945    14.003074004430
         C           -0.647544960635    -0.207209264162    -0.052618526055    12.000000000000
         C            0.830123039365    -0.159135264162    -0.020251526055    12.000000000000
         C           -1.445643960635     0.940403735838     0.178901473945    12.000000000000
         C           -1.277125960635    -1.432482264162    -0.324641526055    12.000000000000
         C           -2.842316960635     0.792290735838     0.194536473945    12.000000000000
         C            1.566085039365    -1.214492264162     0.543716473945    12.000000000000
         C           -2.663545960635    -1.560081264162    -0.324356526055    12.000000000000
         C           -3.447211960635    -0.434605264162    -0.061963526055    12.000000000000
         C            2.957174039365    -1.173663264162     0.512797473945    12.000000000000
         C            3.584338039365    -0.068115264162    -0.060976526055    12.000000000000
         C            2.784060039365     0.955295735838    -0.566645526055    12.000000000000
         H           -0.658202960635    -2.297057264162    -0.557254526055     1.007825032230
         H           -3.458054960635     1.669099735838     0.391383473945     1.007825032230
         H            1.045568039365    -2.043808264162     1.013717473945     1.007825032230
         H           -3.126108960635    -2.517970264162    -0.546936526055     1.007825032230
         H           -4.532351960635    -0.509410264162    -0.054032526055     1.007825032230
         H            3.541662039365    -1.982923264162     0.944098473945     1.007825032230
         H            0.019356039365     2.315267735838     0.032488473945     1.007825032230
         H           -1.502219960635     2.951278735838     0.371698473945     1.007825032230
         H            4.666976039365     0.009908735838    -0.103416526055     1.007825032230
         H            3.223515439365     1.828867335838    -0.998247826055     1.007825032230

  Basis Set: AUG-CC-PVTZ
    Blend: AUG-CC-PVTZ
  Basis Set: (AUG-CC-PVTZ AUX)
    Blend: AUG-CC-PVTZ-JKFIT
	 Reference Energy          =    -531.4536508995183794 [Eh]
	 Singles Energy            =      -0.0000000000000000 [Eh]
	 Same-Spin Energy          =      -0.5964646779571086 [Eh]
	 Opposite-Spin Energy      =      -1.8206203540370458 [Eh]
	 Correlation Energy        =      -2.4170850319941541 [Eh]
	 Total Energy              =    -533.8707359315125132 [Eh]

	 ================> DF-SCS-MP2 Energies <==================
	-----------------------------------------------------------
	 SCS Same-Spin Scale       =       0.3333333333333333 [-]
	 SCS Opposite-Spin Scale   =       1.2000000000000000 [-]
	 SCS Same-Spin Energy      =      -0.1988215593190362 [Eh]
	 SCS Opposite-Spin Energy  =      -2.1847444248444550 [Eh]
	 SCS Correlation Energy    =      -2.3835659841634911 [Eh]
	 SCS Total Energy          =    -533.8372168836818901 [Eh]
	-----------------------------------------------------------

  Dipole Moment: [D]
     X:     1.5349      Y:    -0.4153      Z:     0.0112     Total:     1.5901

*** Psi4 exiting successfully. Buy a developer a beer!
