                               Psi4 1.3.2 release

  ==> Input File <==

--------------------------------------------------------------------------
#psi4
#
memory 32 gb

molecule  {
0 1
  N        1.4447430     0.9271060    -0.5600120
  N       -0.8646290     2.1728000     0.5033790
  C       -0.6433280    -0.2041590    -0.0552500
  C        0.8343400    -0.1560850    -0.0228830
  C       -1.4827219     0.8554410     0.1528512
  C       -1.2729090    -1.4294320    -0.3272730
  C       -2.8381000     0.7953410     0.1919050
  C        1.5703020    -1.2114420     0.5410850
  C       -2.6593290    -1.5570310    -0.3269880
  C       -3.4429950    -0.4315550    -0.0645950
  C        2.9613910    -1.1706130     0.5101660
  C        3.5885550    -0.0650650    -0.0636080
  C        2.7882770     0.9583460    -0.5692770
  H       -0.6539860    -2.2940070    -0.5598860
  H       -3.4538380     1.6721500     0.3887520
  H        1.0497850    -2.0407580     1.0110860
  H       -3.1218920    -2.5149200    -0.5495680
  H       -4.5281350    -0.5063600    -0.0566640
  H        3.5458790    -1.9798730     0.9414670
  H        0.0235730     2.3183180     0.0298570
  H       -1.4980030     2.9543290     0.3690670
  H        4.6711930     0.0129590    -0.1060480
  H        3.2359550     1.8482630    -1.0089550
units angstrom
no_reorient  #important for SAPT in psi4, default
symmetry c1  #important for SAPT in psi4, default
}

set PROPERTIES_ORIGIN ["COM"]
properties('MP2/aug-cc-pvtz', properties = ['dipole'])
--------------------------------------------------------------------------

    Molecular point group: c1
  Charge       = 0
  Multiplicity = 1
  Basis Set: AUG-CC-PVTZ
    Blend: AUG-CC-PVTZ
  Basis Set: (AUG-CC-PVTZ AUX)
    Blend: AUG-CC-PVTZ-JKFIT

    Orbital Energies [Eh]
    ---------------------

    Doubly Occupied:

       1A    -15.569828     2A    -15.539331     3A    -11.292974
       4A    -11.281855     5A    -11.272401     6A    -11.264592
       7A    -11.244393     8A    -11.244273     9A    -11.241105
      10A    -11.240034    11A    -11.234754    12A    -11.225989
      13A    -11.223738    14A     -1.262711    15A     -1.193339
      16A     -1.123202    17A     -1.090003    18A     -1.065620
      19A     -1.003834    20A     -0.988166    21A     -0.874508
      22A     -0.866355    23A     -0.822507    24A     -0.800885
      25A     -0.722331    26A     -0.685931    27A     -0.679251
      28A     -0.660797    29A     -0.648753    30A     -0.621323
      31A     -0.603981    32A     -0.592569    33A     -0.581981
      34A     -0.574059    35A     -0.551255    36A     -0.536237
      37A     -0.519965    38A     -0.505664    39A     -0.493144
      40A     -0.432130    41A     -0.420501    42A     -0.389621
      43A     -0.370532    44A     -0.322469    45A     -0.298631

  @DF-RHF Final Energy:  -531.44279683619129

   => Energetics <=

    Nuclear Repulsion Energy =            715.1634138273784629
    One-Electron Energy =               -2138.8573711209564863
    Two-Electron Energy =                 892.2511604573867317
    Total Energy =                       -531.4427968361912917
  Basis Set: (AUG-CC-PVTZ AUX)
    Blend: AUG-CC-PVTZ-RI
    Molecular point group: c1

    Geometry (in Angstrom), charge = 0, multiplicity = 1:

       Center              X                  Y                   Z               Mass
    ------------   -----------------  -----------------  -----------------  -----------------
         N            1.443390804520     0.930168481668    -0.555680402496    14.003074004430
         N           -0.865981195480     2.175862481668     0.507710597504    14.003074004430
         C           -0.644680195480    -0.201096518332    -0.050918402496    12.000000000000
         C            0.832987804520    -0.153022518332    -0.018551402496    12.000000000000
         C           -1.484074095480     0.858503481668     0.157182797504    12.000000000000
         C           -1.274261195480    -1.426369518332    -0.322941402496    12.000000000000
         C           -2.839452195480     0.798403481668     0.196236597504    12.000000000000
         C            1.568949804520    -1.208379518332     0.545416597504    12.000000000000
         C           -2.660681195480    -1.553968518332    -0.322656402496    12.000000000000
         C           -3.444347195480    -0.428492518332    -0.060263402496    12.000000000000
         C            2.960038804520    -1.167550518332     0.514497597504    12.000000000000
         C            3.587202804520    -0.062002518332    -0.059276402496    12.000000000000
         C            2.786924804520     0.961408481668    -0.564945402496    12.000000000000
         H           -0.655338195480    -2.290944518332    -0.555554402496     1.007825032230
         H           -3.455190195480     1.675212481668     0.393083597504     1.007825032230
         H            1.048432804520    -2.037695518332     1.015417597504     1.007825032230
         H           -3.123244195480    -2.511857518332    -0.545236402496     1.007825032230
         H           -4.529487195480    -0.503297518332    -0.052332402496     1.007825032230
         H            3.544526804520    -1.976810518332     0.945798597504     1.007825032230
         H            0.022220804520     2.321380481668     0.034188597504     1.007825032230
         H           -1.499355195480     2.957391481668     0.373398597504     1.007825032230
         H            4.669840804520     0.016021481668    -0.101716402496     1.007825032230
         H            3.234602804520     1.851325481668    -1.004623402496     1.007825032230

  Basis Set: AUG-CC-PVTZ
    Blend: AUG-CC-PVTZ
  Basis Set: (AUG-CC-PVTZ AUX)
    Blend: AUG-CC-PVTZ-JKFIT
	 Reference Energy          =    -531.4427968361912917 [Eh]
	 Singles Energy            =      -0.0000000000000000 [Eh]
	 Same-Spin Energy          =      -0.5961688422919169 [Eh]
	 Opposite-Spin Energy      =      -1.8210312503423176 [Eh]
	 Correlation Energy        =      -2.4172000926342347 [Eh]
	 Total Energy              =    -533.8599969288255807 [Eh]

	 ================> DF-SCS-MP2 Energies <==================
	-----------------------------------------------------------
	 SCS Same-Spin Scale       =       0.3333333333333333 [-]
	 SCS Opposite-Spin Scale   =       1.2000000000000000 [-]
	 SCS Same-Spin Energy      =      -0.1987229474306390 [Eh]
	 SCS Opposite-Spin Energy  =      -2.1852375004107811 [Eh]
	 SCS Correlation Energy    =      -2.3839604478414200 [Eh]
	 SCS Total Energy          =    -533.8267572840327375 [Eh]
	-----------------------------------------------------------

  Dipole Moment: [D]
     X:     1.3767      Y:    -0.9549      Z:    -0.1258     Total:     1.6802

*** Psi4 exiting successfully. Buy a developer a beer!
