                               Psi4 1.3.2 release

  ==> Input File <==

--------------------------------------------------------------------------
#psi4
#
memory 32 gb

molecule  {
0 1
  N        1.4447430     0.9271060    -0.5600120
  N       -0.8646290     2.1728000     0.5033790
  C       -0.6433280    -0.2041590    -0.0552500
  C        0.8343400    -0.1560850    -0.0228830
  C       -1.4414270     0.9434540     0.1762700
  C       -1.2729090    -1.4294320    -0.3272730
  C       -2.8381000     0.7953410     0.1919050
  C        1.5703020    -1.2114420     0.5410850
  C       -2.6593290    -1.5570310    -0.3269880
  C       -3.4429950    -0.4315550    -0.0645950
  C        2.9613910    -1.1706130     0.5101660
  C        3.5885550    -0.0650650    -0.0636080
  C        2.7882770     0.9583460    -0.5692770
  H       -0.6539860    -2.2940070    -0.5598860
  H       -3.4538380     1.6721500     0.3887520
  H        1.0497850    -2.0407580     1.0110860
  H       -3.1218920    -2.5149200    -0.5495680
  H       -4.5281350    -0.5063600    -0.0566640
  H        3.5458790    -1.9798730     0.9414670
  H        0.0235730     2.3183180     0.0298570
  H       -1.4980030     2.9543290     0.3690670
  H        4.6711930     0.0129590    -0.1060480
  H        3.2770682     1.9299899    -1.0493335
units angstrom
no_reorient  #important for SAPT in psi4, default
symmetry c1  #important for SAPT in psi4, default
}

set PROPERTIES_ORIGIN ["COM"]
properties('MP2/aug-cc-pvtz', properties = ['dipole'])
--------------------------------------------------------------------------

    Molecular point group: c1
  Charge       = 0
  Multiplicity = 1
  Basis Set: AUG-CC-PVTZ
    Blend: AUG-CC-PVTZ
  Basis Set: (AUG-CC-PVTZ AUX)
    Blend: AUG-CC-PVTZ-JKFIT

    Orbital Energies [Eh]
    ---------------------

    Doubly Occupied:

       1A    -15.569966     2A    -15.551297     3A    -11.292582
       4A    -11.291001     5A    -11.281199     6A    -11.264246
       7A    -11.243814     8A    -11.242412     9A    -11.239495
      10A    -11.238462    11A    -11.234938    12A    -11.224199
      13A    -11.221477    14A     -1.263044    15A     -1.214237
      16A     -1.128148    17A     -1.089762    18A     -1.060504
      19A     -0.997342    20A     -0.980603    21A     -0.871827
      22A     -0.860701    23A     -0.815583    24A     -0.800329
      25A     -0.715399    26A     -0.690546    27A     -0.684812
      28A     -0.661395    29A     -0.653432    30A     -0.621636
      31A     -0.593469    32A     -0.590654    33A     -0.586165
      34A     -0.573548    35A     -0.551002    36A     -0.535540
      37A     -0.519346    38A     -0.500843    39A     -0.492685
      40A     -0.445476    41A     -0.420276    42A     -0.389686
      43A     -0.369138    44A     -0.319485    45A     -0.286951

  @DF-RHF Final Energy:  -531.44607418241412

   => Energetics <=

    Nuclear Repulsion Energy =            714.1285151910028617
    One-Electron Energy =               -2136.7918784137746115
    Two-Electron Energy =                 891.2172890403576275
    Total Energy =                       -531.4460741824141223
  Basis Set: (AUG-CC-PVTZ AUX)
    Blend: AUG-CC-PVTZ-RI
    Molecular point group: c1

    Geometry (in Angstrom), charge = 0, multiplicity = 1:

       Center              X                  Y                   Z               Mass
    ------------   -----------------  -----------------  -----------------  -----------------
         N            1.440233703003     0.923474614231    -0.557093413562    14.003074004430
         N           -0.869138296997     2.169168614231     0.506297586438    14.003074004430
         C           -0.647837296997    -0.207790385769    -0.052331413562    12.000000000000
         C            0.829830703003    -0.159716385769    -0.019964413562    12.000000000000
         C           -1.445936296997     0.939822614231     0.179188586438    12.000000000000
         C           -1.277418296997    -1.433063385769    -0.324354413562    12.000000000000
         C           -2.842609296997     0.791709614231     0.194823586438    12.000000000000
         C            1.565792703003    -1.215073385769     0.544003586438    12.000000000000
         C           -2.663838296997    -1.560662385769    -0.324069413562    12.000000000000
         C           -3.447504296997    -0.435186385769    -0.061676413562    12.000000000000
         C            2.956881703003    -1.174244385769     0.513084586438    12.000000000000
         C            3.584045703003    -0.068696385769    -0.060689413562    12.000000000000
         C            2.783767703003     0.954714614231    -0.566358413562    12.000000000000
         H           -0.658495296997    -2.297638385769    -0.556967413562     1.007825032230
         H           -3.458347296997     1.668518614231     0.391670586438     1.007825032230
         H            1.045275703003    -2.044389385769     1.014004586438     1.007825032230
         H           -3.126401296997    -2.518551385769    -0.546649413562     1.007825032230
         H           -4.532644296997    -0.509991385769    -0.053745413562     1.007825032230
         H            3.541369703003    -1.983504385769     0.944385586438     1.007825032230
         H            0.019063703003     2.314686614231     0.032775586438     1.007825032230
         H           -1.502512296997     2.950697614231     0.371985586438     1.007825032230
         H            4.666683703003     0.009327614231    -0.103129413562     1.007825032230
         H            3.272558903003     1.926358514231    -1.046414913562     1.007825032230

  Basis Set: AUG-CC-PVTZ
    Blend: AUG-CC-PVTZ
  Basis Set: (AUG-CC-PVTZ AUX)
    Blend: AUG-CC-PVTZ-JKFIT
	 Reference Energy          =    -531.4460741824141223 [Eh]
	 Singles Energy            =      -0.0000000000000000 [Eh]
	 Same-Spin Energy          =      -0.5967913896009344 [Eh]
	 Opposite-Spin Energy      =      -1.8217834499295469 [Eh]
	 Correlation Energy        =      -2.4185748395304811 [Eh]
	 Total Energy              =    -533.8646490219446150 [Eh]

	 ================> DF-SCS-MP2 Energies <==================
	-----------------------------------------------------------
	 SCS Same-Spin Scale       =       0.3333333333333333 [-]
	 SCS Opposite-Spin Scale   =       1.2000000000000000 [-]
	 SCS Same-Spin Energy      =      -0.1989304632003114 [Eh]
	 SCS Opposite-Spin Energy  =      -2.1861401399154561 [Eh]
	 SCS Correlation Energy    =      -2.3850706031157674 [Eh]
	 SCS Total Energy          =    -533.8311447855298866 [Eh]
	-----------------------------------------------------------

  Dipole Moment: [D]
     X:     1.4763      Y:    -0.4567      Z:     0.0331     Total:     1.5457

*** Psi4 exiting successfully. Buy a developer a beer!
