                               Psi4 1.3.2 release

  ==> Input File <==

--------------------------------------------------------------------------
#psi4
#
memory 32 gb

molecule  {
0 1
  N        1.4021953     0.9448835    -0.5704329
  N       -0.8646290     2.1728000     0.5033790
  C       -0.6433280    -0.2041590    -0.0552500
  C        0.8343400    -0.1560850    -0.0228830
  C       -1.4414270     0.9434540     0.1762700
  C       -1.2729090    -1.4294320    -0.3272730
  C       -2.8381000     0.7953410     0.1919050
  C        1.5703020    -1.2114420     0.5410850
  C       -2.6593290    -1.5570310    -0.3269880
  C       -3.4429950    -0.4315550    -0.0645950
  C        2.9613910    -1.1706130     0.5101660
  C        3.5885550    -0.0650650    -0.0636080
  C        2.7882770     0.9583460    -0.5692770
  H       -0.6539860    -2.2940070    -0.5598860
  H       -3.4538380     1.6721500     0.3887520
  H        1.0497850    -2.0407580     1.0110860
  H       -3.1218920    -2.5149200    -0.5495680
  H       -4.5281350    -0.5063600    -0.0566640
  H        3.5458790    -1.9798730     0.9414670
  H        0.0235730     2.3183180     0.0298570
  H       -1.4980030     2.9543290     0.3690670
  H        4.6711930     0.0129590    -0.1060480
  H        3.2359550     1.8482630    -1.0089550
units angstrom
no_reorient  #important for SAPT in psi4, default
symmetry c1  #important for SAPT in psi4, default
}

set PROPERTIES_ORIGIN ["COM"]
properties('MP2/aug-cc-pvtz', properties = ['dipole'])
--------------------------------------------------------------------------

    Molecular point group: c1
  Charge       = 0
  Multiplicity = 1
  Basis Set: AUG-CC-PVTZ
    Blend: AUG-CC-PVTZ
  Basis Set: (AUG-CC-PVTZ AUX)
    Blend: AUG-CC-PVTZ-JKFIT

    Orbital Energies [Eh]
    ---------------------

    Doubly Occupied:

       1A    -15.574514     2A    -15.549604     3A    -11.290655
       4A    -11.286448     5A    -11.280193     6A    -11.265721
       7A    -11.244625     8A    -11.242985     9A    -11.238441
      10A    -11.237582    11A    -11.233342    12A    -11.223380
      13A    -11.220631    14A     -1.255788    15A     -1.211738
      16A     -1.126905    17A     -1.090883    18A     -1.058645
      19A     -0.997258    20A     -0.980188    21A     -0.868695
      22A     -0.867397    23A     -0.815798    24A     -0.798523
      25A     -0.717985    26A     -0.689142    27A     -0.684420
      28A     -0.663469    29A     -0.651966    30A     -0.626770
      31A     -0.594131    32A     -0.592221    33A     -0.585796
      34A     -0.573715    35A     -0.547720    36A     -0.536062
      37A     -0.517479    38A     -0.499768    39A     -0.493405
      40A     -0.444774    41A     -0.427531    42A     -0.390027
      43A     -0.365942    44A     -0.319521    45A     -0.286402

  @DF-RHF Final Energy:  -531.44879085932621

   => Energetics <=

    Nuclear Repulsion Energy =            714.2216446154368441
    One-Electron Energy =               -2137.0045007492813056
    Two-Electron Energy =                 891.3340652745182524
    Total Energy =                       -531.4487908593262091
  Basis Set: (AUG-CC-PVTZ AUX)
    Blend: AUG-CC-PVTZ-RI
    Molecular point group: c1

    Geometry (in Angstrom), charge = 0, multiplicity = 1:

       Center              X                  Y                   Z               Mass
    ------------   -----------------  -----------------  -----------------  -----------------
         N            1.401432575353     0.940272757899    -0.566895619714    14.003074004430
         N           -0.865391724647     2.168189257899     0.506916280286    14.003074004430
         C           -0.644090724647    -0.208769742101    -0.051712719714    12.000000000000
         C            0.833577275353    -0.160695742101    -0.019345719714    12.000000000000
         C           -1.442189724647     0.938843257899     0.179807280286    12.000000000000
         C           -1.273671724647    -1.434042742101    -0.323735719714    12.000000000000
         C           -2.838862724647     0.790730257899     0.195442280286    12.000000000000
         C            1.569539275353    -1.216052742101     0.544622280286    12.000000000000
         C           -2.660091724647    -1.561641742101    -0.323450719714    12.000000000000
         C           -3.443757724647    -0.436165742101    -0.061057719714    12.000000000000
         C            2.960628275353    -1.175223742101     0.513703280286    12.000000000000
         C            3.587792275353    -0.069675742101    -0.060070719714    12.000000000000
         C            2.787514275353     0.953735257899    -0.565739719714    12.000000000000
         H           -0.654748724647    -2.298617742101    -0.556348719714     1.007825032230
         H           -3.454600724647     1.667539257899     0.392289280286     1.007825032230
         H            1.049022275353    -2.045368742101     1.014623280286     1.007825032230
         H           -3.122654724647    -2.519530742101    -0.546030719714     1.007825032230
         H           -4.528897724647    -0.510970742101    -0.053126719714     1.007825032230
         H            3.545116275353    -1.984483742101     0.945004280286     1.007825032230
         H            0.022810275353     2.313707257899     0.033394280286     1.007825032230
         H           -1.498765724647     2.949718257899     0.372604280286     1.007825032230
         H            4.670430275353     0.008348257899    -0.102510719714     1.007825032230
         H            3.235192275353     1.843652257899    -1.005417719714     1.007825032230

  Basis Set: AUG-CC-PVTZ
    Blend: AUG-CC-PVTZ
  Basis Set: (AUG-CC-PVTZ AUX)
    Blend: AUG-CC-PVTZ-JKFIT
	 Reference Energy          =    -531.4487908593262091 [Eh]
	 Singles Energy            =      -0.0000000000000000 [Eh]
	 Same-Spin Energy          =      -0.5970134474224280 [Eh]
	 Opposite-Spin Energy      =      -1.8224415692765472 [Eh]
	 Correlation Energy        =      -2.4194550166989752 [Eh]
	 Total Energy              =    -533.8682458760251848 [Eh]

	 ================> DF-SCS-MP2 Energies <==================
	-----------------------------------------------------------
	 SCS Same-Spin Scale       =       0.3333333333333333 [-]
	 SCS Opposite-Spin Scale   =       1.2000000000000000 [-]
	 SCS Same-Spin Energy      =      -0.1990044824741427 [Eh]
	 SCS Opposite-Spin Energy  =      -2.1869298831318567 [Eh]
	 SCS Correlation Energy    =      -2.3859343656059995 [Eh]
	 SCS Total Energy          =    -533.8347252249321855 [Eh]
	-----------------------------------------------------------

  Dipole Moment: [D]
     X:     1.6393      Y:    -0.4646      Z:     0.0340     Total:     1.7042

*** Psi4 exiting successfully. Buy a developer a beer!
