                               Psi4 1.3.2 release

  ==> Input File <==

--------------------------------------------------------------------------
#psi4
#
memory 32 gb

molecule  {
0 1
  N        1.4447430     0.9271060    -0.5600120
  N       -0.8646290     2.1728000     0.5033790
  C       -0.6435951    -0.1811498    -0.0669396
  C        0.8343400    -0.1560850    -0.0228830
  C       -1.4414270     0.9434540     0.1762700
  C       -1.2729090    -1.4294320    -0.3272730
  C       -2.8381000     0.7953410     0.1919050
  C        1.5703020    -1.2114420     0.5410850
  C       -2.6593290    -1.5570310    -0.3269880
  C       -3.4429950    -0.4315550    -0.0645950
  C        2.9613910    -1.1706130     0.5101660
  C        3.5885550    -0.0650650    -0.0636080
  C        2.7882770     0.9583460    -0.5692770
  H       -0.6539860    -2.2940070    -0.5598860
  H       -3.4538380     1.6721500     0.3887520
  H        1.0497850    -2.0407580     1.0110860
  H       -3.1218920    -2.5149200    -0.5495680
  H       -4.5281350    -0.5063600    -0.0566640
  H        3.5458790    -1.9798730     0.9414670
  H        0.0235730     2.3183180     0.0298570
  H       -1.4980030     2.9543290     0.3690670
  H        4.6711930     0.0129590    -0.1060480
  H        3.2359550     1.8482630    -1.0089550
units angstrom
no_reorient  #important for SAPT in psi4, default
symmetry c1  #important for SAPT in psi4, default
}

set PROPERTIES_ORIGIN ["COM"]
properties('MP2/aug-cc-pvtz', properties = ['dipole'])
--------------------------------------------------------------------------

    Molecular point group: c1
  Charge       = 0
  Multiplicity = 1
  Basis Set: AUG-CC-PVTZ
    Blend: AUG-CC-PVTZ
  Basis Set: (AUG-CC-PVTZ AUX)
    Blend: AUG-CC-PVTZ-JKFIT

    Orbital Energies [Eh]
    ---------------------

    Doubly Occupied:

       1A    -15.568325     2A    -15.550008     3A    -11.290056
       4A    -11.281085     5A    -11.278905     6A    -11.263628
       7A    -11.242625     8A    -11.242388     9A    -11.240790
      10A    -11.238425    11A    -11.234154    12A    -11.224820
      13A    -11.221859    14A     -1.262547    15A     -1.214320
      16A     -1.126760    17A     -1.089050    18A     -1.060969
      19A     -0.996390    20A     -0.982367    21A     -0.871835
      22A     -0.864414    23A     -0.818768    24A     -0.799298
      25A     -0.718627    26A     -0.690044    27A     -0.685195
      28A     -0.663745    29A     -0.652532    30A     -0.627566
      31A     -0.596183    32A     -0.592912    33A     -0.585076
      34A     -0.573872    35A     -0.550786    36A     -0.536741
      37A     -0.519920    38A     -0.499767    39A     -0.495822
      40A     -0.444254    41A     -0.421139    42A     -0.388901
      43A     -0.368026    44A     -0.318087    45A     -0.288214

  @DF-RHF Final Energy:  -531.45290443031126

   => Energetics <=

    Nuclear Repulsion Energy =            714.6962313758646133
    One-Electron Energy =               -2137.9358772201526335
    Two-Electron Energy =                 891.7867414139768698
    Total Energy =                       -531.4529044303112642
  Basis Set: (AUG-CC-PVTZ AUX)
    Blend: AUG-CC-PVTZ-RI
    Molecular point group: c1

    Geometry (in Angstrom), charge = 0, multiplicity = 1:

       Center              X                  Y                   Z               Mass
    ------------   -----------------  -----------------  -----------------  -----------------
         N            1.440496161597     0.922335509255    -0.556507935188    14.003074004430
         N           -0.868875838403     2.168029509255     0.506883064812    14.003074004430
         C           -0.647841938403    -0.185920290745    -0.063435535188    12.000000000000
         C            0.830093161597    -0.160855490745    -0.019378935188    12.000000000000
         C           -1.445673838403     0.938683509255     0.179774064812    12.000000000000
         C           -1.277155838403    -1.434202490745    -0.323768935188    12.000000000000
         C           -2.842346838403     0.790570509255     0.195409064812    12.000000000000
         C            1.566055161597    -1.216212490745     0.544589064812    12.000000000000
         C           -2.663575838403    -1.561801490745    -0.323483935188    12.000000000000
         C           -3.447241838403    -0.436325490745    -0.061090935188    12.000000000000
         C            2.957144161597    -1.175383490745     0.513670064812    12.000000000000
         C            3.584308161597    -0.069835490745    -0.060103935188    12.000000000000
         C            2.784030161597     0.953575509255    -0.565772935188    12.000000000000
         H           -0.658232838403    -2.298777490745    -0.556381935188     1.007825032230
         H           -3.458084838403     1.667379509255     0.392256064812     1.007825032230
         H            1.045538161597    -2.045528490745     1.014590064812     1.007825032230
         H           -3.126138838403    -2.519690490745    -0.546063935188     1.007825032230
         H           -4.532381838403    -0.511130490745    -0.053159935188     1.007825032230
         H            3.541632161597    -1.984643490745     0.944971064812     1.007825032230
         H            0.019326161597     2.313547509255     0.033361064812     1.007825032230
         H           -1.502249838403     2.949558509255     0.372571064812     1.007825032230
         H            4.666946161597     0.008188509255    -0.102543935188     1.007825032230
         H            3.231708161597     1.843492509255    -1.005450935188     1.007825032230

  Basis Set: AUG-CC-PVTZ
    Blend: AUG-CC-PVTZ
  Basis Set: (AUG-CC-PVTZ AUX)
    Blend: AUG-CC-PVTZ-JKFIT
	 Reference Energy          =    -531.4529044303112642 [Eh]
	 Singles Energy            =      -0.0000000000000000 [Eh]
	 Same-Spin Energy          =      -0.5965099459400631 [Eh]
	 Opposite-Spin Energy      =      -1.8208850907477101 [Eh]
	 Correlation Energy        =      -2.4173950366877732 [Eh]
	 Total Energy              =    -533.8702994669990858 [Eh]

	 ================> DF-SCS-MP2 Energies <==================
	-----------------------------------------------------------
	 SCS Same-Spin Scale       =       0.3333333333333333 [-]
	 SCS Opposite-Spin Scale   =       1.2000000000000000 [-]
	 SCS Same-Spin Energy      =      -0.1988366486466877 [Eh]
	 SCS Opposite-Spin Energy  =      -2.1850621088972519 [Eh]
	 SCS Correlation Energy    =      -2.3838987575439399 [Eh]
	 SCS Total Energy          =    -533.8368031878552529 [Eh]
	-----------------------------------------------------------

  Dipole Moment: [D]
     X:     1.5057      Y:    -0.4446      Z:     0.0126     Total:     1.5700

*** Psi4 exiting successfully. Buy a developer a beer!
