                               Psi4 1.4a3.dev225

  ==> Input File <==

--------------------------------------------------------------------------
#psi4
#
memory 32 gb

molecule  {
0 1
  N        1.4447430     0.9271060    -0.5600120
  N       -0.8646290     2.1728000     0.5033790
  C       -0.6433280    -0.2041590    -0.0552500
  C        0.8343400    -0.1560850    -0.0228830
  C       -1.4207795     0.9874605     0.1879794
  C       -1.2729090    -1.4294320    -0.3272730
  C       -2.8381000     0.7953410     0.1919050
  C        1.5703020    -1.2114420     0.5410850
  C       -2.6593290    -1.5570310    -0.3269880
  C       -3.4429950    -0.4315550    -0.0645950
  C        2.9613910    -1.1706130     0.5101660
  C        3.5885550    -0.0650650    -0.0636080
  C        2.7882770     0.9583460    -0.5692770
  H       -0.6539860    -2.2940070    -0.5598860
  H       -3.4538380     1.6721500     0.3887520
  H        1.0497850    -2.0407580     1.0110860
  H       -3.1218920    -2.5149200    -0.5495680
  H       -4.5281350    -0.5063600    -0.0566640
  H        3.5458790    -1.9798730     0.9414670
  H        0.0235730     2.3183180     0.0298570
  H       -1.4980030     2.9543290     0.3690670
  H        4.6711930     0.0129590    -0.1060480
  H        3.2359550     1.8482630    -1.0089550
units angstrom
no_reorient  #important for SAPT in psi4, default
symmetry c1  #important for SAPT in psi4, default
}

set PROPERTIES_ORIGIN ["COM"]
properties('MP2/aug-cc-pvtz', properties = ['dipole'])
--------------------------------------------------------------------------

    Molecular point group: c1
  Charge       = 0
  Multiplicity = 1
  Basis Set: AUG-CC-PVTZ
    Blend: AUG-CC-PVTZ
  Basis Set: (AUG-CC-PVTZ AUX)
    Blend: AUG-CC-PVTZ-JKFIT

    Orbital Energies [Eh]
    ---------------------

    Doubly Occupied:

       1A    -15.568312     2A    -15.557735     3A    -11.288628
       4A    -11.285994     5A    -11.281175     6A    -11.262890
       7A    -11.241815     8A    -11.240690     9A    -11.238262
      10A    -11.237325    11A    -11.234272    12A    -11.223975
      13A    -11.218107    14A     -1.263478    15A     -1.231456
      16A     -1.126691    17A     -1.088391    18A     -1.059398
      19A     -0.994840    20A     -0.976256    21A     -0.870063
      22A     -0.863561    23A     -0.815331    24A     -0.800810
      25A     -0.717348    26A     -0.695656    27A     -0.692267
      28A     -0.663744    29A     -0.655544    30A     -0.630697
      31A     -0.596035    32A     -0.586975    33A     -0.585552
      34A     -0.574040    35A     -0.550521    36A     -0.537339
      37A     -0.522467    38A     -0.503338    39A     -0.486659
      40A     -0.450689    41A     -0.420260    42A     -0.388660
      43A     -0.367705    44A     -0.317593    45A     -0.279921

  @DF-RHF Final Energy:  -531.44945114761060

   => Energetics <=

    Nuclear Repulsion Energy =            714.4348896213036824
    One-Electron Energy =               -2137.3837561243540222
    Two-Electron Energy =                 891.4994153554397371
    Total Energy =                       -531.4494511476106027
  Basis Set: (AUG-CC-PVTZ AUX)
    Blend: AUG-CC-PVTZ-RI
    Molecular point group: c1

    Geometry (in Angstrom), charge = 0, multiplicity = 1:

       Center              X                  Y                   Z               Mass
    ------------   -----------------  -----------------  -----------------  -----------------
         N            1.439020569465     0.920854082373    -0.558158809712    14.003074004430
         N           -0.870351430535     2.166548082373     0.505232190288    14.003074004430
         C           -0.649050430535    -0.210410917627    -0.053396809712    12.000000000000
         C            0.828617569465    -0.162336917627    -0.021029809712    12.000000000000
         C           -1.426501930535     0.981208582373     0.189832590288    12.000000000000
         C           -1.278631430535    -1.435683917627    -0.325419809712    12.000000000000
         C           -2.843822430535     0.789089082373     0.193758190288    12.000000000000
         C            1.564579569465    -1.217693917627     0.542938190288    12.000000000000
         C           -2.665051430535    -1.563282917627    -0.325134809712    12.000000000000
         C           -3.448717430535    -0.437806917627    -0.062741809712    12.000000000000
         C            2.955668569465    -1.176864917627     0.512019190288    12.000000000000
         C            3.582832569465    -0.071316917627    -0.061754809712    12.000000000000
         C            2.782554569465     0.952094082373    -0.567423809712    12.000000000000
         H           -0.659708430535    -2.300258917627    -0.558032809712     1.007825032230
         H           -3.459560430535     1.665898082373     0.390605190288     1.007825032230
         H            1.044062569465    -2.047009917627     1.012939190288     1.007825032230
         H           -3.127614430535    -2.521171917627    -0.547714809712     1.007825032230
         H           -4.533857430535    -0.512611917627    -0.054810809712     1.007825032230
         H            3.540156569465    -1.986124917627     0.943320190288     1.007825032230
         H            0.017850569465     2.312066082373     0.031710190288     1.007825032230
         H           -1.503725430535     2.948077082373     0.370920190288     1.007825032230
         H            4.665470569465     0.006707082373    -0.104194809712     1.007825032230
         H            3.230232569465     1.842011082373    -1.007101809712     1.007825032230

  Basis Set: AUG-CC-PVTZ
    Blend: AUG-CC-PVTZ
  Basis Set: (AUG-CC-PVTZ AUX)
    Blend: AUG-CC-PVTZ-JKFIT
	 Reference Energy          =    -531.4494511476106027 [Eh]
	 Singles Energy            =      -0.0000000000000000 [Eh]
	 Same-Spin Energy          =      -0.5969266309493961 [Eh]
	 Opposite-Spin Energy      =      -1.8211079455064196 [Eh]
	 Correlation Energy        =      -2.4180345764558160 [Eh]
	 Total Energy              =    -533.8674857240664551 [Eh]

	 ================> DF-SCS-MP2 Energies <==================
	-----------------------------------------------------------
	 SCS Same-Spin Scale       =       0.3333333333333333 [-]
	 SCS Opposite-Spin Scale   =       1.2000000000000000 [-]
	 SCS Same-Spin Energy      =      -0.1989755436497987 [Eh]
	 SCS Opposite-Spin Energy  =      -2.1853295346077033 [Eh]
	 SCS Correlation Energy    =      -2.3843050782575022 [Eh]
	 SCS Total Energy          =    -533.8337562258681146 [Eh]
	-----------------------------------------------------------

  Dipole Moment: [D]
     X:     1.6122      Y:    -0.1231      Z:     0.0931     Total:     1.6195

*** Psi4 exiting successfully. Buy a developer a beer!
