                               Psi4 1.3.2 release

  ==> Input File <==

--------------------------------------------------------------------------
#psi4
#
memory 32 gb

molecule  {
0 1
  N        1.4447430     0.9271060    -0.5600120
  N       -0.7773804     2.1320564     0.4881262
  C       -0.6433280    -0.2041590    -0.0552500
  C        0.8343400    -0.1560850    -0.0228830
  C       -1.4414270     0.9434540     0.1762700
  C       -1.2729090    -1.4294320    -0.3272730
  C       -2.8381000     0.7953410     0.1919050
  C        1.5703020    -1.2114420     0.5410850
  C       -2.6593290    -1.5570310    -0.3269880
  C       -3.4429950    -0.4315550    -0.0645950
  C        2.9613910    -1.1706130     0.5101660
  C        3.5885550    -0.0650650    -0.0636080
  C        2.7882770     0.9583460    -0.5692770
  H       -0.6539860    -2.2940070    -0.5598860
  H       -3.4538380     1.6721500     0.3887520
  H        1.0497850    -2.0407580     1.0110860
  H       -3.1218920    -2.5149200    -0.5495680
  H       -4.5281350    -0.5063600    -0.0566640
  H        3.5458790    -1.9798730     0.9414670
  H        0.0235730     2.3183180     0.0298570
  H       -1.4980030     2.9543290     0.3690670
  H        4.6711930     0.0129590    -0.1060480
  H        3.2359550     1.8482630    -1.0089550
units angstrom
no_reorient  #important for SAPT in psi4, default
symmetry c1  #important for SAPT in psi4, default
}

set PROPERTIES_ORIGIN ["COM"]
properties('MP2/aug-cc-pvtz', properties = ['dipole'])
--------------------------------------------------------------------------

    Molecular point group: c1
  Charge       = 0
  Multiplicity = 1
  Basis Set: AUG-CC-PVTZ
    Blend: AUG-CC-PVTZ
  Basis Set: (AUG-CC-PVTZ AUX)
    Blend: AUG-CC-PVTZ-JKFIT

    Orbital Energies [Eh]
    ---------------------

    Doubly Occupied:

       1A    -15.567524     2A    -15.552965     3A    -11.289175
       4A    -11.281713     5A    -11.280469     6A    -11.262760
       7A    -11.242252     8A    -11.241682     9A    -11.239456
      10A    -11.238727    11A    -11.233322    12A    -11.226685
      13A    -11.221931    14A     -1.262420    15A     -1.215084
      16A     -1.128681    17A     -1.088240    18A     -1.061115
      19A     -0.998767    20A     -0.981766    21A     -0.872175
      22A     -0.863444    23A     -0.815730    24A     -0.803842
      25A     -0.720092    26A     -0.700336    27A     -0.676080
      28A     -0.661469    29A     -0.655180    30A     -0.627568
      31A     -0.600612    32A     -0.590572    33A     -0.577953
      34A     -0.571801    35A     -0.550616    36A     -0.537100
      37A     -0.519794    38A     -0.502463    39A     -0.492146
      40A     -0.446241    41A     -0.420453    42A     -0.388056
      43A     -0.368188    44A     -0.319691    45A     -0.287769

  @DF-RHF Final Energy:  -531.43982147117219

   => Energetics <=

    Nuclear Repulsion Energy =            715.6326264693103667
    One-Electron Energy =               -2139.7766835425509271
    Two-Electron Energy =                 892.7042356020684792
    Total Energy =                       -531.4398214711721948
  Basis Set: (AUG-CC-PVTZ AUX)
    Blend: AUG-CC-PVTZ-RI
    Molecular point group: c1

    Geometry (in Angstrom), charge = 0, multiplicity = 1:

       Center              X                  Y                   Z               Mass
    ------------   -----------------  -----------------  -----------------  -----------------
         N            1.433294126522     0.927313308832    -0.556076908663    14.003074004430
         N           -0.788829273478     2.132263708832     0.492061291337    14.003074004430
         C           -0.654776873478    -0.203951691168    -0.051314908663    12.000000000000
         C            0.822891126522    -0.155877691168    -0.018947908663    12.000000000000
         C           -1.452875873478     0.943661308832     0.180205091337    12.000000000000
         C           -1.284357873478    -1.429224691168    -0.323337908663    12.000000000000
         C           -2.849548873478     0.795548308832     0.195840091337    12.000000000000
         C            1.558853126522    -1.211234691168     0.545020091337    12.000000000000
         C           -2.670777873478    -1.556823691168    -0.323052908663    12.000000000000
         C           -3.454443873478    -0.431347691168    -0.060659908663    12.000000000000
         C            2.949942126522    -1.170405691168     0.514101091337    12.000000000000
         C            3.577106126522    -0.064857691168    -0.059672908663    12.000000000000
         C            2.776828126522     0.958553308832    -0.565341908663    12.000000000000
         H           -0.665434873478    -2.293799691168    -0.555950908663     1.007825032230
         H           -3.465286873478     1.672357308832     0.392687091337     1.007825032230
         H            1.038336126522    -2.040550691168     1.015021091337     1.007825032230
         H           -3.133340873478    -2.514712691168    -0.545632908663     1.007825032230
         H           -4.539583873478    -0.506152691168    -0.052728908663     1.007825032230
         H            3.534430126522    -1.979665691168     0.945402091337     1.007825032230
         H            0.012124126522     2.318525308832     0.033792091337     1.007825032230
         H           -1.509451873478     2.954536308832     0.373002091337     1.007825032230
         H            4.659744126522     0.013166308832    -0.102112908663     1.007825032230
         H            3.224506126522     1.848470308832    -1.005019908663     1.007825032230

  Basis Set: AUG-CC-PVTZ
    Blend: AUG-CC-PVTZ
  Basis Set: (AUG-CC-PVTZ AUX)
    Blend: AUG-CC-PVTZ-JKFIT
	 Reference Energy          =    -531.4398214711721948 [Eh]
	 Singles Energy            =      -0.0000000000000000 [Eh]
	 Same-Spin Energy          =      -0.5967762143105408 [Eh]
	 Opposite-Spin Energy      =      -1.8216713684354842 [Eh]
	 Correlation Energy        =      -2.4184475827460252 [Eh]
	 Total Energy              =    -533.8582690539182067 [Eh]

	 ================> DF-SCS-MP2 Energies <==================
	-----------------------------------------------------------
	 SCS Same-Spin Scale       =       0.3333333333333333 [-]
	 SCS Opposite-Spin Scale   =       1.2000000000000000 [-]
	 SCS Same-Spin Energy      =      -0.1989254047701803 [Eh]
	 SCS Opposite-Spin Energy  =      -2.1860056421225811 [Eh]
	 SCS Correlation Energy    =      -2.3849310468927616 [Eh]
	 SCS Total Energy          =    -533.8247525180649973 [Eh]
	-----------------------------------------------------------

  Dipole Moment: [D]
     X:     1.4000      Y:    -0.4096      Z:     0.0264     Total:     1.4589

*** Psi4 exiting successfully. Buy a developer a beer!
