                               Psi4 1.3.2 release

  ==> Input File <==

--------------------------------------------------------------------------
#psi4
#
memory 32 gb

molecule  {
0 1
  N        1.4447430     0.9271060    -0.5600120
  N       -0.8646290     2.1728000     0.5033790
  C       -0.6433280    -0.2041590    -0.0552500
  C        0.8765357    -0.1346618    -0.0357261
  C       -1.4414270     0.9434540     0.1762700
  C       -1.2729090    -1.4294320    -0.3272730
  C       -2.8381000     0.7953410     0.1919050
  C        1.5703020    -1.2114420     0.5410850
  C       -2.6593290    -1.5570310    -0.3269880
  C       -3.4429950    -0.4315550    -0.0645950
  C        2.9613910    -1.1706130     0.5101660
  C        3.5885550    -0.0650650    -0.0636080
  C        2.7882770     0.9583460    -0.5692770
  H       -0.6539860    -2.2940070    -0.5598860
  H       -3.4538380     1.6721500     0.3887520
  H        1.0497850    -2.0407580     1.0110860
  H       -3.1218920    -2.5149200    -0.5495680
  H       -4.5281350    -0.5063600    -0.0566640
  H        3.5458790    -1.9798730     0.9414670
  H        0.0235730     2.3183180     0.0298570
  H       -1.4980030     2.9543290     0.3690670
  H        4.6711930     0.0129590    -0.1060480
  H        3.2359550     1.8482630    -1.0089550
units angstrom
no_reorient  #important for SAPT in psi4, default
symmetry c1  #important for SAPT in psi4, default
}

set PROPERTIES_ORIGIN ["COM"]
properties('MP2/aug-cc-pvtz', properties = ['dipole'])
--------------------------------------------------------------------------

    Molecular point group: c1
  Charge       = 0
  Multiplicity = 1
  Basis Set: AUG-CC-PVTZ
    Blend: AUG-CC-PVTZ
  Basis Set: (AUG-CC-PVTZ AUX)
    Blend: AUG-CC-PVTZ-JKFIT

    Orbital Energies [Eh]
    ---------------------

    Doubly Occupied:

       1A    -15.568065     2A    -15.550153     3A    -11.289320
       4A    -11.282527     5A    -11.278612     6A    -11.263999
       7A    -11.243724     8A    -11.242682     9A    -11.237640
      10A    -11.236316    11A    -11.235096    12A    -11.222654
      13A    -11.220139    14A     -1.275058    15A     -1.213418
      16A     -1.125523    17A     -1.093304    18A     -1.057388
      19A     -0.997406    20A     -0.979069    21A     -0.871744
      22A     -0.864708    23A     -0.816971    24A     -0.800008
      25A     -0.718758    26A     -0.690727    27A     -0.683579
      28A     -0.662163    29A     -0.656582    30A     -0.627145
      31A     -0.593537    32A     -0.590744    33A     -0.585180
      34A     -0.574606    35A     -0.555715    36A     -0.535822
      37A     -0.521018    38A     -0.500491    39A     -0.491722
      40A     -0.443961    41A     -0.421888    42A     -0.393301
      43A     -0.365774    44A     -0.319947    45A     -0.286673

  @DF-RHF Final Energy:  -531.45301225692754

   => Energetics <=

    Nuclear Repulsion Energy =            714.7359938050526580
    One-Electron Energy =               -2138.0082973111198044
    Two-Electron Energy =                 891.8192912491396100
    Total Energy =                       -531.4530122569275363
  Basis Set: (AUG-CC-PVTZ AUX)
    Blend: AUG-CC-PVTZ-RI
    Molecular point group: c1

    Geometry (in Angstrom), charge = 0, multiplicity = 1:

       Center              X                  Y                   Z               Mass
    ------------   -----------------  -----------------  -----------------  -----------------
         N            1.437500274820     0.922447406644    -0.556426552063    14.003074004430
         N           -0.871871725180     2.168141406644     0.506964447937    14.003074004430
         C           -0.650570725180    -0.208817593356    -0.051664552063    12.000000000000
         C            0.869292974820    -0.139320393356    -0.032140652063    12.000000000000
         C           -1.448669725180     0.938795406644     0.179855447937    12.000000000000
         C           -1.280151725180    -1.434090593356    -0.323687552063    12.000000000000
         C           -2.845342725180     0.790682406644     0.195490447937    12.000000000000
         C            1.563059274820    -1.216100593356     0.544670447937    12.000000000000
         C           -2.666571725180    -1.561689593356    -0.323402552063    12.000000000000
         C           -3.450237725180    -0.436213593356    -0.061009552063    12.000000000000
         C            2.954148274820    -1.175271593356     0.513751447937    12.000000000000
         C            3.581312274820    -0.069723593356    -0.060022552063    12.000000000000
         C            2.781034274820     0.953687406644    -0.565691552063    12.000000000000
         H           -0.661228725180    -2.298665593356    -0.556300552063     1.007825032230
         H           -3.461080725180     1.667491406644     0.392337447937     1.007825032230
         H            1.042542274820    -2.045416593356     1.014671447937     1.007825032230
         H           -3.129134725180    -2.519578593356    -0.545982552063     1.007825032230
         H           -4.535377725180    -0.511018593356    -0.053078552063     1.007825032230
         H            3.538636274820    -1.984531593356     0.945052447937     1.007825032230
         H            0.016330274820     2.313659406644     0.033442447937     1.007825032230
         H           -1.505245725180     2.949670406644     0.372652447937     1.007825032230
         H            4.663950274820     0.008300406644    -0.102462552063     1.007825032230
         H            3.228712274820     1.843604406644    -1.005369552063     1.007825032230

  Basis Set: AUG-CC-PVTZ
    Blend: AUG-CC-PVTZ
  Basis Set: (AUG-CC-PVTZ AUX)
    Blend: AUG-CC-PVTZ-JKFIT
	 Reference Energy          =    -531.4530122569275363 [Eh]
	 Singles Energy            =      -0.0000000000000000 [Eh]
	 Same-Spin Energy          =      -0.5957090408515127 [Eh]
	 Opposite-Spin Energy      =      -1.8194483282426304 [Eh]
	 Correlation Energy        =      -2.4151573690941430 [Eh]
	 Total Energy              =    -533.8681696260216540 [Eh]

	 ================> DF-SCS-MP2 Energies <==================
	-----------------------------------------------------------
	 SCS Same-Spin Scale       =       0.3333333333333333 [-]
	 SCS Opposite-Spin Scale   =       1.2000000000000000 [-]
	 SCS Same-Spin Energy      =      -0.1985696802838375 [Eh]
	 SCS Opposite-Spin Energy  =      -2.1833379938911563 [Eh]
	 SCS Correlation Energy    =      -2.3819076741749940 [Eh]
	 SCS Total Energy          =    -533.8349199311024904 [Eh]
	-----------------------------------------------------------

  Dipole Moment: [D]
     X:     1.6984      Y:    -0.4181      Z:     0.0059     Total:     1.7491

*** Psi4 exiting successfully. Buy a developer a beer!
