                               Psi4 1.3.2 release

  ==> Input File <==

--------------------------------------------------------------------------
#psi4
#
memory 32 gb

molecule  {
0 1
  N        1.4865470     0.9080088    -0.5489367
  N       -0.8646290     2.1728000     0.5033790
  C       -0.6433280    -0.2041590    -0.0552500
  C        0.8343400    -0.1560850    -0.0228830
  C       -1.4414270     0.9434540     0.1762700
  C       -1.2729090    -1.4294320    -0.3272730
  C       -2.8381000     0.7953410     0.1919050
  C        1.5703020    -1.2114420     0.5410850
  C       -2.6593290    -1.5570310    -0.3269880
  C       -3.4429950    -0.4315550    -0.0645950
  C        2.9613910    -1.1706130     0.5101660
  C        3.5885550    -0.0650650    -0.0636080
  C        2.7882770     0.9583460    -0.5692770
  H       -0.6539860    -2.2940070    -0.5598860
  H       -3.4538380     1.6721500     0.3887520
  H        1.0497850    -2.0407580     1.0110860
  H       -3.1218920    -2.5149200    -0.5495680
  H       -4.5281350    -0.5063600    -0.0566640
  H        3.5458790    -1.9798730     0.9414670
  H        0.0235730     2.3183180     0.0298570
  H       -1.4980030     2.9543290     0.3690670
  H        4.6711930     0.0129590    -0.1060480
  H        3.2359550     1.8482630    -1.0089550
units angstrom
no_reorient  #important for SAPT in psi4, default
symmetry c1  #important for SAPT in psi4, default
}

set PROPERTIES_ORIGIN ["COM"]
properties('MP2/aug-cc-pvtz', properties = ['dipole'])
--------------------------------------------------------------------------

    Molecular point group: c1
  Charge       = 0
  Multiplicity = 1
  Basis Set: AUG-CC-PVTZ
    Blend: AUG-CC-PVTZ
  Basis Set: (AUG-CC-PVTZ AUX)
    Blend: AUG-CC-PVTZ-JKFIT

    Orbital Energies [Eh]
    ---------------------

    Doubly Occupied:

       1A    -15.562875     2A    -15.552518     3A    -11.289656
       4A    -11.281587     5A    -11.276060     6A    -11.261207
       7A    -11.241101     8A    -11.240764     9A    -11.239885
      10A    -11.238784    11A    -11.235843    12A    -11.224555
      13A    -11.221835    14A     -1.270546    15A     -1.216011
      16A     -1.128962    17A     -1.087622    18A     -1.063682
      19A     -0.998399    20A     -0.981158    21A     -0.874396
      22A     -0.861670    23A     -0.818398    24A     -0.802613
      25A     -0.719843    26A     -0.692510    27A     -0.685580
      28A     -0.663268    29A     -0.654662    30A     -0.627682
      31A     -0.597162    32A     -0.592565    33A     -0.586616
      34A     -0.574645    35A     -0.554133    36A     -0.537068
      37A     -0.522681    38A     -0.503117    39A     -0.494290
      40A     -0.445898    41A     -0.412917    42A     -0.388685
      43A     -0.370901    44A     -0.318766    45A     -0.286836

  @DF-RHF Final Energy:  -531.45410233111409

   => Energetics <=

    Nuclear Repulsion Energy =            715.1088392780924323
    One-Electron Energy =               -2138.7259883488172818
    Two-Electron Energy =                 892.1630467396106496
    Total Energy =                       -531.4541023311140862
  Basis Set: (AUG-CC-PVTZ AUX)
    Blend: AUG-CC-PVTZ-RI
    Molecular point group: c1

    Geometry (in Angstrom), charge = 0, multiplicity = 1:

       Center              X                  Y                   Z               Mass
    ------------   -----------------  -----------------  -----------------  -----------------
         N            1.478839587250     0.906433957476    -0.547169205082    14.003074004430
         N           -0.872336412750     2.171225157476     0.505146494918    14.003074004430
         C           -0.651035412750    -0.205733842524    -0.053482505082    12.000000000000
         C            0.826632587250    -0.157659842524    -0.021115505082    12.000000000000
         C           -1.449134412750     0.941879157476     0.178037494918    12.000000000000
         C           -1.280616412750    -1.431006842524    -0.325505505082    12.000000000000
         C           -2.845807412750     0.793766157476     0.193672494918    12.000000000000
         C            1.562594587250    -1.213016842524     0.542852494918    12.000000000000
         C           -2.667036412750    -1.558605842524    -0.325220505082    12.000000000000
         C           -3.450702412750    -0.433129842524    -0.062827505082    12.000000000000
         C            2.953683587250    -1.172187842524     0.511933494918    12.000000000000
         C            3.580847587250    -0.066639842524    -0.061840505082    12.000000000000
         C            2.780569587250     0.956771157476    -0.567509505082    12.000000000000
         H           -0.661693412750    -2.295581842524    -0.558118505082     1.007825032230
         H           -3.461545412750     1.670575157476     0.390519494918     1.007825032230
         H            1.042077587250    -2.042332842524     1.012853494918     1.007825032230
         H           -3.129599412750    -2.516494842524    -0.547800505082     1.007825032230
         H           -4.535842412750    -0.507934842524    -0.054896505082     1.007825032230
         H            3.538171587250    -1.981447842524     0.943234494918     1.007825032230
         H            0.015865587250     2.316743157476     0.031624494918     1.007825032230
         H           -1.505710412750     2.952754157476     0.370834494918     1.007825032230
         H            4.663485587250     0.011384157476    -0.104280505082     1.007825032230
         H            3.228247587250     1.846688157476    -1.007187505082     1.007825032230

  Basis Set: AUG-CC-PVTZ
    Blend: AUG-CC-PVTZ
  Basis Set: (AUG-CC-PVTZ AUX)
    Blend: AUG-CC-PVTZ-JKFIT
	 Reference Energy          =    -531.4541023311140862 [Eh]
	 Singles Energy            =      -0.0000000000000000 [Eh]
	 Same-Spin Energy          =      -0.5960747916790072 [Eh]
	 Opposite-Spin Energy      =      -1.8193930524737487 [Eh]
	 Correlation Energy        =      -2.4154678441527562 [Eh]
	 Total Energy              =    -533.8695701752668583 [Eh]

	 ================> DF-SCS-MP2 Energies <==================
	-----------------------------------------------------------
	 SCS Same-Spin Scale       =       0.3333333333333333 [-]
	 SCS Opposite-Spin Scale   =       1.2000000000000000 [-]
	 SCS Same-Spin Energy      =      -0.1986915972263357 [Eh]
	 SCS Opposite-Spin Energy  =      -2.1832716629684983 [Eh]
	 SCS Correlation Energy    =      -2.3819632601948340 [Eh]
	 SCS Total Energy          =    -533.8360655913089658 [Eh]
	-----------------------------------------------------------

  Dipole Moment: [D]
     X:     1.4018      Y:    -0.3719      Z:    -0.0088     Total:     1.4504

*** Psi4 exiting successfully. Buy a developer a beer!
