                               Psi4 1.3.2 release

  ==> Input File <==

--------------------------------------------------------------------------
#psi4
#
memory 32 gb

molecule  {
0 1
  N        1.4447430     0.9271060    -0.5600120
  N       -0.8646290     2.1728000     0.5033790
  C       -0.6433280    -0.2041590    -0.0552500
  C        0.9634471    -0.0944776    -0.0569083
  C       -1.4414270     0.9434540     0.1762700
  C       -1.2729090    -1.4294320    -0.3272730
  C       -2.8381000     0.7953410     0.1919050
  C        1.5703020    -1.2114420     0.5410850
  C       -2.6593290    -1.5570310    -0.3269880
  C       -3.4429950    -0.4315550    -0.0645950
  C        2.9613910    -1.1706130     0.5101660
  C        3.5885550    -0.0650650    -0.0636080
  C        2.7882770     0.9583460    -0.5692770
  H       -0.6539860    -2.2940070    -0.5598860
  H       -3.4538380     1.6721500     0.3887520
  H        1.0497850    -2.0407580     1.0110860
  H       -3.1218920    -2.5149200    -0.5495680
  H       -4.5281350    -0.5063600    -0.0566640
  H        3.5458790    -1.9798730     0.9414670
  H        0.0235730     2.3183180     0.0298570
  H       -1.4980030     2.9543290     0.3690670
  H        4.6711930     0.0129590    -0.1060480
  H        3.2359550     1.8482630    -1.0089550
units angstrom
no_reorient  #important for SAPT in psi4, default
symmetry c1  #important for SAPT in psi4, default
}

set PROPERTIES_ORIGIN ["COM"]
properties('MP2/aug-cc-pvtz', properties = ['dipole'])
--------------------------------------------------------------------------

    Molecular point group: c1
  Charge       = 0
  Multiplicity = 1
  Basis Set: AUG-CC-PVTZ
    Blend: AUG-CC-PVTZ
  Basis Set: (AUG-CC-PVTZ AUX)
    Blend: AUG-CC-PVTZ-JKFIT

    Orbital Energies [Eh]
    ---------------------

    Doubly Occupied:

       1A    -15.566237     2A    -15.548415     3A    -11.288322
       4A    -11.285234     5A    -11.274020     6A    -11.265279
       7A    -11.245989     8A    -11.244956     9A    -11.234650
      10A    -11.233469    11A    -11.232483    12A    -11.219857
      13A    -11.217698    14A     -1.305276    15A     -1.211399
      16A     -1.121061    17A     -1.102644    18A     -1.050862
      19A     -0.995871    20A     -0.975418    21A     -0.880305
      22A     -0.858720    23A     -0.815731    24A     -0.797938
      25A     -0.721653    26A     -0.690565    27A     -0.680740
      28A     -0.665820    29A     -0.656686    30A     -0.626195
      31A     -0.590712    32A     -0.587855    33A     -0.583649
      34A     -0.575193    35A     -0.569068    36A     -0.533116
      37A     -0.521101    38A     -0.498859    39A     -0.490119
      40A     -0.441233    41A     -0.414923    42A     -0.402833
      43A     -0.361001    44A     -0.320932    45A     -0.285536

  @DF-RHF Final Energy:  -531.43284424146486

   => Energetics <=

    Nuclear Repulsion Energy =            715.0410389460454326
    One-Electron Energy =               -2138.5685197188363418
    Two-Electron Energy =                 892.0946365313261595
    Total Energy =                       -531.4328442414648634
  Basis Set: (AUG-CC-PVTZ AUX)
    Blend: AUG-CC-PVTZ-RI
    Molecular point group: c1

    Geometry (in Angstrom), charge = 0, multiplicity = 1:

       Center              X                  Y                   Z               Mass
    ------------   -----------------  -----------------  -----------------  -----------------
         N            1.431368396704     0.919612282407    -0.554932079892    14.003074004430
         N           -0.878003603296     2.165306282407     0.508458920108    14.003074004430
         C           -0.656702603296    -0.211652717593    -0.050170079892    12.000000000000
         C            0.950072496704    -0.101971317593    -0.051828379892    12.000000000000
         C           -1.454801603296     0.935960282407     0.181349920108    12.000000000000
         C           -1.286283603296    -1.436925717593    -0.322193079892    12.000000000000
         C           -2.851474603296     0.787847282407     0.196984920108    12.000000000000
         C            1.556927396704    -1.218935717593     0.546164920108    12.000000000000
         C           -2.672703603296    -1.564524717593    -0.321908079892    12.000000000000
         C           -3.456369603296    -0.439048717593    -0.059515079892    12.000000000000
         C            2.948016396704    -1.178106717593     0.515245920108    12.000000000000
         C            3.575180396704    -0.072558717593    -0.058528079892    12.000000000000
         C            2.774902396704     0.950852282407    -0.564197079892    12.000000000000
         H           -0.667360603296    -2.301500717593    -0.554806079892     1.007825032230
         H           -3.467212603296     1.664656282407     0.393831920108     1.007825032230
         H            1.036410396704    -2.048251717593     1.016165920108     1.007825032230
         H           -3.135266603296    -2.522413717593    -0.544488079892     1.007825032230
         H           -4.541509603296    -0.513853717593    -0.051584079892     1.007825032230
         H            3.532504396704    -1.987366717593     0.946546920108     1.007825032230
         H            0.010198396704     2.310824282407     0.034936920108     1.007825032230
         H           -1.511377603296     2.946835282407     0.374146920108     1.007825032230
         H            4.657818396704     0.005465282407    -0.100968079892     1.007825032230
         H            3.222580396704     1.840769282407    -1.003875079892     1.007825032230

  Basis Set: AUG-CC-PVTZ
    Blend: AUG-CC-PVTZ
  Basis Set: (AUG-CC-PVTZ AUX)
    Blend: AUG-CC-PVTZ-JKFIT
	 Reference Energy          =    -531.4328442414648634 [Eh]
	 Singles Energy            =      -0.0000000000000000 [Eh]
	 Same-Spin Energy          =      -0.5946743628669862 [Eh]
	 Opposite-Spin Energy      =      -1.8181495735231015 [Eh]
	 Correlation Energy        =      -2.4128239363900876 [Eh]
	 Total Energy              =    -533.8456681778549182 [Eh]

	 ================> DF-SCS-MP2 Energies <==================
	-----------------------------------------------------------
	 SCS Same-Spin Scale       =       0.3333333333333333 [-]
	 SCS Opposite-Spin Scale   =       1.2000000000000000 [-]
	 SCS Same-Spin Energy      =      -0.1982247876223287 [Eh]
	 SCS Opposite-Spin Energy  =      -2.1817794882277215 [Eh]
	 SCS Correlation Energy    =      -2.3800042758500504 [Eh]
	 SCS Total Energy          =    -533.8128485173149329 [Eh]
	-----------------------------------------------------------

  Dipole Moment: [D]
     X:     2.0653      Y:    -0.3983      Z:    -0.0133     Total:     2.1034

*** Psi4 exiting successfully. Buy a developer a beer!
