                               Psi4 1.3.2 release

  ==> Input File <==

--------------------------------------------------------------------------
#psi4
#
memory 32 gb

molecule  {
0 1
  N        1.4447430     0.9271060    -0.5600120
  N       -0.9546877     2.2075544     0.5170381
  C       -0.6433280    -0.2041590    -0.0552500
  C        0.8343400    -0.1560850    -0.0228830
  C       -1.4414270     0.9434540     0.1762700
  C       -1.2729090    -1.4294320    -0.3272730
  C       -2.8381000     0.7953410     0.1919050
  C        1.5703020    -1.2114420     0.5410850
  C       -2.6593290    -1.5570310    -0.3269880
  C       -3.4429950    -0.4315550    -0.0645950
  C        2.9613910    -1.1706130     0.5101660
  C        3.5885550    -0.0650650    -0.0636080
  C        2.7882770     0.9583460    -0.5692770
  H       -0.6539860    -2.2940070    -0.5598860
  H       -3.4538380     1.6721500     0.3887520
  H        1.0497850    -2.0407580     1.0110860
  H       -3.1218920    -2.5149200    -0.5495680
  H       -4.5281350    -0.5063600    -0.0566640
  H        3.5458790    -1.9798730     0.9414670
  H        0.0235730     2.3183180     0.0298570
  H       -1.4980030     2.9543290     0.3690670
  H        4.6711930     0.0129590    -0.1060480
  H        3.2359550     1.8482630    -1.0089550
units angstrom
no_reorient  #important for SAPT in psi4, default
symmetry c1  #important for SAPT in psi4, default
}

set PROPERTIES_ORIGIN ["COM"]
properties('MP2/aug-cc-pvtz', properties = ['dipole'])
--------------------------------------------------------------------------

    Molecular point group: c1
  Charge       = 0
  Multiplicity = 1
  Basis Set: AUG-CC-PVTZ
    Blend: AUG-CC-PVTZ
  Basis Set: (AUG-CC-PVTZ AUX)
    Blend: AUG-CC-PVTZ-JKFIT

    Orbital Energies [Eh]
    ---------------------

    Doubly Occupied:

       1A    -15.570434     2A    -15.548677     3A    -11.291167
       4A    -11.282495     5A    -11.281553     6A    -11.264383
       7A    -11.243370     8A    -11.242556     9A    -11.239847
      10A    -11.237070    11A    -11.236388    12A    -11.221760
      13A    -11.221000    14A     -1.263188    15A     -1.215609
      16A     -1.128722    17A     -1.089952    18A     -1.061866
      19A     -0.997395    20A     -0.981926    21A     -0.871487
      22A     -0.866042    23A     -0.819740    24A     -0.800446
      25A     -0.720864    26A     -0.697271    27A     -0.683546
      28A     -0.666013    29A     -0.647744    30A     -0.629561
      31A     -0.598303    32A     -0.588941    33A     -0.585609
      34A     -0.570899    35A     -0.551068    36A     -0.536227
      37A     -0.520618    38A     -0.500989    39A     -0.493178
      40A     -0.444715    41A     -0.420900    42A     -0.390049
      43A     -0.369355    44A     -0.318844    45A     -0.286128

  @DF-RHF Final Energy:  -531.44035436903539

   => Energetics <=

    Nuclear Repulsion Energy =            713.8238988946634436
    One-Electron Energy =               -2136.1327205425604916
    Two-Electron Energy =                 890.8684672788616581
    Total Energy =                       -531.4403543690353899
  Basis Set: (AUG-CC-PVTZ AUX)
    Blend: AUG-CC-PVTZ-RI
    Molecular point group: c1

    Geometry (in Angstrom), charge = 0, multiplicity = 1:

       Center              X                  Y                   Z               Mass
    ------------   -----------------  -----------------  -----------------  -----------------
         N            1.447891863103     0.921097547178    -0.558457229723    14.003074004430
         N           -0.951538836897     2.201545947178     0.518592870277    14.003074004430
         C           -0.640179136897    -0.210167452822    -0.053695229723    12.000000000000
         C            0.837488863103    -0.162093452822    -0.021328229723    12.000000000000
         C           -1.438278136897     0.937445547178     0.177824770277    12.000000000000
         C           -1.269760136897    -1.435440452822    -0.325718229723    12.000000000000
         C           -2.834951136897     0.789332547178     0.193459770277    12.000000000000
         C            1.573450863103    -1.217450452822     0.542639770277    12.000000000000
         C           -2.656180136897    -1.563039452822    -0.325433229723    12.000000000000
         C           -3.439846136897    -0.437563452822    -0.063040229723    12.000000000000
         C            2.964539863103    -1.176621452822     0.511720770277    12.000000000000
         C            3.591703863103    -0.071073452822    -0.062053229723    12.000000000000
         C            2.791425863103     0.952337547178    -0.567722229723    12.000000000000
         H           -0.650837136897    -2.300015452822    -0.558331229723     1.007825032230
         H           -3.450689136897     1.666141547178     0.390306770277     1.007825032230
         H            1.052933863103    -2.046766452822     1.012640770277     1.007825032230
         H           -3.118743136897    -2.520928452822    -0.548013229723     1.007825032230
         H           -4.524986136897    -0.512368452822    -0.055109229723     1.007825032230
         H            3.549027863103    -1.985881452822     0.943021770277     1.007825032230
         H            0.026721863103     2.312309547178     0.031411770277     1.007825032230
         H           -1.494854136897     2.948320547178     0.370621770277     1.007825032230
         H            4.674341863103     0.006950547178    -0.104493229723     1.007825032230
         H            3.239103863103     1.842254547178    -1.007400229723     1.007825032230

  Basis Set: AUG-CC-PVTZ
    Blend: AUG-CC-PVTZ
  Basis Set: (AUG-CC-PVTZ AUX)
    Blend: AUG-CC-PVTZ-JKFIT
	 Reference Energy          =    -531.4403543690353899 [Eh]
	 Singles Energy            =      -0.0000000000000000 [Eh]
	 Same-Spin Energy          =      -0.5966713310866558 [Eh]
	 Opposite-Spin Energy      =      -1.8211895290557254 [Eh]
	 Correlation Energy        =      -2.4178608601423814 [Eh]
	 Total Energy              =    -533.8582152291777447 [Eh]

	 ================> DF-SCS-MP2 Energies <==================
	-----------------------------------------------------------
	 SCS Same-Spin Scale       =       0.3333333333333333 [-]
	 SCS Opposite-Spin Scale   =       1.2000000000000000 [-]
	 SCS Same-Spin Energy      =      -0.1988904436955519 [Eh]
	 SCS Opposite-Spin Energy  =      -2.1854274348668703 [Eh]
	 SCS Correlation Energy    =      -2.3843178785624222 [Eh]
	 SCS Total Energy          =    -533.8246722475978459 [Eh]
	-----------------------------------------------------------

  Dipole Moment: [D]
     X:     1.6595      Y:    -0.4807      Z:    -0.0118     Total:     1.7278

*** Psi4 exiting successfully. Buy a developer a beer!
