                               Psi4 1.3.2 release

  ==> Input File <==

--------------------------------------------------------------------------
#psi4
#
memory 32 gb

molecule  {
0 1
  N        1.4447430     0.9271060    -0.5600120
  N       -0.8646290     2.1728000     0.5033790
  C       -0.6433280    -0.2041590    -0.0552500
  C        0.8135752    -0.1672805    -0.0162028
  C       -1.4414270     0.9434540     0.1762700
  C       -1.2729090    -1.4294320    -0.3272730
  C       -2.8381000     0.7953410     0.1919050
  C        1.5703020    -1.2114420     0.5410850
  C       -2.6593290    -1.5570310    -0.3269880
  C       -3.4429950    -0.4315550    -0.0645950
  C        2.9613910    -1.1706130     0.5101660
  C        3.5885550    -0.0650650    -0.0636080
  C        2.7882770     0.9583460    -0.5692770
  H       -0.6539860    -2.2940070    -0.5598860
  H       -3.4538380     1.6721500     0.3887520
  H        1.0497850    -2.0407580     1.0110860
  H       -3.1218920    -2.5149200    -0.5495680
  H       -4.5281350    -0.5063600    -0.0566640
  H        3.5458790    -1.9798730     0.9414670
  H        0.0235730     2.3183180     0.0298570
  H       -1.4980030     2.9543290     0.3690670
  H        4.6711930     0.0129590    -0.1060480
  H        3.2359550     1.8482630    -1.0089550
units angstrom
no_reorient  #important for SAPT in psi4, default
symmetry c1  #important for SAPT in psi4, default
}

set PROPERTIES_ORIGIN ["COM"]
properties('MP2/aug-cc-pvtz', properties = ['dipole'])
--------------------------------------------------------------------------

    Molecular point group: c1
  Charge       = 0
  Multiplicity = 1
  Basis Set: AUG-CC-PVTZ
    Blend: AUG-CC-PVTZ
  Basis Set: (AUG-CC-PVTZ AUX)
    Blend: AUG-CC-PVTZ-JKFIT

    Orbital Energies [Eh]
    ---------------------

    Doubly Occupied:

       1A    -15.569132     2A    -15.551534     3A    -11.290447
       4A    -11.282084     5A    -11.280858     6A    -11.263244
       7A    -11.242203     8A    -11.241742     9A    -11.239959
      10A    -11.239161    11A    -11.234088    12A    -11.224626
      13A    -11.221777    14A     -1.257022    15A     -1.214108
      16A     -1.129208    17A     -1.086942    18A     -1.063569
      19A     -0.997939    20A     -0.981411    21A     -0.873027
      22A     -0.863223    23A     -0.816870    24A     -0.800880
      25A     -0.719163    26A     -0.690624    27A     -0.685650
      28A     -0.664513    29A     -0.651184    30A     -0.627164
      31A     -0.596712    32A     -0.593244    33A     -0.586781
      34A     -0.574090    35A     -0.548650    36A     -0.536932
      37A     -0.519408    38A     -0.501867    39A     -0.495053
      40A     -0.445867    41A     -0.419583    42A     -0.387016
      43A     -0.370186    44A     -0.318723    45A     -0.286482

  @DF-RHF Final Energy:  -531.45147227338077

   => Energetics <=

    Nuclear Repulsion Energy =            714.6024911478531294
    One-Electron Energy =               -2137.7400392002259650
    Two-Electron Energy =                 891.6860757789921763
    Total Energy =                       -531.4514722733807730
  Basis Set: (AUG-CC-PVTZ AUX)
    Blend: AUG-CC-PVTZ-RI
    Molecular point group: c1

    Geometry (in Angstrom), charge = 0, multiplicity = 1:

       Center              X                  Y                   Z               Mass
    ------------   -----------------  -----------------  -----------------  -----------------
         N            1.441942340097     0.924748760583    -0.557803983516    14.003074004430
         N           -0.867429659903     2.170442760583     0.505587016484    14.003074004430
         C           -0.646128659903    -0.206516239417    -0.053041983516    12.000000000000
         C            0.810774540097    -0.169637739417    -0.013994783516    12.000000000000
         C           -1.444227659903     0.941096760583     0.178478016484    12.000000000000
         C           -1.275709659903    -1.431789239417    -0.325064983516    12.000000000000
         C           -2.840900659903     0.792983760583     0.194113016484    12.000000000000
         C            1.567501340097    -1.213799239417     0.543293016484    12.000000000000
         C           -2.662129659903    -1.559388239417    -0.324779983516    12.000000000000
         C           -3.445795659903    -0.433912239417    -0.062386983516    12.000000000000
         C            2.958590340097    -1.172970239417     0.512374016484    12.000000000000
         C            3.585754340097    -0.067422239417    -0.061399983516    12.000000000000
         C            2.785476340097     0.955988760583    -0.567068983516    12.000000000000
         H           -0.656786659903    -2.296364239417    -0.557677983516     1.007825032230
         H           -3.456638659903     1.669792760583     0.390960016484     1.007825032230
         H            1.046984340097    -2.043115239417     1.013294016484     1.007825032230
         H           -3.124692659903    -2.517277239417    -0.547359983516     1.007825032230
         H           -4.530935659903    -0.508717239417    -0.054455983516     1.007825032230
         H            3.543078340097    -1.982230239417     0.943675016484     1.007825032230
         H            0.020772340097     2.315960760583     0.032065016484     1.007825032230
         H           -1.500803659903     2.951971760583     0.371275016484     1.007825032230
         H            4.668392340097     0.010601760583    -0.103839983516     1.007825032230
         H            3.233154340097     1.845905760583    -1.006746983516     1.007825032230

  Basis Set: AUG-CC-PVTZ
    Blend: AUG-CC-PVTZ
  Basis Set: (AUG-CC-PVTZ AUX)
    Blend: AUG-CC-PVTZ-JKFIT
	 Reference Energy          =    -531.4514722733807730 [Eh]
	 Singles Energy            =      -0.0000000000000000 [Eh]
	 Same-Spin Energy          =      -0.5969748005711462 [Eh]
	 Opposite-Spin Energy      =      -1.8215991466078183 [Eh]
	 Correlation Energy        =      -2.4185739471789645 [Eh]
	 Total Energy              =    -533.8700462205597432 [Eh]

	 ================> DF-SCS-MP2 Energies <==================
	-----------------------------------------------------------
	 SCS Same-Spin Scale       =       0.3333333333333333 [-]
	 SCS Opposite-Spin Scale   =       1.2000000000000000 [-]
	 SCS Same-Spin Energy      =      -0.1989916001903820 [Eh]
	 SCS Opposite-Spin Energy  =      -2.1859189759293818 [Eh]
	 SCS Correlation Energy    =      -2.3849105761197640 [Eh]
	 SCS Total Energy          =    -533.8363828495005237 [Eh]
	-----------------------------------------------------------

  Dipole Moment: [D]
     X:     1.4407      Y:    -0.4199      Z:     0.0175     Total:     1.5007

*** Psi4 exiting successfully. Buy a developer a beer!
