                               Psi4 1.4a3.dev225

  ==> Input File <==

--------------------------------------------------------------------------
#psi4
#
memory 32 gb

molecule  {
0 1
  N        1.4447430     0.9271060    -0.5600120
  N       -0.8646290     2.1728000     0.5033790
  C       -0.6433280    -0.2041590    -0.0552500
  C        0.8253264    -0.1720801    -0.0149514
  C       -1.4414270     0.9434540     0.1762700
  C       -1.2729090    -1.4294320    -0.3272730
  C       -2.8381000     0.7953410     0.1919050
  C        1.5703020    -1.2114420     0.5410850
  C       -2.6593290    -1.5570310    -0.3269880
  C       -3.4429950    -0.4315550    -0.0645950
  C        2.9613910    -1.1706130     0.5101660
  C        3.5885550    -0.0650650    -0.0636080
  C        2.7882770     0.9583460    -0.5692770
  H       -0.6539860    -2.2940070    -0.5598860
  H       -3.4538380     1.6721500     0.3887520
  H        1.0497850    -2.0407580     1.0110860
  H       -3.1218920    -2.5149200    -0.5495680
  H       -4.5281350    -0.5063600    -0.0566640
  H        3.5458790    -1.9798730     0.9414670
  H        0.0235730     2.3183180     0.0298570
  H       -1.4980030     2.9543290     0.3690670
  H        4.6711930     0.0129590    -0.1060480
  H        3.2359550     1.8482630    -1.0089550
units angstrom
no_reorient  #important for SAPT in psi4, default
symmetry c1  #important for SAPT in psi4, default
}

set PROPERTIES_ORIGIN ["COM"]
properties('MP2/aug-cc-pvtz', properties = ['dipole'])
--------------------------------------------------------------------------

    Molecular point group: c1
  Charge       = 0
  Multiplicity = 1
  Basis Set: AUG-CC-PVTZ
    Blend: AUG-CC-PVTZ
  Basis Set: (AUG-CC-PVTZ AUX)
    Blend: AUG-CC-PVTZ-JKFIT

    Orbital Energies [Eh]
    ---------------------

    Doubly Occupied:

       1A    -15.569582     2A    -15.551080     3A    -11.289749
       4A    -11.281480     5A    -11.281335     6A    -11.263854
       7A    -11.242592     8A    -11.240986     9A    -11.239244
      10A    -11.238508    11A    -11.234393    12A    -11.224214
      13A    -11.221304    14A     -1.257945    15A     -1.213766
      16A     -1.128453    17A     -1.087963    18A     -1.063029
      19A     -0.997993    20A     -0.981010    21A     -0.871859
      22A     -0.864403    23A     -0.816511    24A     -0.800878
      25A     -0.718985    26A     -0.690089    27A     -0.685265
      28A     -0.664297    29A     -0.651590    30A     -0.627428
      31A     -0.596515    32A     -0.592939    33A     -0.586397
      34A     -0.573953    35A     -0.549198    36A     -0.536708
      37A     -0.519278    38A     -0.501038    39A     -0.494043
      40A     -0.445398    41A     -0.421234    42A     -0.386974
      43A     -0.370572    44A     -0.319066    45A     -0.286530

  @DF-RHF Final Energy:  -531.45213050487246

   => Energetics <=

    Nuclear Repulsion Energy =            714.5774150011430947
    One-Electron Energy =               -2137.6998389062000570
    Two-Electron Energy =                 891.6702934001846188
    Total Energy =                       -531.4521305048724571
  Basis Set: (AUG-CC-PVTZ AUX)
    Blend: AUG-CC-PVTZ-RI
    Molecular point group: c1

    Geometry (in Angstrom), charge = 0, multiplicity = 1:

       Center              X                  Y                   Z               Mass
    ------------   -----------------  -----------------  -----------------  -----------------
         N            1.441113255234     0.925087387762    -0.557892273801    14.003074004430
         N           -0.868258744766     2.170781387762     0.505498726199    14.003074004430
         C           -0.646957744766    -0.206177612238    -0.053130273801    12.000000000000
         C            0.821696655234    -0.174098712238    -0.012831673801    12.000000000000
         C           -1.445056744766     0.941435387762     0.178389726199    12.000000000000
         C           -1.276538744766    -1.431450612238    -0.325153273801    12.000000000000
         C           -2.841729744766     0.793322387762     0.194024726199    12.000000000000
         C            1.566672255234    -1.213460612238     0.543204726199    12.000000000000
         C           -2.662958744766    -1.559049612238    -0.324868273801    12.000000000000
         C           -3.446624744766    -0.433573612238    -0.062475273801    12.000000000000
         C            2.957761255234    -1.172631612238     0.512285726199    12.000000000000
         C            3.584925255234    -0.067083612238    -0.061488273801    12.000000000000
         C            2.784647255234     0.956327387762    -0.567157273801    12.000000000000
         H           -0.657615744766    -2.296025612238    -0.557766273801     1.007825032230
         H           -3.457467744766     1.670131387762     0.390871726199     1.007825032230
         H            1.046155255234    -2.042776612238     1.013205726199     1.007825032230
         H           -3.125521744766    -2.516938612238    -0.547448273801     1.007825032230
         H           -4.531764744766    -0.508378612238    -0.054544273801     1.007825032230
         H            3.542249255234    -1.981891612238     0.943586726199     1.007825032230
         H            0.019943255234     2.316299387762     0.031976726199     1.007825032230
         H           -1.501632744766     2.952310387762     0.371186726199     1.007825032230
         H            4.667563255234     0.010940387762    -0.103928273801     1.007825032230
         H            3.232325255234     1.846244387762    -1.006835273801     1.007825032230

  Basis Set: AUG-CC-PVTZ
    Blend: AUG-CC-PVTZ
  Basis Set: (AUG-CC-PVTZ AUX)
    Blend: AUG-CC-PVTZ-JKFIT
	 Reference Energy          =    -531.4521305048724571 [Eh]
	 Singles Energy            =      -0.0000000000000000 [Eh]
	 Same-Spin Energy          =      -0.5967871161714158 [Eh]
	 Opposite-Spin Energy      =      -1.8213456398431731 [Eh]
	 Correlation Energy        =      -2.4181327560145887 [Eh]
	 Total Energy              =    -533.8702632608870999 [Eh]

	 ================> DF-SCS-MP2 Energies <==================
	-----------------------------------------------------------
	 SCS Same-Spin Scale       =       0.3333333333333333 [-]
	 SCS Opposite-Spin Scale   =       1.2000000000000000 [-]
	 SCS Same-Spin Energy      =      -0.1989290387238052 [Eh]
	 SCS Opposite-Spin Energy  =      -2.1856147678118076 [Eh]
	 SCS Correlation Energy    =      -2.3845438065356128 [Eh]
	 SCS Total Energy          =    -533.8366743114080464 [Eh]
	-----------------------------------------------------------

  Dipole Moment: [D]
     X:     1.5008      Y:    -0.4229      Z:     0.0182     Total:     1.5594

*** Psi4 exiting successfully. Buy a developer a beer!
