                               Psi4 1.3.2 release

  ==> Input File <==

--------------------------------------------------------------------------
#psi4
#
memory 32 gb

molecule  {
0 1
  N        1.4447430     0.9271060    -0.5600120
  N       -0.8646290     2.1728000     0.5033790
  C       -0.6433280    -0.2041590    -0.0552500
  C        0.8343400    -0.1560850    -0.0228830
  C       -1.4617335     0.9297252     0.1729999
  C       -1.2729090    -1.4294320    -0.3272730
  C       -2.8381000     0.7953410     0.1919050
  C        1.5703020    -1.2114420     0.5410850
  C       -2.6593290    -1.5570310    -0.3269880
  C       -3.4429950    -0.4315550    -0.0645950
  C        2.9613910    -1.1706130     0.5101660
  C        3.5885550    -0.0650650    -0.0636080
  C        2.7882770     0.9583460    -0.5692770
  H       -0.6539860    -2.2940070    -0.5598860
  H       -3.4538380     1.6721500     0.3887520
  H        1.0497850    -2.0407580     1.0110860
  H       -3.1218920    -2.5149200    -0.5495680
  H       -4.5281350    -0.5063600    -0.0566640
  H        3.5458790    -1.9798730     0.9414670
  H        0.0235730     2.3183180     0.0298570
  H       -1.4980030     2.9543290     0.3690670
  H        4.6711930     0.0129590    -0.1060480
  H        3.2359550     1.8482630    -1.0089550
units angstrom
no_reorient  #important for SAPT in psi4, default
symmetry c1  #important for SAPT in psi4, default
}

set PROPERTIES_ORIGIN ["COM"]
properties('MP2/aug-cc-pvtz', properties = ['dipole'])
--------------------------------------------------------------------------

    Molecular point group: c1
  Charge       = 0
  Multiplicity = 1
  Basis Set: AUG-CC-PVTZ
    Blend: AUG-CC-PVTZ
  Basis Set: (AUG-CC-PVTZ AUX)
    Blend: AUG-CC-PVTZ-JKFIT

    Orbital Energies [Eh]
    ---------------------

    Doubly Occupied:

       1A    -15.569094     2A    -15.548340     3A    -11.290847
       4A    -11.281515     5A    -11.278745     6A    -11.263753
       7A    -11.243106     8A    -11.242611     9A    -11.239524
      10A    -11.238793    11A    -11.235801    12A    -11.222579
      13A    -11.222379    14A     -1.262388    15A     -1.207838
      16A     -1.127739    17A     -1.089269    18A     -1.062299
      19A     -0.999859    20A     -0.981976    21A     -0.872708
      22A     -0.864730    23A     -0.816782    24A     -0.801402
      25A     -0.719523    26A     -0.689461    27A     -0.682641
      28A     -0.662964    29A     -0.652404    30A     -0.625027
      31A     -0.597021    32A     -0.593613    33A     -0.585593
      34A     -0.574309    35A     -0.550899    36A     -0.536576
      37A     -0.519745    38A     -0.500768    39A     -0.495668
      40A     -0.442701    41A     -0.421112    42A     -0.389190
      43A     -0.369035    44A     -0.320285    45A     -0.289034

  @DF-RHF Final Energy:  -531.45296119029172

   => Energetics <=

    Nuclear Repulsion Energy =            714.6340179842061389
    One-Electron Energy =               -2137.8106598243412009
    Two-Electron Energy =                 891.7236806498433452
    Total Energy =                       -531.4529611902917168
  Basis Set: (AUG-CC-PVTZ AUX)
    Blend: AUG-CC-PVTZ-RI
    Molecular point group: c1

    Geometry (in Angstrom), charge = 0, multiplicity = 1:

       Center              X                  Y                   Z               Mass
    ------------   -----------------  -----------------  -----------------  -----------------
         N            1.441910005561     0.924927493025    -0.557101957926    14.003074004430
         N           -0.867461994439     2.170621493025     0.506289042074    14.003074004430
         C           -0.646160994439    -0.206337506975    -0.052339957926    12.000000000000
         C            0.831507005561    -0.158263506975    -0.019972957926    12.000000000000
         C           -1.464566494439     0.927546693025     0.175909942074    12.000000000000
         C           -1.275741994439    -1.431610506975    -0.324362957926    12.000000000000
         C           -2.840932994439     0.793162493025     0.194815042074    12.000000000000
         C            1.567469005561    -1.213620506975     0.543995042074    12.000000000000
         C           -2.662161994439    -1.559209506975    -0.324077957926    12.000000000000
         C           -3.445827994439    -0.433733506975    -0.061684957926    12.000000000000
         C            2.958558005561    -1.172791506975     0.513076042074    12.000000000000
         C            3.585722005561    -0.067243506975    -0.060697957926    12.000000000000
         C            2.785444005561     0.956167493025    -0.566366957926    12.000000000000
         H           -0.656818994439    -2.296185506975    -0.556975957926     1.007825032230
         H           -3.456670994439     1.669971493025     0.391662042074     1.007825032230
         H            1.046952005561    -2.042936506975     1.013996042074     1.007825032230
         H           -3.124724994439    -2.517098506975    -0.546657957926     1.007825032230
         H           -4.530967994439    -0.508538506975    -0.053753957926     1.007825032230
         H            3.543046005561    -1.982051506975     0.944377042074     1.007825032230
         H            0.020740005561     2.316139493025     0.032767042074     1.007825032230
         H           -1.500835994439     2.952150493025     0.371977042074     1.007825032230
         H            4.668360005561     0.010780493025    -0.103137957926     1.007825032230
         H            3.233122005561     1.846084493025    -1.006044957926     1.007825032230

  Basis Set: AUG-CC-PVTZ
    Blend: AUG-CC-PVTZ
  Basis Set: (AUG-CC-PVTZ AUX)
    Blend: AUG-CC-PVTZ-JKFIT
	 Reference Energy          =    -531.4529611902917168 [Eh]
	 Singles Energy            =      -0.0000000000000000 [Eh]
	 Same-Spin Energy          =      -0.5963926533849087 [Eh]
	 Opposite-Spin Energy      =      -1.8207238427873740 [Eh]
	 Correlation Energy        =      -2.4171164961722829 [Eh]
	 Total Energy              =    -533.8700776864640147 [Eh]

	 ================> DF-SCS-MP2 Energies <==================
	-----------------------------------------------------------
	 SCS Same-Spin Scale       =       0.3333333333333333 [-]
	 SCS Opposite-Spin Scale   =       1.2000000000000000 [-]
	 SCS Same-Spin Energy      =      -0.1987975511283029 [Eh]
	 SCS Opposite-Spin Energy  =      -2.1848686113448488 [Eh]
	 SCS Correlation Energy    =      -2.3836661624731517 [Eh]
	 SCS Total Energy          =    -533.8366273527648218 [Eh]
	-----------------------------------------------------------

  Dipole Moment: [D]
     X:     1.4974      Y:    -0.5452      Z:    -0.0186     Total:     1.5936

*** Psi4 exiting successfully. Buy a developer a beer!
