                               Psi4 1.3.2 release

  ==> Input File <==

--------------------------------------------------------------------------
#psi4
#
memory 32 gb

molecule  {
0 1
  N        1.4447430     0.9271060    -0.5600120
  N       -0.8646290     2.1728000     0.5033790
  C       -0.6433280    -0.2041590    -0.0552500
  C        0.7892719    -0.2360606     0.0167750
  C       -1.4414270     0.9434540     0.1762700
  C       -1.2729090    -1.4294320    -0.3272730
  C       -2.8381000     0.7953410     0.1919050
  C        1.5703020    -1.2114420     0.5410850
  C       -2.6593290    -1.5570310    -0.3269880
  C       -3.4429950    -0.4315550    -0.0645950
  C        2.9613910    -1.1706130     0.5101660
  C        3.5885550    -0.0650650    -0.0636080
  C        2.7882770     0.9583460    -0.5692770
  H       -0.6539860    -2.2940070    -0.5598860
  H       -3.4538380     1.6721500     0.3887520
  H        1.0497850    -2.0407580     1.0110860
  H       -3.1218920    -2.5149200    -0.5495680
  H       -4.5281350    -0.5063600    -0.0566640
  H        3.5458790    -1.9798730     0.9414670
  H        0.0235730     2.3183180     0.0298570
  H       -1.4980030     2.9543290     0.3690670
  H        4.6711930     0.0129590    -0.1060480
  H        3.2359550     1.8482630    -1.0089550
units angstrom
no_reorient  #important for SAPT in psi4, default
symmetry c1  #important for SAPT in psi4, default
}

set PROPERTIES_ORIGIN ["COM"]
properties('MP2/aug-cc-pvtz', properties = ['dipole'])
--------------------------------------------------------------------------

    Molecular point group: c1
  Charge       = 0
  Multiplicity = 1
  Basis Set: AUG-CC-PVTZ
    Blend: AUG-CC-PVTZ
  Basis Set: (AUG-CC-PVTZ AUX)
    Blend: AUG-CC-PVTZ-JKFIT

    Orbital Energies [Eh]
    ---------------------

    Doubly Occupied:

       1A    -15.571517     2A    -15.551259     3A    -11.287923
       4A    -11.283822     5A    -11.280788     6A    -11.264976
       7A    -11.242427     8A    -11.239751     9A    -11.239521
      10A    -11.236926    11A    -11.233605    12A    -11.225218
      13A    -11.221580    14A     -1.243488    15A     -1.212178
      16A     -1.130754    17A     -1.084901    18A     -1.068528
      19A     -0.998921    20A     -0.982500    21A     -0.875330
      22A     -0.862393    23A     -0.815254    24A     -0.800231
      25A     -0.720108    26A     -0.688389    27A     -0.686414
      28A     -0.668250    29A     -0.644306    30A     -0.627723
      31A     -0.600553    32A     -0.594661    33A     -0.587157
      34A     -0.573043    35A     -0.544745    36A     -0.536479
      37A     -0.515933    38A     -0.499589    39A     -0.494985
      40A     -0.446006    41A     -0.418902    42A     -0.379994
      43A     -0.378035    44A     -0.318745    45A     -0.286036

  @DF-RHF Final Energy:  -531.43850687245924

   => Energetics <=

    Nuclear Repulsion Energy =            714.3817243412185007
    One-Electron Energy =               -2137.3127700922277654
    Two-Electron Energy =                 891.4925388785499081
    Total Energy =                       -531.4385068724592429
  Basis Set: (AUG-CC-PVTZ AUX)
    Blend: AUG-CC-PVTZ-RI
    Molecular point group: c1

    Geometry (in Angstrom), charge = 0, multiplicity = 1:

       Center              X                  Y                   Z               Mass
    ------------   -----------------  -----------------  -----------------  -----------------
         N            1.443657015886     0.929601417311    -0.560130673112    14.003074004430
         N           -0.865714984114     2.175295417311     0.503260326888    14.003074004430
         C           -0.644413984114    -0.201663582689    -0.055368673112    12.000000000000
         C            0.788185915886    -0.233565182689     0.016656326888    12.000000000000
         C           -1.442512984114     0.945949417311     0.176151326888    12.000000000000
         C           -1.273994984114    -1.426936582689    -0.327391673112    12.000000000000
         C           -2.839185984114     0.797836417311     0.191786326888    12.000000000000
         C            1.569216015886    -1.208946582689     0.540966326888    12.000000000000
         C           -2.660414984114    -1.554535582689    -0.327106673112    12.000000000000
         C           -3.444080984114    -0.429059582689    -0.064713673112    12.000000000000
         C            2.960305015886    -1.168117582689     0.510047326888    12.000000000000
         C            3.587469015886    -0.062569582689    -0.063726673112    12.000000000000
         C            2.787191015886     0.960841417311    -0.569395673112    12.000000000000
         H           -0.655071984114    -2.291511582689    -0.560004673112     1.007825032230
         H           -3.454923984114     1.674645417311     0.388633326888     1.007825032230
         H            1.048699015886    -2.038262582689     1.010967326888     1.007825032230
         H           -3.122977984114    -2.512424582689    -0.549686673112     1.007825032230
         H           -4.529220984114    -0.503864582689    -0.056782673112     1.007825032230
         H            3.544793015886    -1.977377582689     0.941348326888     1.007825032230
         H            0.022487015886     2.320813417311     0.029738326888     1.007825032230
         H           -1.499088984114     2.956824417311     0.368948326888     1.007825032230
         H            4.670107015886     0.015454417311    -0.106166673112     1.007825032230
         H            3.234869015886     1.850758417311    -1.009073673112     1.007825032230

  Basis Set: AUG-CC-PVTZ
    Blend: AUG-CC-PVTZ
  Basis Set: (AUG-CC-PVTZ AUX)
    Blend: AUG-CC-PVTZ-JKFIT
	 Reference Energy          =    -531.4385068724592429 [Eh]
	 Singles Energy            =      -0.0000000000000000 [Eh]
	 Same-Spin Energy          =      -0.5977988890790805 [Eh]
	 Opposite-Spin Energy      =      -1.8240462317598811 [Eh]
	 Correlation Energy        =      -2.4218451208389618 [Eh]
	 Total Energy              =    -533.8603519932981953 [Eh]

	 ================> DF-SCS-MP2 Energies <==================
	-----------------------------------------------------------
	 SCS Same-Spin Scale       =       0.3333333333333333 [-]
	 SCS Opposite-Spin Scale   =       1.2000000000000000 [-]
	 SCS Same-Spin Energy      =      -0.1992662963596935 [Eh]
	 SCS Opposite-Spin Energy  =      -2.1888554781118574 [Eh]
	 SCS Correlation Energy    =      -2.3881217744715508 [Eh]
	 SCS Total Energy          =    -533.8266286469307715 [Eh]
	-----------------------------------------------------------

  Dipole Moment: [D]
     X:     1.3830      Y:    -0.4203      Z:     0.0290     Total:     1.4458

*** Psi4 exiting successfully. Buy a developer a beer!
