                               Psi4 1.3.2 release

  ==> Input File <==

--------------------------------------------------------------------------
#psi4
#
memory 32 gb

molecule  {
0 1
  N        1.4447430     0.9271060    -0.5600120
  N       -0.8646290     2.1728000     0.5033790
  C       -0.6433280    -0.2041590    -0.0552500
  C        0.8343400    -0.1560850    -0.0228830
  C       -1.4602262     0.9486221     0.1909046
  C       -1.2729090    -1.4294320    -0.3272730
  C       -2.8381000     0.7953410     0.1919050
  C        1.5703020    -1.2114420     0.5410850
  C       -2.6593290    -1.5570310    -0.3269880
  C       -3.4429950    -0.4315550    -0.0645950
  C        2.9613910    -1.1706130     0.5101660
  C        3.5885550    -0.0650650    -0.0636080
  C        2.7882770     0.9583460    -0.5692770
  H       -0.6539860    -2.2940070    -0.5598860
  H       -3.4538380     1.6721500     0.3887520
  H        1.0497850    -2.0407580     1.0110860
  H       -3.1218920    -2.5149200    -0.5495680
  H       -4.5281350    -0.5063600    -0.0566640
  H        3.5458790    -1.9798730     0.9414670
  H        0.0235730     2.3183180     0.0298570
  H       -1.4980030     2.9543290     0.3690670
  H        4.6711930     0.0129590    -0.1060480
  H        3.2359550     1.8482630    -1.0089550
units angstrom
no_reorient  #important for SAPT in psi4, default
symmetry c1  #important for SAPT in psi4, default
}

set PROPERTIES_ORIGIN ["COM"]
properties('MP2/aug-cc-pvtz', properties = ['dipole'])
--------------------------------------------------------------------------

    Molecular point group: c1
  Charge       = 0
  Multiplicity = 1
  Basis Set: AUG-CC-PVTZ
    Blend: AUG-CC-PVTZ
  Basis Set: (AUG-CC-PVTZ AUX)
    Blend: AUG-CC-PVTZ-JKFIT

    Orbital Energies [Eh]
    ---------------------

    Doubly Occupied:

       1A    -15.568934     2A    -15.550749     3A    -11.290347
       4A    -11.281433     5A    -11.280706     6A    -11.263539
       7A    -11.242828     8A    -11.242171     9A    -11.239114
      10A    -11.238551    11A    -11.236300    12A    -11.221736
      13A    -11.221169    14A     -1.262415    15A     -1.213853
      16A     -1.127744    17A     -1.089073    18A     -1.061485
      19A     -0.999118    20A     -0.980046    21A     -0.872395
      22A     -0.864234    23A     -0.815111    24A     -0.801901
      25A     -0.718848    26A     -0.691357    27A     -0.684655
      28A     -0.663371    29A     -0.653523    30A     -0.626601
      31A     -0.597217    32A     -0.591720    33A     -0.585655
      34A     -0.574303    35A     -0.550819    36A     -0.536700
      37A     -0.520391    38A     -0.501994    39A     -0.492684
      40A     -0.445076    41A     -0.421032    42A     -0.389041
      43A     -0.368525    44A     -0.319933    45A     -0.286160

  @DF-RHF Final Energy:  -531.45302801647642

   => Energetics <=

    Nuclear Repulsion Energy =            714.4766499104531476
    One-Electron Energy =               -2137.4902371550169846
    Two-Electron Energy =                 891.5605592280875271
    Total Energy =                       -531.4530280164764235
  Basis Set: (AUG-CC-PVTZ AUX)
    Blend: AUG-CC-PVTZ-RI
    Molecular point group: c1

    Geometry (in Angstrom), charge = 0, multiplicity = 1:

       Center              X                  Y                   Z               Mass
    ------------   -----------------  -----------------  -----------------  -----------------
         N            1.441803660710     0.923594256102    -0.558365191957    14.003074004430
         N           -0.867568339290     2.169288256102     0.505025808043    14.003074004430
         C           -0.646267339290    -0.207670743898    -0.053603191957    12.000000000000
         C            0.831400660710    -0.159596743898    -0.021236191957    12.000000000000
         C           -1.463165539290     0.945110356102     0.192551408043    12.000000000000
         C           -1.275848339290    -1.432943743898    -0.325626191957    12.000000000000
         C           -2.841039339290     0.791829256102     0.193551808043    12.000000000000
         C            1.567362660710    -1.214953743898     0.542731808043    12.000000000000
         C           -2.662268339290    -1.560542743898    -0.325341191957    12.000000000000
         C           -3.445934339290    -0.435066743898    -0.062948191957    12.000000000000
         C            2.958451660710    -1.174124743898     0.511812808043    12.000000000000
         C            3.585615660710    -0.068576743898    -0.061961191957    12.000000000000
         C            2.785337660710     0.954834256102    -0.567630191957    12.000000000000
         H           -0.656925339290    -2.297518743898    -0.558239191957     1.007825032230
         H           -3.456777339290     1.668638256102     0.390398808043     1.007825032230
         H            1.046845660710    -2.044269743898     1.012732808043     1.007825032230
         H           -3.124831339290    -2.518431743898    -0.547921191957     1.007825032230
         H           -4.531074339290    -0.509871743898    -0.055017191957     1.007825032230
         H            3.542939660710    -1.983384743898     0.943113808043     1.007825032230
         H            0.020633660710     2.314806256102     0.031503808043     1.007825032230
         H           -1.500942339290     2.950817256102     0.370713808043     1.007825032230
         H            4.668253660710     0.009447256102    -0.104401191957     1.007825032230
         H            3.233015660710     1.844751256102    -1.007308191957     1.007825032230

  Basis Set: AUG-CC-PVTZ
    Blend: AUG-CC-PVTZ
  Basis Set: (AUG-CC-PVTZ AUX)
    Blend: AUG-CC-PVTZ-JKFIT
	 Reference Energy          =    -531.4530280164764235 [Eh]
	 Singles Energy            =      -0.0000000000000000 [Eh]
	 Same-Spin Energy          =      -0.5965160076904668 [Eh]
	 Opposite-Spin Energy      =      -1.8207579802607858 [Eh]
	 Correlation Energy        =      -2.4172739879512526 [Eh]
	 Total Energy              =    -533.8703020044276855 [Eh]

	 ================> DF-SCS-MP2 Energies <==================
	-----------------------------------------------------------
	 SCS Same-Spin Scale       =       0.3333333333333333 [-]
	 SCS Opposite-Spin Scale   =       1.2000000000000000 [-]
	 SCS Same-Spin Energy      =      -0.1988386692301556 [Eh]
	 SCS Opposite-Spin Energy  =      -2.1849095763129429 [Eh]
	 SCS Correlation Energy    =      -2.3837482455430985 [Eh]
	 SCS Total Energy          =    -533.8367762620194981 [Eh]
	-----------------------------------------------------------

  Dipole Moment: [D]
     X:     1.5381      Y:    -0.4305      Z:     0.0134     Total:     1.5973

*** Psi4 exiting successfully. Buy a developer a beer!
