                               Psi4 1.3.2 release

  ==> Input File <==

--------------------------------------------------------------------------
#psi4
#
memory 32 gb

molecule  {
0 1
  N        1.4447430     0.9271060    -0.5600120
  N       -0.8646290     2.1728000     0.5033790
  C       -0.6433280    -0.2041590    -0.0552500
  C        0.7930409    -0.1787940    -0.0093528
  C       -1.4414270     0.9434540     0.1762700
  C       -1.2729090    -1.4294320    -0.3272730
  C       -2.8381000     0.7953410     0.1919050
  C        1.5703020    -1.2114420     0.5410850
  C       -2.6593290    -1.5570310    -0.3269880
  C       -3.4429950    -0.4315550    -0.0645950
  C        2.9613910    -1.1706130     0.5101660
  C        3.5885550    -0.0650650    -0.0636080
  C        2.7882770     0.9583460    -0.5692770
  H       -0.6539860    -2.2940070    -0.5598860
  H       -3.4538380     1.6721500     0.3887520
  H        1.0497850    -2.0407580     1.0110860
  H       -3.1218920    -2.5149200    -0.5495680
  H       -4.5281350    -0.5063600    -0.0566640
  H        3.5458790    -1.9798730     0.9414670
  H        0.0235730     2.3183180     0.0298570
  H       -1.4980030     2.9543290     0.3690670
  H        4.6711930     0.0129590    -0.1060480
  H        3.2359550     1.8482630    -1.0089550
units angstrom
no_reorient  #important for SAPT in psi4, default
symmetry c1  #important for SAPT in psi4, default
}

set PROPERTIES_ORIGIN ["COM"]
properties('MP2/aug-cc-pvtz', properties = ['dipole'])
--------------------------------------------------------------------------

    Molecular point group: c1
  Charge       = 0
  Multiplicity = 1
  Basis Set: AUG-CC-PVTZ
    Blend: AUG-CC-PVTZ
  Basis Set: (AUG-CC-PVTZ AUX)
    Blend: AUG-CC-PVTZ-JKFIT

    Orbital Energies [Eh]
    ---------------------

    Doubly Occupied:

       1A    -15.569317     2A    -15.552031     3A    -11.290797
       4A    -11.283297     5A    -11.280295     6A    -11.262988
       7A    -11.241686     8A    -11.241515     9A    -11.240749
      10A    -11.240143    11A    -11.233484    12A    -11.225295
      13A    -11.222320    14A     -1.252066    15A     -1.214033
      16A     -1.130558    17A     -1.084932    18A     -1.065840
      19A     -0.998043    20A     -0.982114    21A     -0.874778
      22A     -0.861822    23A     -0.816712    24A     -0.800928
      25A     -0.719717    26A     -0.690632    27A     -0.686301
      28A     -0.665725    29A     -0.648879    30A     -0.627065
      31A     -0.597823    32A     -0.594133    33A     -0.587385
      34A     -0.573904    35A     -0.546889    36A     -0.537100
      37A     -0.518558    38A     -0.502215    39A     -0.496381
      40A     -0.446486    41A     -0.417806    42A     -0.385140
      43A     -0.371705    44A     -0.318311    45A     -0.286197

  @DF-RHF Final Energy:  -531.44798265247596

   => Energetics <=

    Nuclear Repulsion Energy =            714.5754274229574321
    One-Electron Energy =               -2137.6786319084035313
    Two-Electron Energy =                 891.6552218329700281
    Total Energy =                       -531.4479826524759574
  Basis Set: (AUG-CC-PVTZ AUX)
    Blend: AUG-CC-PVTZ-RI
    Molecular point group: c1

    Geometry (in Angstrom), charge = 0, multiplicity = 1:

       Center              X                  Y                   Z               Mass
    ------------   -----------------  -----------------  -----------------  -----------------
         N            1.443391100844     0.925561074947    -0.558287272993    14.003074004430
         N           -0.865980899156     2.171255074947     0.505103727007    14.003074004430
         C           -0.644679899156    -0.205703925053    -0.053525272993    12.000000000000
         C            0.791689000844    -0.180338925053    -0.007628072993    12.000000000000
         C           -1.442778899156     0.941909074947     0.177994727007    12.000000000000
         C           -1.274260899156    -1.430976925053    -0.325548272993    12.000000000000
         C           -2.839451899156     0.793796074947     0.193629727007    12.000000000000
         C            1.568950100844    -1.212986925053     0.542809727007    12.000000000000
         C           -2.660680899156    -1.558575925053    -0.325263272993    12.000000000000
         C           -3.444346899156    -0.433099925053    -0.062870272993    12.000000000000
         C            2.960039100844    -1.172157925053     0.511890727007    12.000000000000
         C            3.587203100844    -0.066609925053    -0.061883272993    12.000000000000
         C            2.786925100844     0.956801074947    -0.567552272993    12.000000000000
         H           -0.655337899156    -2.295551925053    -0.558161272993     1.007825032230
         H           -3.455189899156     1.670605074947     0.390476727007     1.007825032230
         H            1.048433100844    -2.042302925053     1.012810727007     1.007825032230
         H           -3.123243899156    -2.516464925053    -0.547843272993     1.007825032230
         H           -4.529486899156    -0.507904925053    -0.054939272993     1.007825032230
         H            3.544527100844    -1.981417925053     0.943191727007     1.007825032230
         H            0.022221100844     2.316773074947     0.031581727007     1.007825032230
         H           -1.499354899156     2.952784074947     0.370791727007     1.007825032230
         H            4.669841100844     0.011414074947    -0.104323272993     1.007825032230
         H            3.234603100844     1.846718074947    -1.007230272993     1.007825032230

  Basis Set: AUG-CC-PVTZ
    Blend: AUG-CC-PVTZ
  Basis Set: (AUG-CC-PVTZ AUX)
    Blend: AUG-CC-PVTZ-JKFIT
	 Reference Energy          =    -531.4479826524759574 [Eh]
	 Singles Energy            =      -0.0000000000000000 [Eh]
	 Same-Spin Energy          =      -0.5974795748639823 [Eh]
	 Opposite-Spin Energy      =      -1.8225289659735171 [Eh]
	 Correlation Energy        =      -2.4200085408374994 [Eh]
	 Total Energy              =    -533.8679911933134008 [Eh]

	 ================> DF-SCS-MP2 Energies <==================
	-----------------------------------------------------------
	 SCS Same-Spin Scale       =       0.3333333333333333 [-]
	 SCS Opposite-Spin Scale   =       1.2000000000000000 [-]
	 SCS Same-Spin Energy      =      -0.1991598582879941 [Eh]
	 SCS Opposite-Spin Energy  =      -2.1870347591682204 [Eh]
	 SCS Correlation Energy    =      -2.3861946174562148 [Eh]
	 SCS Total Energy          =    -533.8341772699321837 [Eh]
	-----------------------------------------------------------

  Dipole Moment: [D]
     X:     1.3540      Y:    -0.4181      Z:     0.0208     Total:     1.4172

*** Psi4 exiting successfully. Buy a developer a beer!
