                               Psi4 1.3.2 release

  ==> Input File <==

--------------------------------------------------------------------------
#psi4
#
memory 32 gb

molecule  {
0 1
  N        1.4447430     0.9271060    -0.5600120
  N       -0.8646290     2.1728000     0.5033790
  C       -0.6433280    -0.2041590    -0.0552500
  C        0.8269918    -0.0553475    -0.0016195
  C       -1.4414270     0.9434540     0.1762700
  C       -1.2729090    -1.4294320    -0.3272730
  C       -2.8381000     0.7953410     0.1919050
  C        1.5703020    -1.2114420     0.5410850
  C       -2.6593290    -1.5570310    -0.3269880
  C       -3.4429950    -0.4315550    -0.0645950
  C        2.9613910    -1.1706130     0.5101660
  C        3.5885550    -0.0650650    -0.0636080
  C        2.7882770     0.9583460    -0.5692770
  H       -0.6539860    -2.2940070    -0.5598860
  H       -3.4538380     1.6721500     0.3887520
  H        1.0497850    -2.0407580     1.0110860
  H       -3.1218920    -2.5149200    -0.5495680
  H       -4.5281350    -0.5063600    -0.0566640
  H        3.5458790    -1.9798730     0.9414670
  H        0.0235730     2.3183180     0.0298570
  H       -1.4980030     2.9543290     0.3690670
  H        4.6711930     0.0129590    -0.1060480
  H        3.2359550     1.8482630    -1.0089550
units angstrom
no_reorient  #important for SAPT in psi4, default
symmetry c1  #important for SAPT in psi4, default
}

set PROPERTIES_ORIGIN ["COM"]
properties('MP2/aug-cc-pvtz', properties = ['dipole'])
--------------------------------------------------------------------------

    Molecular point group: c1
  Charge       = 0
  Multiplicity = 1
  Basis Set: AUG-CC-PVTZ
    Blend: AUG-CC-PVTZ
  Basis Set: (AUG-CC-PVTZ AUX)
    Blend: AUG-CC-PVTZ-JKFIT

    Orbital Energies [Eh]
    ---------------------

    Doubly Occupied:

       1A    -15.564752     2A    -15.552448     3A    -11.292570
       4A    -11.280160     5A    -11.279884     6A    -11.260034
       7A    -11.247214     8A    -11.242869     9A    -11.241519
      10A    -11.238856    11A    -11.234827    12A    -11.224057
      13A    -11.222585    14A     -1.278222    15A     -1.216062
      16A     -1.128133    17A     -1.090665    18A     -1.056122
      19A     -0.997191    20A     -0.980832    21A     -0.876317
      22A     -0.859503    23A     -0.819788    24A     -0.798927
      25A     -0.718531    26A     -0.694657    27A     -0.685054
      28A     -0.662861    29A     -0.656819    30A     -0.625248
      31A     -0.594918    32A     -0.588706    33A     -0.586714
      34A     -0.576669    35A     -0.554917    36A     -0.536975
      37A     -0.522787    38A     -0.506926    39A     -0.494074
      40A     -0.446182    41A     -0.411749    42A     -0.397356
      43A     -0.360399    44A     -0.318615    45A     -0.287332

  @DF-RHF Final Energy:  -531.44601339328608

   => Energetics <=

    Nuclear Repulsion Energy =            714.9915589771443365
    One-Electron Energy =               -2138.4530911201009076
    Two-Electron Energy =                 892.0155187496703775
    Total Energy =                       -531.4460133932860799
  Basis Set: (AUG-CC-PVTZ AUX)
    Blend: AUG-CC-PVTZ-RI
    Molecular point group: c1

    Geometry (in Angstrom), charge = 0, multiplicity = 1:

       Center              X                  Y                   Z               Mass
    ------------   -----------------  -----------------  -----------------  -----------------
         N            1.440995755921     0.916851528307    -0.558832882120    14.003074004430
         N           -0.868376244079     2.162545528307     0.504558117880    14.003074004430
         C           -0.647075244079    -0.214413471693    -0.054070882120    12.000000000000
         C            0.823244555921    -0.065601971693    -0.000440382120    12.000000000000
         C           -1.445174244079     0.933199528307     0.177449117880    12.000000000000
         C           -1.276656244079    -1.439686471693    -0.326093882120    12.000000000000
         C           -2.841847244079     0.785086528307     0.193084117880    12.000000000000
         C            1.566554755921    -1.221696471693     0.542264117880    12.000000000000
         C           -2.663076244079    -1.567285471693    -0.325808882120    12.000000000000
         C           -3.446742244079    -0.441809471693    -0.063415882120    12.000000000000
         C            2.957643755921    -1.180867471693     0.511345117880    12.000000000000
         C            3.584807755921    -0.075319471693    -0.062428882120    12.000000000000
         C            2.784529755921     0.948091528307    -0.568097882120    12.000000000000
         H           -0.657733244079    -2.304261471693    -0.558706882120     1.007825032230
         H           -3.457585244079     1.661895528307     0.389931117880     1.007825032230
         H            1.046037755921    -2.051012471693     1.012265117880     1.007825032230
         H           -3.125639244079    -2.525174471693    -0.548388882120     1.007825032230
         H           -4.531882244079    -0.516614471693    -0.055484882120     1.007825032230
         H            3.542131755921    -1.990127471693     0.942646117880     1.007825032230
         H            0.019825755921     2.308063528307     0.031036117880     1.007825032230
         H           -1.501750244079     2.944074528307     0.370246117880     1.007825032230
         H            4.667445755921     0.002704528307    -0.104868882120     1.007825032230
         H            3.232207755921     1.838008528307    -1.007775882120     1.007825032230

  Basis Set: AUG-CC-PVTZ
    Blend: AUG-CC-PVTZ
  Basis Set: (AUG-CC-PVTZ AUX)
    Blend: AUG-CC-PVTZ-JKFIT
	 Reference Energy          =    -531.4460133932860799 [Eh]
	 Singles Energy            =      -0.0000000000000000 [Eh]
	 Same-Spin Energy          =      -0.5959559059191073 [Eh]
	 Opposite-Spin Energy      =      -1.8201640844576186 [Eh]
	 Correlation Energy        =      -2.4161199903767256 [Eh]
	 Total Energy              =    -533.8621333836628082 [Eh]

	 ================> DF-SCS-MP2 Energies <==================
	-----------------------------------------------------------
	 SCS Same-Spin Scale       =       0.3333333333333333 [-]
	 SCS Opposite-Spin Scale   =       1.2000000000000000 [-]
	 SCS Same-Spin Energy      =      -0.1986519686397024 [Eh]
	 SCS Opposite-Spin Energy  =      -2.1841969013491420 [Eh]
	 SCS Correlation Energy    =      -2.3828488699888446 [Eh]
	 SCS Total Energy          =    -533.8288622632749139 [Eh]
	-----------------------------------------------------------

  Dipole Moment: [D]
     X:     1.4432      Y:    -0.3802      Z:     0.0007     Total:     1.4924

*** Psi4 exiting successfully. Buy a developer a beer!
