                               Psi4 1.3.2 release

  ==> Input File <==

--------------------------------------------------------------------------
#psi4
#
memory 32 gb

molecule  {
0 1
  N        1.4022071     0.9447082    -0.5707730
  N       -0.8646290     2.1728000     0.5033790
  C       -0.6433280    -0.2041590    -0.0552500
  C        0.8343400    -0.1560850    -0.0228830
  C       -1.4414270     0.9434540     0.1762700
  C       -1.2729090    -1.4294320    -0.3272730
  C       -2.8381000     0.7953410     0.1919050
  C        1.5703020    -1.2114420     0.5410850
  C       -2.6593290    -1.5570310    -0.3269880
  C       -3.4429950    -0.4315550    -0.0645950
  C        2.9613910    -1.1706130     0.5101660
  C        3.5885550    -0.0650650    -0.0636080
  C        2.7882770     0.9583460    -0.5692770
  H       -0.6539860    -2.2940070    -0.5598860
  H       -3.4538380     1.6721500     0.3887520
  H        1.0497850    -2.0407580     1.0110860
  H       -3.1218920    -2.5149200    -0.5495680
  H       -4.5281350    -0.5063600    -0.0566640
  H        3.5458790    -1.9798730     0.9414670
  H        0.0235730     2.3183180     0.0298570
  H       -1.4980030     2.9543290     0.3690670
  H        4.6711930     0.0129590    -0.1060480
  H        3.2359550     1.8482630    -1.0089550
units angstrom
no_reorient  #important for SAPT in psi4, default
symmetry c1  #important for SAPT in psi4, default
}

set PROPERTIES_ORIGIN ["COM"]
properties('MP2/aug-cc-pvtz', properties = ['dipole'])
--------------------------------------------------------------------------

    Molecular point group: c1
  Charge       = 0
  Multiplicity = 1
  Basis Set: AUG-CC-PVTZ
    Blend: AUG-CC-PVTZ
  Basis Set: (AUG-CC-PVTZ AUX)
    Blend: AUG-CC-PVTZ-JKFIT

    Orbital Energies [Eh]
    ---------------------

    Doubly Occupied:

       1A    -15.574512     2A    -15.549612     3A    -11.290652
       4A    -11.286445     5A    -11.280194     6A    -11.265720
       7A    -11.244625     8A    -11.242985     9A    -11.238441
      10A    -11.237583    11A    -11.233342    12A    -11.223381
      13A    -11.220631    14A     -1.255788    15A     -1.211743
      16A     -1.126906    17A     -1.090882    18A     -1.058646
      19A     -0.997258    20A     -0.980188    21A     -0.868696
      22A     -0.867395    23A     -0.815800    24A     -0.798523
      25A     -0.717985    26A     -0.689138    27A     -0.684422
      28A     -0.663469    29A     -0.651971    30A     -0.626770
      31A     -0.594132    32A     -0.592221    33A     -0.585796
      34A     -0.573718    35A     -0.547716    36A     -0.536063
      37A     -0.517480    38A     -0.499770    39A     -0.493404
      40A     -0.444776    41A     -0.427529    42A     -0.390025
      43A     -0.365939    44A     -0.319523    45A     -0.286406

  @DF-RHF Final Energy:  -531.44879332926348

   => Energetics <=

    Nuclear Repulsion Energy =            714.2207718696129177
    One-Electron Energy =               -2137.0027281810316708
    Two-Electron Energy =                 891.3331629821552724
    Total Energy =                       -531.4487933292634807
  Basis Set: (AUG-CC-PVTZ AUX)
    Blend: AUG-CC-PVTZ-RI
    Molecular point group: c1

    Geometry (in Angstrom), charge = 0, multiplicity = 1:

       Center              X                  Y                   Z               Mass
    ------------   -----------------  -----------------  -----------------  -----------------
         N            1.401443403857     0.940111890374    -0.567207719231    14.003074004430
         N           -0.865392696143     2.168203690374     0.506944280769    14.003074004430
         C           -0.644091696143    -0.208755309626    -0.051684719231    12.000000000000
         C            0.833576303857    -0.160681309626    -0.019317719231    12.000000000000
         C           -1.442190696143     0.938857690374     0.179835280769    12.000000000000
         C           -1.273672696143    -1.434028309626    -0.323707719231    12.000000000000
         C           -2.838863696143     0.790744690374     0.195470280769    12.000000000000
         C            1.569538303857    -1.216038309626     0.544650280769    12.000000000000
         C           -2.660092696143    -1.561627309626    -0.323422719231    12.000000000000
         C           -3.443758696143    -0.436151309626    -0.061029719231    12.000000000000
         C            2.960627303857    -1.175209309626     0.513731280769    12.000000000000
         C            3.587791303857    -0.069661309626    -0.060042719231    12.000000000000
         C            2.787513303857     0.953749690374    -0.565711719231    12.000000000000
         H           -0.654749696143    -2.298603309626    -0.556320719231     1.007825032230
         H           -3.454601696143     1.667553690374     0.392317280769     1.007825032230
         H            1.049021303857    -2.045354309626     1.014651280769     1.007825032230
         H           -3.122655696143    -2.519516309626    -0.546002719231     1.007825032230
         H           -4.528898696143    -0.510956309626    -0.053098719231     1.007825032230
         H            3.545115303857    -1.984469309626     0.945032280769     1.007825032230
         H            0.022809303857     2.313721690374     0.033422280769     1.007825032230
         H           -1.498766696143     2.949732690374     0.372632280769     1.007825032230
         H            4.670429303857     0.008362690374    -0.102482719231     1.007825032230
         H            3.235191303857     1.843666690374    -1.005389719231     1.007825032230

  Basis Set: AUG-CC-PVTZ
    Blend: AUG-CC-PVTZ
  Basis Set: (AUG-CC-PVTZ AUX)
    Blend: AUG-CC-PVTZ-JKFIT
	 Reference Energy          =    -531.4487933292634807 [Eh]
	 Singles Energy            =      -0.0000000000000000 [Eh]
	 Same-Spin Energy          =      -0.5970124716742301 [Eh]
	 Opposite-Spin Energy      =      -1.8224402372396367 [Eh]
	 Correlation Energy        =      -2.4194527089138669 [Eh]
	 Total Energy              =    -533.8682460381774035 [Eh]

	 ================> DF-SCS-MP2 Energies <==================
	-----------------------------------------------------------
	 SCS Same-Spin Scale       =       0.3333333333333333 [-]
	 SCS Opposite-Spin Scale   =       1.2000000000000000 [-]
	 SCS Same-Spin Energy      =      -0.1990041572247433 [Eh]
	 SCS Opposite-Spin Energy  =      -2.1869282846875637 [Eh]
	 SCS Correlation Energy    =      -2.3859324419123071 [Eh]
	 SCS Total Energy          =    -533.8347257711758402 [Eh]
	-----------------------------------------------------------

  Dipole Moment: [D]
     X:     1.6392      Y:    -0.4644      Z:     0.0344     Total:     1.7040

*** Psi4 exiting successfully. Buy a developer a beer!
