                               Psi4 1.3.2 release

  ==> Input File <==

--------------------------------------------------------------------------
#psi4
#
memory 32 gb

molecule  {
0 1
  N        1.4447430     0.9271060    -0.5600120
  N       -0.8646290     2.1728000     0.5033790
  C       -0.6433280    -0.2041590    -0.0552500
  C        0.9201653    -0.1913954    -0.0048769
  C       -1.4414270     0.9434540     0.1762700
  C       -1.2729090    -1.4294320    -0.3272730
  C       -2.8381000     0.7953410     0.1919050
  C        1.5703020    -1.2114420     0.5410850
  C       -2.6593290    -1.5570310    -0.3269880
  C       -3.4429950    -0.4315550    -0.0645950
  C        2.9613910    -1.1706130     0.5101660
  C        3.5885550    -0.0650650    -0.0636080
  C        2.7882770     0.9583460    -0.5692770
  H       -0.6539860    -2.2940070    -0.5598860
  H       -3.4538380     1.6721500     0.3887520
  H        1.0497850    -2.0407580     1.0110860
  H       -3.1218920    -2.5149200    -0.5495680
  H       -4.5281350    -0.5063600    -0.0566640
  H        3.5458790    -1.9798730     0.9414670
  H        0.0235730     2.3183180     0.0298570
  H       -1.4980030     2.9543290     0.3690670
  H        4.6711930     0.0129590    -0.1060480
  H        3.2359550     1.8482630    -1.0089550
units angstrom
no_reorient  #important for SAPT in psi4, default
symmetry c1  #important for SAPT in psi4, default
}

set PROPERTIES_ORIGIN ["COM"]
properties('MP2/aug-cc-pvtz', properties = ['dipole'])
--------------------------------------------------------------------------

    Molecular point group: c1
  Charge       = 0
  Multiplicity = 1
  Basis Set: AUG-CC-PVTZ
    Blend: AUG-CC-PVTZ
  Basis Set: (AUG-CC-PVTZ AUX)
    Blend: AUG-CC-PVTZ-JKFIT

    Orbital Energies [Eh]
    ---------------------

    Doubly Occupied:

       1A    -15.572493     2A    -15.547971     3A    -11.285012
       4A    -11.284995     5A    -11.276807     6A    -11.268103
       7A    -11.245184     8A    -11.235954     9A    -11.235806
      10A    -11.233906    11A    -11.233764    12A    -11.221085
      13A    -11.217955    14A     -1.269032    15A     -1.210995
      16A     -1.123187    17A     -1.097929    18A     -1.059885
      19A     -0.997466    20A     -0.977150    21A     -0.873921
      22A     -0.863756    23A     -0.813931    24A     -0.799811
      25A     -0.719408    26A     -0.686696    27A     -0.682534
      28A     -0.665268    29A     -0.653852    30A     -0.628154
      31A     -0.594814    32A     -0.589712    33A     -0.583911
      34A     -0.572449    35A     -0.555881    36A     -0.534161
      37A     -0.517935    38A     -0.496062    39A     -0.483975
      40A     -0.441828    41A     -0.430404    42A     -0.389242
      43A     -0.372755    44A     -0.321221    45A     -0.285714

  @DF-RHF Final Energy:  -531.44434391116044

   => Energetics <=

    Nuclear Repulsion Energy =            714.5299374097751297
    One-Electron Energy =               -2137.6444219267818880
    Two-Electron Energy =                 891.6701406058463135
    Total Energy =                       -531.4443439111604448
  Basis Set: (AUG-CC-PVTZ AUX)
    Blend: AUG-CC-PVTZ-RI
    Molecular point group: c1

    Geometry (in Angstrom), charge = 0, multiplicity = 1:

       Center              X                  Y                   Z               Mass
    ------------   -----------------  -----------------  -----------------  -----------------
         N            1.434422066559     0.926450144148    -0.558603062099    14.003074004430
         N           -0.874949933441     2.172144144148     0.504787937901    14.003074004430
         C           -0.653648933441    -0.204814855852    -0.053841062099    12.000000000000
         C            0.909844366559    -0.192051255852    -0.003467962099    12.000000000000
         C           -1.451747933441     0.942798144148     0.177678937901    12.000000000000
         C           -1.283229933441    -1.430087855852    -0.325864062099    12.000000000000
         C           -2.848420933441     0.794685144148     0.193313937901    12.000000000000
         C            1.559981066559    -1.212097855852     0.542493937901    12.000000000000
         C           -2.669649933441    -1.557686855852    -0.325579062099    12.000000000000
         C           -3.453315933441    -0.432210855852    -0.063186062099    12.000000000000
         C            2.951070066559    -1.171268855852     0.511574937901    12.000000000000
         C            3.578234066559    -0.065720855852    -0.062199062099    12.000000000000
         C            2.777956066559     0.957690144148    -0.567868062099    12.000000000000
         H           -0.664306933441    -2.294662855852    -0.558477062099     1.007825032230
         H           -3.464158933441     1.671494144148     0.390160937901     1.007825032230
         H            1.039464066559    -2.041413855852     1.012494937901     1.007825032230
         H           -3.132212933441    -2.515575855852    -0.548159062099     1.007825032230
         H           -4.538455933441    -0.507015855852    -0.055255062099     1.007825032230
         H            3.535558066559    -1.980528855852     0.942875937901     1.007825032230
         H            0.013252066559     2.317662144148     0.031265937901     1.007825032230
         H           -1.508323933441     2.953673144148     0.370475937901     1.007825032230
         H            4.660872066559     0.012303144148    -0.104639062099     1.007825032230
         H            3.225634066559     1.847607144148    -1.007546062099     1.007825032230

  Basis Set: AUG-CC-PVTZ
    Blend: AUG-CC-PVTZ
  Basis Set: (AUG-CC-PVTZ AUX)
    Blend: AUG-CC-PVTZ-JKFIT
	 Reference Energy          =    -531.4443439111604448 [Eh]
	 Singles Energy            =      -0.0000000000000000 [Eh]
	 Same-Spin Energy          =      -0.5957409196693997 [Eh]
	 Opposite-Spin Energy      =      -1.8200840334210393 [Eh]
	 Correlation Energy        =      -2.4158249530904392 [Eh]
	 Total Energy              =    -533.8601688642509089 [Eh]

	 ================> DF-SCS-MP2 Energies <==================
	-----------------------------------------------------------
	 SCS Same-Spin Scale       =       0.3333333333333333 [-]
	 SCS Opposite-Spin Scale   =       1.2000000000000000 [-]
	 SCS Same-Spin Energy      =      -0.1985803065564666 [Eh]
	 SCS Opposite-Spin Energy  =      -2.1841008401052471 [Eh]
	 SCS Correlation Energy    =      -2.3826811466617137 [Eh]
	 SCS Total Energy          =    -533.8270250578221976 [Eh]
	-----------------------------------------------------------

  Dipole Moment: [D]
     X:     1.9573      Y:    -0.4377      Z:     0.0224     Total:     2.0058

*** Psi4 exiting successfully. Buy a developer a beer!
