                               Psi4 1.3.2 release

  ==> Input File <==

--------------------------------------------------------------------------
#psi4
#
memory 32 gb

molecule  {
0 1
  N        1.4447430     0.9271060    -0.5600120
  N       -0.8646290     2.1728000     0.5033790
  C       -0.6426108    -0.2271535    -0.0435505
  C        0.8343400    -0.1560850    -0.0228830
  C       -1.4414270     0.9434540     0.1762700
  C       -1.2729090    -1.4294320    -0.3272730
  C       -2.8381000     0.7953410     0.1919050
  C        1.5703020    -1.2114420     0.5410850
  C       -2.6593290    -1.5570310    -0.3269880
  C       -3.4429950    -0.4315550    -0.0645950
  C        2.9613910    -1.1706130     0.5101660
  C        3.5885550    -0.0650650    -0.0636080
  C        2.7882770     0.9583460    -0.5692770
  H       -0.6539860    -2.2940070    -0.5598860
  H       -3.4538380     1.6721500     0.3887520
  H        1.0497850    -2.0407580     1.0110860
  H       -3.1218920    -2.5149200    -0.5495680
  H       -4.5281350    -0.5063600    -0.0566640
  H        3.5458790    -1.9798730     0.9414670
  H        0.0235730     2.3183180     0.0298570
  H       -1.4980030     2.9543290     0.3690670
  H        4.6711930     0.0129590    -0.1060480
  H        3.2359550     1.8482630    -1.0089550
units angstrom
no_reorient  #important for SAPT in psi4, default
symmetry c1  #important for SAPT in psi4, default
}

set PROPERTIES_ORIGIN ["COM"]
properties('MP2/aug-cc-pvtz', properties = ['dipole'])
--------------------------------------------------------------------------

    Molecular point group: c1
  Charge       = 0
  Multiplicity = 1
  Basis Set: AUG-CC-PVTZ
    Blend: AUG-CC-PVTZ
  Basis Set: (AUG-CC-PVTZ AUX)
    Blend: AUG-CC-PVTZ-JKFIT

    Orbital Energies [Eh]
    ---------------------

    Doubly Occupied:

       1A    -15.569390     2A    -15.552074     3A    -11.290145
       4A    -11.282844     5A    -11.281743     6A    -11.263370
       7A    -11.242810     8A    -11.241638     9A    -11.238014
      10A    -11.237583    11A    -11.234931    12A    -11.223091
      13A    -11.220604    14A     -1.262554    15A     -1.213705
      16A     -1.129128    17A     -1.088984    18A     -1.061849
      19A     -0.999254    20A     -0.978967    21A     -0.871406
      22A     -0.864624    23A     -0.815235    24A     -0.801980
      25A     -0.718991    26A     -0.691238    27A     -0.684766
      28A     -0.663159    29A     -0.654147    30A     -0.626867
      31A     -0.595406    32A     -0.591735    33A     -0.587164
      34A     -0.574445    35A     -0.550666    36A     -0.536580
      37A     -0.520334    38A     -0.503022    39A     -0.491440
      40A     -0.446238    41A     -0.420645    42A     -0.389132
      43A     -0.369364    44A     -0.320216    45A     -0.285127

  @DF-RHF Final Energy:  -531.45288873936079

   => Energetics <=

    Nuclear Repulsion Energy =            714.5780607197818881
    One-Electron Energy =               -2137.6886864007497024
    Two-Electron Energy =                 891.6577369416070269
    Total Energy =                       -531.4528887393607874
  Basis Set: (AUG-CC-PVTZ AUX)
    Blend: AUG-CC-PVTZ-RI
    Molecular point group: c1

    Geometry (in Angstrom), charge = 0, multiplicity = 1:

       Center              X                  Y                   Z               Mass
    ------------   -----------------  -----------------  -----------------  -----------------
         N            1.440426716074     0.925581217888    -0.558158111235    14.003074004430
         N           -0.868945283926     2.171275217888     0.505232888765    14.003074004430
         C           -0.646927083926    -0.228678282112    -0.041696611235    12.000000000000
         C            0.830023716074    -0.157609782112    -0.021029111235    12.000000000000
         C           -1.445743283926     0.941929217888     0.178123888765    12.000000000000
         C           -1.277225283926    -1.430956782112    -0.325419111235    12.000000000000
         C           -2.842416283926     0.793816217888     0.193758888765    12.000000000000
         C            1.565985716074    -1.212966782112     0.542938888765    12.000000000000
         C           -2.663645283926    -1.558555782112    -0.325134111235    12.000000000000
         C           -3.447311283926    -0.433079782112    -0.062741111235    12.000000000000
         C            2.957074716074    -1.172137782112     0.512019888765    12.000000000000
         C            3.584238716074    -0.066589782112    -0.061754111235    12.000000000000
         C            2.783960716074     0.956821217888    -0.567423111235    12.000000000000
         H           -0.658302283926    -2.295531782112    -0.558032111235     1.007825032230
         H           -3.458154283926     1.670625217888     0.390605888765     1.007825032230
         H            1.045468716074    -2.042282782112     1.012939888765     1.007825032230
         H           -3.126208283926    -2.516444782112    -0.547714111235     1.007825032230
         H           -4.532451283926    -0.507884782112    -0.054810111235     1.007825032230
         H            3.541562716074    -1.981397782112     0.943320888765     1.007825032230
         H            0.019256716074     2.316793217888     0.031710888765     1.007825032230
         H           -1.502319283926     2.952804217888     0.370920888765     1.007825032230
         H            4.666876716074     0.011434217888    -0.104194111235     1.007825032230
         H            3.231638716074     1.846738217888    -1.007101111235     1.007825032230

  Basis Set: AUG-CC-PVTZ
    Blend: AUG-CC-PVTZ
  Basis Set: (AUG-CC-PVTZ AUX)
    Blend: AUG-CC-PVTZ-JKFIT
	 Reference Energy          =    -531.4528887393607874 [Eh]
	 Singles Energy            =      -0.0000000000000000 [Eh]
	 Same-Spin Energy          =      -0.5965013905789334 [Eh]
	 Opposite-Spin Energy      =      -1.8207215089334967 [Eh]
	 Correlation Energy        =      -2.4172228995124301 [Eh]
	 Total Energy              =    -533.8701116388732544 [Eh]

	 ================> DF-SCS-MP2 Energies <==================
	-----------------------------------------------------------
	 SCS Same-Spin Scale       =       0.3333333333333333 [-]
	 SCS Opposite-Spin Scale   =       1.2000000000000000 [-]
	 SCS Same-Spin Energy      =      -0.1988337968596444 [Eh]
	 SCS Opposite-Spin Energy  =      -2.1848658107201961 [Eh]
	 SCS Correlation Energy    =      -2.3836996075798407 [Eh]
	 SCS Total Energy          =    -533.8365883469406299 [Eh]
	-----------------------------------------------------------

  Dipole Moment: [D]
     X:     1.5471      Y:    -0.3976      Z:     0.0151     Total:     1.5975

*** Psi4 exiting successfully. Buy a developer a beer!
