                               Psi4 1.3.2 release

  ==> Input File <==

--------------------------------------------------------------------------
#psi4
#
memory 32 gb

molecule  {
0 1
  N        1.4447430     0.9271060    -0.5600120
  N       -0.8206611     2.1518935     0.5007872
  C       -0.6433280    -0.2041590    -0.0552500
  C        0.8343400    -0.1560850    -0.0228830
  C       -1.4414270     0.9434540     0.1762700
  C       -1.2729090    -1.4294320    -0.3272730
  C       -2.8381000     0.7953410     0.1919050
  C        1.5703020    -1.2114420     0.5410850
  C       -2.6593290    -1.5570310    -0.3269880
  C       -3.4429950    -0.4315550    -0.0645950
  C        2.9613910    -1.1706130     0.5101660
  C        3.5885550    -0.0650650    -0.0636080
  C        2.7882770     0.9583460    -0.5692770
  H       -0.6539860    -2.2940070    -0.5598860
  H       -3.4538380     1.6721500     0.3887520
  H        1.0497850    -2.0407580     1.0110860
  H       -3.1218920    -2.5149200    -0.5495680
  H       -4.5281350    -0.5063600    -0.0566640
  H        3.5458790    -1.9798730     0.9414670
  H        0.0235730     2.3183180     0.0298570
  H       -1.4980030     2.9543290     0.3690670
  H        4.6711930     0.0129590    -0.1060480
  H        3.2359550     1.8482630    -1.0089550
units angstrom
no_reorient  #important for SAPT in psi4, default
symmetry c1  #important for SAPT in psi4, default
}

set PROPERTIES_ORIGIN ["COM"]
properties('MP2/aug-cc-pvtz', properties = ['dipole'])
--------------------------------------------------------------------------

    Molecular point group: c1
  Charge       = 0
  Multiplicity = 1
  Basis Set: AUG-CC-PVTZ
    Blend: AUG-CC-PVTZ
  Basis Set: (AUG-CC-PVTZ AUX)
    Blend: AUG-CC-PVTZ-JKFIT

    Orbital Energies [Eh]
    ---------------------

    Doubly Occupied:

       1A    -15.568191     2A    -15.552448     3A    -11.289618
       4A    -11.281020     5A    -11.280938     6A    -11.263119
       7A    -11.242473     8A    -11.241833     9A    -11.238946
      10A    -11.238819    11A    -11.233935    12A    -11.225307
      13A    -11.221611    14A     -1.262404    15A     -1.214033
      16A     -1.128030    17A     -1.088615    18A     -1.061255
      19A     -0.998216    20A     -0.980827    21A     -0.871833
      22A     -0.863935    23A     -0.816077    24A     -0.801843
      25A     -0.718982    26A     -0.694995    27A     -0.679554
      28A     -0.661893    29A     -0.655012    30A     -0.627035
      31A     -0.598286    32A     -0.591143    33A     -0.582227
      34A     -0.574042    35A     -0.550610    36A     -0.536958
      37A     -0.519975    38A     -0.501866    39A     -0.493227
      40A     -0.445868    41A     -0.420719    42A     -0.388532
      43A     -0.368414    44A     -0.319429    45A     -0.287298

  @DF-RHF Final Energy:  -531.44984943224358

   => Energetics <=

    Nuclear Repulsion Energy =            715.0966092152003739
    One-Electron Energy =               -2138.7301433500033454
    Two-Electron Energy =                 892.1836847025595034
    Total Energy =                       -531.4498494322435818
  Basis Set: (AUG-CC-PVTZ AUX)
    Blend: AUG-CC-PVTZ-RI
    Molecular point group: c1

    Geometry (in Angstrom), charge = 0, multiplicity = 1:

       Center              X                  Y                   Z               Mass
    ------------   -----------------  -----------------  -----------------  -----------------
         N            1.436857433039     0.925680117416    -0.557119290691    14.003074004430
         N           -0.828546666961     2.150467617416     0.503679909309    14.003074004430
         C           -0.651213566961    -0.205584882584    -0.052357290691    12.000000000000
         C            0.826454433039    -0.157510882584    -0.019990290691    12.000000000000
         C           -1.449312566961     0.942028117416     0.179162709309    12.000000000000
         C           -1.280794566961    -1.430857882584    -0.324380290691    12.000000000000
         C           -2.845985566961     0.793915117416     0.194797709309    12.000000000000
         C            1.562416433039    -1.212867882584     0.543977709309    12.000000000000
         C           -2.667214566961    -1.558456882584    -0.324095290691    12.000000000000
         C           -3.450880566961    -0.432980882584    -0.061702290691    12.000000000000
         C            2.953505433039    -1.172038882584     0.513058709309    12.000000000000
         C            3.580669433039    -0.066490882584    -0.060715290691    12.000000000000
         C            2.780391433039     0.956920117416    -0.566384290691    12.000000000000
         H           -0.661871566961    -2.295432882584    -0.556993290691     1.007825032230
         H           -3.461723566961     1.670724117416     0.391644709309     1.007825032230
         H            1.041899433039    -2.042183882584     1.013978709309     1.007825032230
         H           -3.129777566961    -2.516345882584    -0.546675290691     1.007825032230
         H           -4.536020566961    -0.507785882584    -0.053771290691     1.007825032230
         H            3.537993433039    -1.981298882584     0.944359709309     1.007825032230
         H            0.015687433039     2.316892117416     0.032749709309     1.007825032230
         H           -1.505888566961     2.952903117416     0.371959709309     1.007825032230
         H            4.663307433039     0.011533117416    -0.103155290691     1.007825032230
         H            3.228069433039     1.846837117416    -1.006062290691     1.007825032230

  Basis Set: AUG-CC-PVTZ
    Blend: AUG-CC-PVTZ
  Basis Set: (AUG-CC-PVTZ AUX)
    Blend: AUG-CC-PVTZ-JKFIT
	 Reference Energy          =    -531.4498494322435818 [Eh]
	 Singles Energy            =      -0.0000000000000000 [Eh]
	 Same-Spin Energy          =      -0.5966211158610154 [Eh]
	 Opposite-Spin Energy      =      -1.8211463722170182 [Eh]
	 Correlation Energy        =      -2.4177674880780335 [Eh]
	 Total Energy              =    -533.8676169203216659 [Eh]

	 ================> DF-SCS-MP2 Energies <==================
	-----------------------------------------------------------
	 SCS Same-Spin Scale       =       0.3333333333333333 [-]
	 SCS Opposite-Spin Scale   =       1.2000000000000000 [-]
	 SCS Same-Spin Energy      =      -0.1988737052870051 [Eh]
	 SCS Opposite-Spin Energy  =      -2.1853756466604217 [Eh]
	 SCS Correlation Energy    =      -2.3842493519474268 [Eh]
	 SCS Total Energy          =    -533.8340987841910419 [Eh]
	-----------------------------------------------------------

  Dipole Moment: [D]
     X:     1.4615      Y:    -0.4148      Z:     0.0117     Total:     1.5193

*** Psi4 exiting successfully. Buy a developer a beer!
