                               Psi4 1.3.2 release

  ==> Input File <==

--------------------------------------------------------------------------
#psi4
#
memory 32 gb

molecule  {
0 1
  N        1.3150772     0.9763943    -0.5892614
  N       -0.8646290     2.1728000     0.5033790
  C       -0.6433280    -0.2041590    -0.0552500
  C        0.8343400    -0.1560850    -0.0228830
  C       -1.4414270     0.9434540     0.1762700
  C       -1.2729090    -1.4294320    -0.3272730
  C       -2.8381000     0.7953410     0.1919050
  C        1.5703020    -1.2114420     0.5410850
  C       -2.6593290    -1.5570310    -0.3269880
  C       -3.4429950    -0.4315550    -0.0645950
  C        2.9613910    -1.1706130     0.5101660
  C        3.5885550    -0.0650650    -0.0636080
  C        2.7882770     0.9583460    -0.5692770
  H       -0.6539860    -2.2940070    -0.5598860
  H       -3.4538380     1.6721500     0.3887520
  H        1.0497850    -2.0407580     1.0110860
  H       -3.1218920    -2.5149200    -0.5495680
  H       -4.5281350    -0.5063600    -0.0566640
  H        3.5458790    -1.9798730     0.9414670
  H        0.0235730     2.3183180     0.0298570
  H       -1.4980030     2.9543290     0.3690670
  H        4.6711930     0.0129590    -0.1060480
  H        3.2359550     1.8482630    -1.0089550
units angstrom
no_reorient  #important for SAPT in psi4, default
symmetry c1  #important for SAPT in psi4, default
}

set PROPERTIES_ORIGIN ["COM"]
properties('MP2/aug-cc-pvtz', properties = ['dipole'])
--------------------------------------------------------------------------

    Molecular point group: c1
  Charge       = 0
  Multiplicity = 1
  Basis Set: AUG-CC-PVTZ
    Blend: AUG-CC-PVTZ
  Basis Set: (AUG-CC-PVTZ AUX)
    Blend: AUG-CC-PVTZ-JKFIT

    Orbital Energies [Eh]
    ---------------------

    Doubly Occupied:

       1A    -15.584821     2A    -15.546734     3A    -11.295282
       4A    -11.292259     5A    -11.278706     6A    -11.269996
       7A    -11.248286     8A    -11.245065     9A    -11.236866
      10A    -11.236261    11A    -11.231033    12A    -11.222219
      13A    -11.219414    14A     -1.246122    15A     -1.206521
      16A     -1.124939    17A     -1.095404    18A     -1.052555
      19A     -0.996314    20A     -0.979242    21A     -0.873193
      22A     -0.862714    23A     -0.813948    24A     -0.793943
      25A     -0.716913    26A     -0.687414    27A     -0.683469
      28A     -0.662854    29A     -0.649560    30A     -0.625910
      31A     -0.592933    32A     -0.590399    33A     -0.584944
      34A     -0.572287    35A     -0.542941    36A     -0.534267
      37A     -0.512382    38A     -0.496561    39A     -0.493272
      40A     -0.444754    41A     -0.435036    42A     -0.393302
      43A     -0.360014    44A     -0.320188    45A     -0.285694

  @DF-RHF Final Energy:  -531.42928131076133

   => Energetics <=

    Nuclear Repulsion Energy =            713.5556560517233038
    One-Electron Energy =               -2135.6960145517318779
    Two-Electron Energy =                 890.7110771892471348
    Total Energy =                       -531.4292813107613256
  Basis Set: (AUG-CC-PVTZ AUX)
    Blend: AUG-CC-PVTZ-RI
    Molecular point group: c1

    Geometry (in Angstrom), charge = 0, multiplicity = 1:

       Center              X                  Y                   Z               Mass
    ------------   -----------------  -----------------  -----------------  -----------------
         N            1.321486921582     0.969189269012    -0.584173966488    14.003074004430
         N           -0.858219278418     2.165594969012     0.508466433512    14.003074004430
         C           -0.636918278418    -0.211364030988    -0.050162566488    12.000000000000
         C            0.840749721582    -0.163290030988    -0.017795566488    12.000000000000
         C           -1.435017278418     0.936248969012     0.181357433512    12.000000000000
         C           -1.266499278418    -1.436637030988    -0.322185566488    12.000000000000
         C           -2.831690278418     0.788135969012     0.196992433512    12.000000000000
         C            1.576711721582    -1.218647030988     0.546172433512    12.000000000000
         C           -2.652919278418    -1.564236030988    -0.321900566488    12.000000000000
         C           -3.436585278418    -0.438760030988    -0.059507566488    12.000000000000
         C            2.967800721582    -1.177818030988     0.515253433512    12.000000000000
         C            3.594964721582    -0.072270030988    -0.058520566488    12.000000000000
         C            2.794686721582     0.951140969012    -0.564189566488    12.000000000000
         H           -0.647576278418    -2.301212030988    -0.554798566488     1.007825032230
         H           -3.447428278418     1.664944969012     0.393839433512     1.007825032230
         H            1.056194721582    -2.047963030988     1.016173433512     1.007825032230
         H           -3.115482278418    -2.522125030988    -0.544480566488     1.007825032230
         H           -4.521725278418    -0.513565030988    -0.051576566488     1.007825032230
         H            3.552288721582    -1.987078030988     0.946554433512     1.007825032230
         H            0.029982721582     2.311112969012     0.034944433512     1.007825032230
         H           -1.491593278418     2.947123969012     0.374154433512     1.007825032230
         H            4.677602721582     0.005753969012    -0.100960566488     1.007825032230
         H            3.242364721582     1.841057969012    -1.003867566488     1.007825032230

  Basis Set: AUG-CC-PVTZ
    Blend: AUG-CC-PVTZ
  Basis Set: (AUG-CC-PVTZ AUX)
    Blend: AUG-CC-PVTZ-JKFIT
	 Reference Energy          =    -531.4292813107613256 [Eh]
	 Singles Energy            =      -0.0000000000000000 [Eh]
	 Same-Spin Energy          =      -0.5982233551611553 [Eh]
	 Opposite-Spin Energy      =      -1.8265957015329541 [Eh]
	 Correlation Energy        =      -2.4248190566941092 [Eh]
	 Total Energy              =    -533.8541003674554304 [Eh]

	 ================> DF-SCS-MP2 Energies <==================
	-----------------------------------------------------------
	 SCS Same-Spin Scale       =       0.3333333333333333 [-]
	 SCS Opposite-Spin Scale   =       1.2000000000000000 [-]
	 SCS Same-Spin Energy      =      -0.1994077850537184 [Eh]
	 SCS Opposite-Spin Energy  =      -2.1919148418395449 [Eh]
	 SCS Correlation Energy    =      -2.3913226268932632 [Eh]
	 SCS Total Energy          =    -533.8206039376545959 [Eh]
	-----------------------------------------------------------

  Dipole Moment: [D]
     X:     1.8369      Y:    -0.5375      Z:     0.0652     Total:     1.9150

*** Psi4 exiting successfully. Buy a developer a beer!
