                               Psi4 1.3.2 release

  ==> Input File <==

--------------------------------------------------------------------------
#psi4
#
memory 32 gb

molecule  {
0 1
  N        1.4447430     0.9271060    -0.5600120
  N       -0.8646290     2.1728000     0.5033790
  C       -0.6433280    -0.2041590    -0.0552500
  C        0.9342632    -0.1528341    -0.0206943
  C       -1.4414270     0.9434540     0.1762700
  C       -1.2729090    -1.4294320    -0.3272730
  C       -2.8381000     0.7953410     0.1919050
  C        1.5703020    -1.2114420     0.5410850
  C       -2.6593290    -1.5570310    -0.3269880
  C       -3.4429950    -0.4315550    -0.0645950
  C        2.9613910    -1.1706130     0.5101660
  C        3.5885550    -0.0650650    -0.0636080
  C        2.7882770     0.9583460    -0.5692770
  H       -0.6539860    -2.2940070    -0.5598860
  H       -3.4538380     1.6721500     0.3887520
  H        1.0497850    -2.0407580     1.0110860
  H       -3.1218920    -2.5149200    -0.5495680
  H       -4.5281350    -0.5063600    -0.0566640
  H        3.5458790    -1.9798730     0.9414670
  H        0.0235730     2.3183180     0.0298570
  H       -1.4980030     2.9543290     0.3690670
  H        4.6711930     0.0129590    -0.1060480
  H        3.2359550     1.8482630    -1.0089550
units angstrom
no_reorient  #important for SAPT in psi4, default
symmetry c1  #important for SAPT in psi4, default
}

set PROPERTIES_ORIGIN ["COM"]
properties('MP2/aug-cc-pvtz', properties = ['dipole'])
--------------------------------------------------------------------------

    Molecular point group: c1
  Charge       = 0
  Multiplicity = 1
  Basis Set: AUG-CC-PVTZ
    Blend: AUG-CC-PVTZ
  Basis Set: (AUG-CC-PVTZ AUX)
    Blend: AUG-CC-PVTZ-JKFIT

    Orbital Energies [Eh]
    ---------------------

    Doubly Occupied:

       1A    -15.570423     2A    -15.548185     3A    -11.286767
       4A    -11.284986     5A    -11.275859     6A    -11.267071
       7A    -11.245235     8A    -11.239421     9A    -11.235634
      10A    -11.234011    11A    -11.233428    12A    -11.220718
      13A    -11.217999    14A     -1.280592    15A     -1.211279
      16A     -1.122481    17A     -1.099080    18A     -1.056863
      19A     -0.996865    20A     -0.976614    21A     -0.874523
      22A     -0.863589    23A     -0.814843    24A     -0.799311
      25A     -0.719872    26A     -0.688246    27A     -0.681937
      28A     -0.664881    29A     -0.655443    30A     -0.627644
      31A     -0.592883    32A     -0.589288    33A     -0.583781
      34A     -0.573413    35A     -0.559794    36A     -0.533917
      37A     -0.519112    38A     -0.496847    39A     -0.486955
      40A     -0.441584    41A     -0.426078    42A     -0.393712
      43A     -0.368228    44A     -0.321165    45A     -0.285723

  @DF-RHF Final Energy:  -531.44540070149219

   => Energetics <=

    Nuclear Repulsion Energy =            714.6943323735598597
    One-Electron Energy =               -2137.9469076300156303
    Two-Electron Energy =                 891.8071745549634670
    Total Energy =                       -531.4454007014921899
  Basis Set: (AUG-CC-PVTZ AUX)
    Blend: AUG-CC-PVTZ-RI
    Molecular point group: c1

    Geometry (in Angstrom), charge = 0, multiplicity = 1:

       Center              X                  Y                   Z               Mass
    ------------   -----------------  -----------------  -----------------  -----------------
         N            1.433427414482     0.923729520713    -0.557487093780    14.003074004430
         N           -0.875944585518     2.169423520713     0.505903906220    14.003074004430
         C           -0.654643585518    -0.207535479287    -0.052725093780    12.000000000000
         C            0.922947614482    -0.156210579287    -0.018169393780    12.000000000000
         C           -1.452742585518     0.940077520713     0.178794906220    12.000000000000
         C           -1.284224585518    -1.432808479287    -0.324748093780    12.000000000000
         C           -2.849415585518     0.791964520713     0.194429906220    12.000000000000
         C            1.558986414482    -1.214818479287     0.543609906220    12.000000000000
         C           -2.670644585518    -1.560407479287    -0.324463093780    12.000000000000
         C           -3.454310585518    -0.434931479287    -0.062070093780    12.000000000000
         C            2.950075414482    -1.173989479287     0.512690906220    12.000000000000
         C            3.577239414482    -0.068441479287    -0.061083093780    12.000000000000
         C            2.776961414482     0.954969520713    -0.566752093780    12.000000000000
         H           -0.665301585518    -2.297383479287    -0.557361093780     1.007825032230
         H           -3.465153585518     1.668773520713     0.391276906220     1.007825032230
         H            1.038469414482    -2.044134479287     1.013610906220     1.007825032230
         H           -3.133207585518    -2.518296479287    -0.547043093780     1.007825032230
         H           -4.539450585518    -0.509736479287    -0.054139093780     1.007825032230
         H            3.534563414482    -1.983249479287     0.943991906220     1.007825032230
         H            0.012257414482     2.314941520713     0.032381906220     1.007825032230
         H           -1.509318585518     2.950952520713     0.371591906220     1.007825032230
         H            4.659877414482     0.009582520713    -0.103523093780     1.007825032230
         H            3.224639414482     1.844886520713    -1.006430093780     1.007825032230

  Basis Set: AUG-CC-PVTZ
    Blend: AUG-CC-PVTZ
  Basis Set: (AUG-CC-PVTZ AUX)
    Blend: AUG-CC-PVTZ-JKFIT
	 Reference Energy          =    -531.4454007014921899 [Eh]
	 Singles Energy            =      -0.0000000000000000 [Eh]
	 Same-Spin Energy          =      -0.5954436634959488 [Eh]
	 Opposite-Spin Energy      =      -1.8192087321557593 [Eh]
	 Correlation Energy        =      -2.4146523956517081 [Eh]
	 Total Energy              =    -533.8600530971439184 [Eh]

	 ================> DF-SCS-MP2 Energies <==================
	-----------------------------------------------------------
	 SCS Same-Spin Scale       =       0.3333333333333333 [-]
	 SCS Opposite-Spin Scale   =       1.2000000000000000 [-]
	 SCS Same-Spin Energy      =      -0.1984812211653162 [Eh]
	 SCS Opposite-Spin Energy  =      -2.1830504785869111 [Eh]
	 SCS Correlation Energy    =      -2.3815316997522276 [Eh]
	 SCS Total Energy          =    -533.8269324012444486 [Eh]
	-----------------------------------------------------------

  Dipole Moment: [D]
     X:     1.9883      Y:    -0.4312      Z:     0.0143     Total:     2.0346

*** Psi4 exiting successfully. Buy a developer a beer!
