                               Psi4 1.3.2 release

  ==> Input File <==

--------------------------------------------------------------------------
#psi4
#
memory 32 gb

molecule  {
0 1
  N        1.4447430     0.9271060    -0.5600120
  N       -0.8646290     2.1728000     0.5033790
  C       -0.6433280    -0.2041590    -0.0552500
  C        0.8343400    -0.1560850    -0.0228830
  C       -1.3645314     0.9265405     0.1187720
  C       -1.2729090    -1.4294320    -0.3272730
  C       -2.8381000     0.7953410     0.1919050
  C        1.5703020    -1.2114420     0.5410850
  C       -2.6593290    -1.5570310    -0.3269880
  C       -3.4429950    -0.4315550    -0.0645950
  C        2.9613910    -1.1706130     0.5101660
  C        3.5885550    -0.0650650    -0.0636080
  C        2.7882770     0.9583460    -0.5692770
  H       -0.6539860    -2.2940070    -0.5598860
  H       -3.4538380     1.6721500     0.3887520
  H        1.0497850    -2.0407580     1.0110860
  H       -3.1218920    -2.5149200    -0.5495680
  H       -4.5281350    -0.5063600    -0.0566640
  H        3.5458790    -1.9798730     0.9414670
  H        0.0235730     2.3183180     0.0298570
  H       -1.4980030     2.9543290     0.3690670
  H        4.6711930     0.0129590    -0.1060480
  H        3.2359550     1.8482630    -1.0089550
units angstrom
no_reorient  #important for SAPT in psi4, default
symmetry c1  #important for SAPT in psi4, default
}

set PROPERTIES_ORIGIN ["COM"]
properties('MP2/aug-cc-pvtz', properties = ['dipole'])
--------------------------------------------------------------------------

    Molecular point group: c1
  Charge       = 0
  Multiplicity = 1
  Basis Set: AUG-CC-PVTZ
    Blend: AUG-CC-PVTZ
  Basis Set: (AUG-CC-PVTZ AUX)
    Blend: AUG-CC-PVTZ-JKFIT

    Orbital Energies [Eh]
    ---------------------

    Doubly Occupied:

       1A    -15.568570     2A    -15.552190     3A    -11.288883
       4A    -11.281349     5A    -11.280918     6A    -11.263307
       7A    -11.242274     8A    -11.241320     9A    -11.239358
      10A    -11.236603    11A    -11.232259    12A    -11.227434
      13A    -11.222229    14A     -1.263184    15A     -1.214564
      16A     -1.129037    17A     -1.088771    18A     -1.061572
      19A     -0.996515    20A     -0.980449    21A     -0.868644
      22A     -0.865680    23A     -0.823533    24A     -0.794862
      25A     -0.718760    26A     -0.688695    27A     -0.685326
      28A     -0.664096    29A     -0.652511    30A     -0.631868
      31A     -0.598813    32A     -0.590296    33A     -0.581517
      34A     -0.573913    35A     -0.550152    36A     -0.536436
      37A     -0.519390    38A     -0.505617    39A     -0.487494
      40A     -0.445618    41A     -0.419960    42A     -0.388965
      43A     -0.369599    44A     -0.317342    45A     -0.288202

  @DF-RHF Final Energy:  -531.44366511337410

   => Energetics <=

    Nuclear Repulsion Energy =            715.2694636778455788
    One-Electron Energy =               -2139.0701078656456957
    Two-Electron Energy =                 892.3569790744260217
    Total Energy =                       -531.4436651133740952
  Basis Set: (AUG-CC-PVTZ AUX)
    Blend: AUG-CC-PVTZ-RI
    Molecular point group: c1

    Geometry (in Angstrom), charge = 0, multiplicity = 1:

       Center              X                  Y                   Z               Mass
    ------------   -----------------  -----------------  -----------------  -----------------
         N            1.435052085544     0.925152183828    -0.553276005597    14.003074004430
         N           -0.874319914456     2.170846183828     0.510114994403    14.003074004430
         C           -0.653018914456    -0.206112816172    -0.048514005597    12.000000000000
         C            0.824649085544    -0.158038816172    -0.016147005597    12.000000000000
         C           -1.374222314456     0.924586683828     0.125507994403    12.000000000000
         C           -1.282599914456    -1.431385816172    -0.320537005597    12.000000000000
         C           -2.847790914456     0.793387183828     0.198640994403    12.000000000000
         C            1.560611085544    -1.213395816172     0.547820994403    12.000000000000
         C           -2.669019914456    -1.558984816172    -0.320252005597    12.000000000000
         C           -3.452685914456    -0.433508816172    -0.057859005597    12.000000000000
         C            2.951700085544    -1.172566816172     0.516901994403    12.000000000000
         C            3.578864085544    -0.067018816172    -0.056872005597    12.000000000000
         C            2.778586085544     0.956392183828    -0.562541005597    12.000000000000
         H           -0.663676914456    -2.295960816172    -0.553150005597     1.007825032230
         H           -3.463528914456     1.670196183828     0.395487994403     1.007825032230
         H            1.040094085544    -2.042711816172     1.017821994403     1.007825032230
         H           -3.131582914456    -2.516873816172    -0.542832005597     1.007825032230
         H           -4.537825914456    -0.508313816172    -0.049928005597     1.007825032230
         H            3.536188085544    -1.981826816172     0.948202994403     1.007825032230
         H            0.013882085544     2.316364183828     0.036592994403     1.007825032230
         H           -1.507693914456     2.952375183828     0.375802994403     1.007825032230
         H            4.661502085544     0.011005183828    -0.099312005597     1.007825032230
         H            3.226264085544     1.846309183828    -1.002219005597     1.007825032230

  Basis Set: AUG-CC-PVTZ
    Blend: AUG-CC-PVTZ
  Basis Set: (AUG-CC-PVTZ AUX)
    Blend: AUG-CC-PVTZ-JKFIT
	 Reference Energy          =    -531.4436651133740952 [Eh]
	 Singles Energy            =      -0.0000000000000000 [Eh]
	 Same-Spin Energy          =      -0.5963810988082330 [Eh]
	 Opposite-Spin Energy      =      -1.8215108376295173 [Eh]
	 Correlation Energy        =      -2.4178919364377505 [Eh]
	 Total Energy              =    -533.8615570498118359 [Eh]

	 ================> DF-SCS-MP2 Energies <==================
	-----------------------------------------------------------
	 SCS Same-Spin Scale       =       0.3333333333333333 [-]
	 SCS Opposite-Spin Scale   =       1.2000000000000000 [-]
	 SCS Same-Spin Energy      =      -0.1987936996027443 [Eh]
	 SCS Opposite-Spin Energy  =      -2.1858130051554205 [Eh]
	 SCS Correlation Energy    =      -2.3846067047581649 [Eh]
	 SCS Total Energy          =    -533.8282718181322934 [Eh]
	-----------------------------------------------------------

  Dipole Moment: [D]
     X:     1.4784      Y:    -0.3931      Z:     0.0136     Total:     1.5298

*** Psi4 exiting successfully. Buy a developer a beer!
