                               Psi4 1.3.2 release

  ==> Input File <==

--------------------------------------------------------------------------
#psi4
#
memory 32 gb

molecule  {
0 1
  N        1.4447430     0.9271060    -0.5600120
  N       -0.8646290     2.1728000     0.5033790
  C       -0.6433280    -0.2041590    -0.0552500
  C        0.8343400    -0.1560850    -0.0228830
  C       -1.4414270     0.9434540     0.1762700
  C       -1.2729090    -1.4294320    -0.3272730
  C       -2.8381000     0.7953410     0.1919050
  C        1.6226909    -1.2865668     0.5812306
  C       -2.6593290    -1.5570310    -0.3269880
  C       -3.4429950    -0.4315550    -0.0645950
  C        2.9613910    -1.1706130     0.5101660
  C        3.5885550    -0.0650650    -0.0636080
  C        2.7882770     0.9583460    -0.5692770
  H       -0.6539860    -2.2940070    -0.5598860
  H       -3.4538380     1.6721500     0.3887520
  H        1.0497850    -2.0407580     1.0110860
  H       -3.1218920    -2.5149200    -0.5495680
  H       -4.5281350    -0.5063600    -0.0566640
  H        3.5458790    -1.9798730     0.9414670
  H        0.0235730     2.3183180     0.0298570
  H       -1.4980030     2.9543290     0.3690670
  H        4.6711930     0.0129590    -0.1060480
  H        3.2359550     1.8482630    -1.0089550
units angstrom
no_reorient  #important for SAPT in psi4, default
symmetry c1  #important for SAPT in psi4, default
}

set PROPERTIES_ORIGIN ["COM"]
properties('MP2/aug-cc-pvtz', properties = ['dipole'])
--------------------------------------------------------------------------

    Molecular point group: c1
  Charge       = 0
  Multiplicity = 1
  Basis Set: AUG-CC-PVTZ
    Blend: AUG-CC-PVTZ
  Basis Set: (AUG-CC-PVTZ AUX)
    Blend: AUG-CC-PVTZ-JKFIT

    Orbital Energies [Eh]
    ---------------------

    Doubly Occupied:

       1A    -15.568645     2A    -15.552525     3A    -11.302372
       4A    -11.283466     5A    -11.279293     6A    -11.255549
       7A    -11.243304     8A    -11.241820     9A    -11.240529
      10A    -11.240115    11A    -11.237099    12A    -11.225839
      13A    -11.223165    14A     -1.259145    15A     -1.215288
      16A     -1.129515    17A     -1.093881    18A     -1.056539
      19A     -0.997992    20A     -0.981973    21A     -0.876888
      22A     -0.856410    23A     -0.819896    24A     -0.798547
      25A     -0.717711    26A     -0.693802    27A     -0.685841
      28A     -0.672794    29A     -0.650878    30A     -0.625312
      31A     -0.597512    32A     -0.591790    33A     -0.588331
      34A     -0.565122    35A     -0.547452    36A     -0.545953
      37A     -0.521745    38A     -0.504835    39A     -0.496371
      40A     -0.446795    41A     -0.414834    42A     -0.396507
      43A     -0.364495    44A     -0.317471    45A     -0.286868

  @DF-RHF Final Energy:  -531.44251997324238

   => Energetics <=

    Nuclear Repulsion Energy =            713.0714116232994684
    One-Electron Energy =               -2134.6034352885085355
    Two-Electron Energy =                 890.0895036919667973
    Total Energy =                       -531.4425199732423835
  Basis Set: (AUG-CC-PVTZ AUX)
    Blend: AUG-CC-PVTZ-RI
    Molecular point group: c1

    Geometry (in Angstrom), charge = 0, multiplicity = 1:

       Center              X                  Y                   Z               Mass
    ------------   -----------------  -----------------  -----------------  -----------------
         N            1.436781111856     0.929259177808    -0.560165074856    14.003074004430
         N           -0.872590888144     2.174953177808     0.503225925144    14.003074004430
         C           -0.651289888144    -0.202005822192    -0.055403074856    12.000000000000
         C            0.826378111856    -0.153931822192    -0.023036074856    12.000000000000
         C           -1.449388888144     0.945607177808     0.176116925144    12.000000000000
         C           -1.280870888144    -1.427278822192    -0.327426074856    12.000000000000
         C           -2.846061888144     0.797494177808     0.191751925144    12.000000000000
         C            1.614729011856    -1.284413622192     0.581077525144    12.000000000000
         C           -2.667290888144    -1.554877822192    -0.327141074856    12.000000000000
         C           -3.450956888144    -0.429401822192    -0.064748074856    12.000000000000
         C            2.953429111856    -1.168459822192     0.510012925144    12.000000000000
         C            3.580593111856    -0.062911822192    -0.063761074856    12.000000000000
         C            2.780315111856     0.960499177808    -0.569430074856    12.000000000000
         H           -0.661947888144    -2.291853822192    -0.560039074856     1.007825032230
         H           -3.461799888144     1.674303177808     0.388598925144     1.007825032230
         H            1.041823111856    -2.038604822192     1.010932925144     1.007825032230
         H           -3.129853888144    -2.512766822192    -0.549721074856     1.007825032230
         H           -4.536096888144    -0.504206822192    -0.056817074856     1.007825032230
         H            3.537917111856    -1.977719822192     0.941313925144     1.007825032230
         H            0.015611111856     2.320471177808     0.029703925144     1.007825032230
         H           -1.505964888144     2.956482177808     0.368913925144     1.007825032230
         H            4.663231111856     0.015112177808    -0.106201074856     1.007825032230
         H            3.227993111856     1.850416177808    -1.009108074856     1.007825032230

  Basis Set: AUG-CC-PVTZ
    Blend: AUG-CC-PVTZ
  Basis Set: (AUG-CC-PVTZ AUX)
    Blend: AUG-CC-PVTZ-JKFIT
	 Reference Energy          =    -531.4425199732423835 [Eh]
	 Singles Energy            =      -0.0000000000000000 [Eh]
	 Same-Spin Energy          =      -0.5961557045662959 [Eh]
	 Opposite-Spin Energy      =      -1.8210100674866860 [Eh]
	 Correlation Energy        =      -2.4171657720529818 [Eh]
	 Total Energy              =    -533.8596857452953373 [Eh]

	 ================> DF-SCS-MP2 Energies <==================
	-----------------------------------------------------------
	 SCS Same-Spin Scale       =       0.3333333333333333 [-]
	 SCS Opposite-Spin Scale   =       1.2000000000000000 [-]
	 SCS Same-Spin Energy      =      -0.1987185681887653 [Eh]
	 SCS Opposite-Spin Energy  =      -2.1852120809840230 [Eh]
	 SCS Correlation Energy    =      -2.3839306491727883 [Eh]
	 SCS Total Energy          =    -533.8264506224152228 [Eh]
	-----------------------------------------------------------

  Dipole Moment: [D]
     X:     1.3454      Y:    -0.3957      Z:     0.0100     Total:     1.4025

*** Psi4 exiting successfully. Buy a developer a beer!
