                               Psi4 1.4a3.dev225

  ==> Input File <==

--------------------------------------------------------------------------
#psi4
#
memory 32 gb

molecule  {
0 1
  N        1.4447430     0.9271060    -0.5600120
  N       -0.8646290     2.1728000     0.5033790
  C       -0.6433280    -0.2041590    -0.0552500
  C        0.7843784    -0.1577104    -0.0239774
  C       -1.4414270     0.9434540     0.1762700
  C       -1.2729090    -1.4294320    -0.3272730
  C       -2.8381000     0.7953410     0.1919050
  C        1.5703020    -1.2114420     0.5410850
  C       -2.6593290    -1.5570310    -0.3269880
  C       -3.4429950    -0.4315550    -0.0645950
  C        2.9613910    -1.1706130     0.5101660
  C        3.5885550    -0.0650650    -0.0636080
  C        2.7882770     0.9583460    -0.5692770
  H       -0.6539860    -2.2940070    -0.5598860
  H       -3.4538380     1.6721500     0.3887520
  H        1.0497850    -2.0407580     1.0110860
  H       -3.1218920    -2.5149200    -0.5495680
  H       -4.5281350    -0.5063600    -0.0566640
  H        3.5458790    -1.9798730     0.9414670
  H        0.0235730     2.3183180     0.0298570
  H       -1.4980030     2.9543290     0.3690670
  H        4.6711930     0.0129590    -0.1060480
  H        3.2359550     1.8482630    -1.0089550
units angstrom
no_reorient  #important for SAPT in psi4, default
symmetry c1  #important for SAPT in psi4, default
}

set PROPERTIES_ORIGIN ["COM"]
properties('MP2/aug-cc-pvtz', properties = ['dipole'])
--------------------------------------------------------------------------

    Molecular point group: c1
  Charge       = 0
  Multiplicity = 1
  Basis Set: AUG-CC-PVTZ
    Blend: AUG-CC-PVTZ
  Basis Set: (AUG-CC-PVTZ AUX)
    Blend: AUG-CC-PVTZ-JKFIT

    Orbital Energies [Eh]
    ---------------------

    Doubly Occupied:

       1A    -15.567986     2A    -15.552710     3A    -11.292148
       4A    -11.283720     5A    -11.279651     6A    -11.261683
       7A    -11.243511     8A    -11.241776     9A    -11.241137
      10A    -11.240862    11A    -11.233199    12A    -11.225713
      13A    -11.222978    14A     -1.254787    15A     -1.214879
      16A     -1.131229    17A     -1.084628    18A     -1.065201
      19A     -0.997802    20A     -0.982241    21A     -0.876056
      22A     -0.860359    23A     -0.817737    24A     -0.800754
      25A     -0.719867    26A     -0.691958    27A     -0.686632
      28A     -0.665367    29A     -0.649972    30A     -0.626490
      31A     -0.597328    32A     -0.593742    33A     -0.587835
      34A     -0.574230    35A     -0.547464    36A     -0.537373
      37A     -0.519727    38A     -0.503798    39A     -0.497235
      40A     -0.447086    41A     -0.415331    42A     -0.387147
      43A     -0.369407    44A     -0.317855    45A     -0.286133

  @DF-RHF Final Energy:  -531.44791522754326

   => Energetics <=

    Nuclear Repulsion Energy =            714.6711725120766232
    One-Electron Energy =               -2137.8487252141057979
    Two-Electron Energy =                 891.7296374744857985
    Total Energy =                       -531.4479152275432625
  Basis Set: (AUG-CC-PVTZ AUX)
    Blend: AUG-CC-PVTZ-RI
    Molecular point group: c1

    Geometry (in Angstrom), charge = 0, multiplicity = 1:

       Center              X                  Y                   Z               Mass
    ------------   -----------------  -----------------  -----------------  -----------------
         N            1.444002268012     0.924073559323    -0.557255460542    14.003074004430
         N           -0.865369731988     2.169767559323     0.506135539458    14.003074004430
         C           -0.644068731988    -0.207191440677    -0.052493460542    12.000000000000
         C            0.783637668012    -0.160742840677    -0.021220860542    12.000000000000
         C           -1.442167731988     0.940421559323     0.179026539458    12.000000000000
         C           -1.273649731988    -1.432464440677    -0.324516460542    12.000000000000
         C           -2.838840731988     0.792308559323     0.194661539458    12.000000000000
         C            1.569561268012    -1.214474440677     0.543841539458    12.000000000000
         C           -2.660069731988    -1.560063440677    -0.324231460542    12.000000000000
         C           -3.443735731988    -0.434587440677    -0.061838460542    12.000000000000
         C            2.960650268012    -1.173645440677     0.512922539458    12.000000000000
         C            3.587814268012    -0.068097440677    -0.060851460542    12.000000000000
         C            2.787536268012     0.955313559323    -0.566520460542    12.000000000000
         H           -0.654726731988    -2.297039440677    -0.557129460542     1.007825032230
         H           -3.454578731988     1.669117559323     0.391508539458     1.007825032230
         H            1.049044268012    -2.043790440677     1.013842539458     1.007825032230
         H           -3.122632731988    -2.517952440677    -0.546811460542     1.007825032230
         H           -4.528875731988    -0.509392440677    -0.053907460542     1.007825032230
         H            3.545138268012    -1.982905440677     0.944223539458     1.007825032230
         H            0.022832268012     2.315285559323     0.032613539458     1.007825032230
         H           -1.498743731988     2.951296559323     0.371823539458     1.007825032230
         H            4.670452268012     0.009926559323    -0.103291460542     1.007825032230
         H            3.235214268012     1.845230559323    -1.006198460542     1.007825032230

  Basis Set: AUG-CC-PVTZ
    Blend: AUG-CC-PVTZ
  Basis Set: (AUG-CC-PVTZ AUX)
    Blend: AUG-CC-PVTZ-JKFIT
	 Reference Energy          =    -531.4479152275432625 [Eh]
	 Singles Energy            =      -0.0000000000000000 [Eh]
	 Same-Spin Energy          =      -0.5975041767952729 [Eh]
	 Opposite-Spin Energy      =      -1.8223648424439429 [Eh]
	 Correlation Energy        =      -2.4198690192392158 [Eh]
	 Total Energy              =    -533.8677842467824348 [Eh]

	 ================> DF-SCS-MP2 Energies <==================
	-----------------------------------------------------------
	 SCS Same-Spin Scale       =       0.3333333333333333 [-]
	 SCS Opposite-Spin Scale   =       1.2000000000000000 [-]
	 SCS Same-Spin Energy      =      -0.1991680589317576 [Eh]
	 SCS Opposite-Spin Energy  =      -2.1868378109327313 [Eh]
	 SCS Correlation Energy    =      -2.3860058698644888 [Eh]
	 SCS Total Energy          =    -533.8339210974077105 [Eh]
	-----------------------------------------------------------

  Dipole Moment: [D]
     X:     1.2863      Y:    -0.4109      Z:     0.0145     Total:     1.3504

*** Psi4 exiting successfully. Buy a developer a beer!
