                               Psi4 1.3.2 release

  ==> Input File <==

--------------------------------------------------------------------------
#psi4
#
memory 32 gb

molecule  {
0 1
  N        1.5275328     0.8879656    -0.5365407
  N       -0.8646290     2.1728000     0.5033790
  C       -0.6433280    -0.2041590    -0.0552500
  C        0.8343400    -0.1560850    -0.0228830
  C       -1.4414270     0.9434540     0.1762700
  C       -1.2729090    -1.4294320    -0.3272730
  C       -2.8381000     0.7953410     0.1919050
  C        1.5703020    -1.2114420     0.5410850
  C       -2.6593290    -1.5570310    -0.3269880
  C       -3.4429950    -0.4315550    -0.0645950
  C        2.9613910    -1.1706130     0.5101660
  C        3.5885550    -0.0650650    -0.0636080
  C        2.7882770     0.9583460    -0.5692770
  H       -0.6539860    -2.2940070    -0.5598860
  H       -3.4538380     1.6721500     0.3887520
  H        1.0497850    -2.0407580     1.0110860
  H       -3.1218920    -2.5149200    -0.5495680
  H       -4.5281350    -0.5063600    -0.0566640
  H        3.5458790    -1.9798730     0.9414670
  H        0.0235730     2.3183180     0.0298570
  H       -1.4980030     2.9543290     0.3690670
  H        4.6711930     0.0129590    -0.1060480
  H        3.2359550     1.8482630    -1.0089550
units angstrom
no_reorient  #important for SAPT in psi4, default
symmetry c1  #important for SAPT in psi4, default
}

set PROPERTIES_ORIGIN ["COM"]
properties('MP2/aug-cc-pvtz', properties = ['dipole'])
--------------------------------------------------------------------------

    Molecular point group: c1
  Charge       = 0
  Multiplicity = 1
  Basis Set: AUG-CC-PVTZ
    Blend: AUG-CC-PVTZ
  Basis Set: (AUG-CC-PVTZ AUX)
    Blend: AUG-CC-PVTZ-JKFIT

    Orbital Energies [Eh]
    ---------------------

    Doubly Occupied:

       1A    -15.556655     2A    -15.553975     3A    -11.289410
       4A    -11.282240     5A    -11.270508     6A    -11.258864
       7A    -11.240559     8A    -11.240287     9A    -11.239336
      10A    -11.238805    11A    -11.237137    12A    -11.225143
      13A    -11.222428    14A     -1.279710    15A     -1.217793
      16A     -1.130007    17A     -1.086978    18A     -1.065224
      19A     -0.999041    20A     -0.981671    21A     -0.877027
      22A     -0.858876    23A     -0.820053    24A     -0.804204
      25A     -0.721112    26A     -0.694662    27A     -0.686247
      28A     -0.663087    29A     -0.655900    30A     -0.628159
      31A     -0.598694    32A     -0.592853    33A     -0.587026
      34A     -0.574841    35A     -0.558032    36A     -0.537303
      37A     -0.525146    38A     -0.504729    39A     -0.494821
      40A     -0.446648    41A     -0.403928    42A     -0.389234
      43A     -0.372344    44A     -0.318401    45A     -0.286950

  @DF-RHF Final Energy:  -531.45002531425837

   => Energetics <=

    Nuclear Repulsion Energy =            715.6330131422215572
    One-Electron Energy =               -2139.7339745033482359
    Two-Electron Energy =                 892.6509360468684235
    Total Energy =                       -531.4500253142583688
  Basis Set: (AUG-CC-PVTZ AUX)
    Blend: AUG-CC-PVTZ-RI
    Molecular point group: c1

    Geometry (in Angstrom), charge = 0, multiplicity = 1:

       Center              X                  Y                   Z               Mass
    ------------   -----------------  -----------------  -----------------  -----------------
         N            1.516451020194     0.888040917136    -0.535793769620    14.003074004430
         N           -0.875710779806     2.172875317136     0.504125930380    14.003074004430
         C           -0.654409779806    -0.204083682864    -0.054503069620    12.000000000000
         C            0.823258220194    -0.156009682864    -0.022136069620    12.000000000000
         C           -1.452508779806     0.943529317136     0.177016930380    12.000000000000
         C           -1.283990779806    -1.429356682864    -0.326526069620    12.000000000000
         C           -2.849181779806     0.795416317136     0.192651930380    12.000000000000
         C            1.559220220194    -1.211366682864     0.541831930380    12.000000000000
         C           -2.670410779806    -1.556955682864    -0.326241069620    12.000000000000
         C           -3.454076779806    -0.431479682864    -0.063848069620    12.000000000000
         C            2.950309220194    -1.170537682864     0.510912930380    12.000000000000
         C            3.577473220194    -0.064989682864    -0.062861069620    12.000000000000
         C            2.777195220194     0.958421317136    -0.568530069620    12.000000000000
         H           -0.665067779806    -2.293931682864    -0.559139069620     1.007825032230
         H           -3.464919779806     1.672225317136     0.389498930380     1.007825032230
         H            1.038703220194    -2.040682682864     1.011832930380     1.007825032230
         H           -3.132973779806    -2.514844682864    -0.548821069620     1.007825032230
         H           -4.539216779806    -0.506284682864    -0.055917069620     1.007825032230
         H            3.534797220194    -1.979797682864     0.942213930380     1.007825032230
         H            0.012491220194     2.318393317136     0.030603930380     1.007825032230
         H           -1.509084779806     2.954404317136     0.369813930380     1.007825032230
         H            4.660111220194     0.013034317136    -0.105301069620     1.007825032230
         H            3.224873220194     1.848338317136    -1.008208069620     1.007825032230

  Basis Set: AUG-CC-PVTZ
    Blend: AUG-CC-PVTZ
  Basis Set: (AUG-CC-PVTZ AUX)
    Blend: AUG-CC-PVTZ-JKFIT
	 Reference Energy          =    -531.4500253142583688 [Eh]
	 Singles Energy            =      -0.0000000000000000 [Eh]
	 Same-Spin Energy          =      -0.5957122915461971 [Eh]
	 Opposite-Spin Energy      =      -1.8183060885515472 [Eh]
	 Correlation Energy        =      -2.4140183800977444 [Eh]
	 Total Energy              =    -533.8640436943561554 [Eh]

	 ================> DF-SCS-MP2 Energies <==================
	-----------------------------------------------------------
	 SCS Same-Spin Scale       =       0.3333333333333333 [-]
	 SCS Opposite-Spin Scale   =       1.2000000000000000 [-]
	 SCS Same-Spin Energy      =      -0.1985707638487323 [Eh]
	 SCS Opposite-Spin Energy  =      -2.1819673062618565 [Eh]
	 SCS Correlation Energy    =      -2.3805380701105889 [Eh]
	 SCS Total Energy          =    -533.8305633843689293 [Eh]
	-----------------------------------------------------------

  Dipole Moment: [D]
     X:     1.2630      Y:    -0.3200      Z:    -0.0347     Total:     1.3033

*** Psi4 exiting successfully. Buy a developer a beer!
