                               Psi4 1.4a3.dev225

  ==> Input File <==

--------------------------------------------------------------------------
#psi4
#
memory 32 gb

molecule  {
0 1
  N        1.4447430     0.9271060    -0.5600120
  N       -0.8646290     2.1728000     0.5033790
  C       -0.6433280    -0.2041590    -0.0552500
  C        0.8343400    -0.1560850    -0.0228830
  C       -1.4414270     0.9434540     0.1762700
  C       -1.2729090    -1.4294320    -0.3272730
  C       -2.8381000     0.7953410     0.1919050
  C        1.5703020    -1.2114420     0.5410850
  C       -2.6593290    -1.5570310    -0.3269880
  C       -3.4429950    -0.4315550    -0.0645950
  C        2.9613910    -1.1706130     0.5101660
  C        3.5885550    -0.0650650    -0.0636080
  C        2.7882770     0.9583460    -0.5692770
  H       -0.6539860    -2.2940070    -0.5598860
  H       -3.4538380     1.6721500     0.3887520
  H        1.0497850    -2.0407580     1.0110860
  H       -3.1218920    -2.5149200    -0.5495680
  H       -4.5281350    -0.5063600    -0.0566640
  H        3.5458790    -1.9798730     0.9414670
  H        0.0235730     2.3183180     0.0298570
  H       -1.4980030     2.9543290     0.3690670
  H        4.6711930     0.0129590    -0.1060480
  H        3.2565116     1.8891264    -1.0291442
units angstrom
no_reorient  #important for SAPT in psi4, default
symmetry c1  #important for SAPT in psi4, default
}

set PROPERTIES_ORIGIN ["COM"]
properties('MP2/aug-cc-pvtz', properties = ['dipole'])
--------------------------------------------------------------------------

    Molecular point group: c1
  Charge       = 0
  Multiplicity = 1
  Basis Set: AUG-CC-PVTZ
    Blend: AUG-CC-PVTZ
  Basis Set: (AUG-CC-PVTZ AUX)
    Blend: AUG-CC-PVTZ-JKFIT

    Orbital Energies [Eh]
    ---------------------

    Doubly Occupied:

       1A    -15.569365     2A    -15.551169     3A    -11.290511
       4A    -11.287106     5A    -11.281041     6A    -11.263845
       7A    -11.243223     8A    -11.242183     9A    -11.239327
      10A    -11.238322    11A    -11.234744    12A    -11.224075
      13A    -11.221347    14A     -1.262743    15A     -1.214105
      16A     -1.128023    17A     -1.089359    18A     -1.060862
      19A     -0.997517    20A     -0.980606    21A     -0.871641
      22A     -0.862387    23A     -0.816206    24A     -0.800490
      25A     -0.716888    26A     -0.690559    27A     -0.684865
      28A     -0.662249    29A     -0.653362    30A     -0.624248
      31A     -0.594095    32A     -0.592034    33A     -0.586241
      34A     -0.573996    35A     -0.550844    36A     -0.536129
      37A     -0.519759    38A     -0.501152    39A     -0.493348
      40A     -0.445352    41A     -0.420621    42A     -0.389327
      43A     -0.368879    44A     -0.319300    45A     -0.286791

  @DF-RHF Final Energy:  -531.45099959654021

   => Energetics <=

    Nuclear Repulsion Energy =            714.3764909406294237
    One-Electron Energy =               -2137.2945135583008778
    Two-Electron Energy =                 891.4670230211311264
    Total Energy =                       -531.4509995965402140
  Basis Set: (AUG-CC-PVTZ AUX)
    Blend: AUG-CC-PVTZ-RI
    Molecular point group: c1

    Geometry (in Angstrom), charge = 0, multiplicity = 1:

       Center              X                  Y                   Z               Mass
    ------------   -----------------  -----------------  -----------------  -----------------
         N            1.440355509919     0.923716748481    -0.557213044064    14.003074004430
         N           -0.869016490081     2.169410748481     0.506177955936    14.003074004430
         C           -0.647715490081    -0.207548251519    -0.052451044064    12.000000000000
         C            0.829952509919    -0.159474251519    -0.020084044064    12.000000000000
         C           -1.445814490081     0.940064748481     0.179068955936    12.000000000000
         C           -1.277296490081    -1.432821251519    -0.324474044064    12.000000000000
         C           -2.842487490081     0.791951748481     0.194703955936    12.000000000000
         C            1.565914509919    -1.214831251519     0.543883955936    12.000000000000
         C           -2.663716490081    -1.560420251519    -0.324189044064    12.000000000000
         C           -3.447382490081    -0.434944251519    -0.061796044064    12.000000000000
         C            2.957003509919    -1.174002251519     0.512964955936    12.000000000000
         C            3.584167509919    -0.068454251519    -0.060809044064    12.000000000000
         C            2.783889509919     0.954956748481    -0.566478044064    12.000000000000
         H           -0.658373490081    -2.297396251519    -0.557087044064     1.007825032230
         H           -3.458225490081     1.668760748481     0.391550955936     1.007825032230
         H            1.045397509919    -2.044147251519     1.013884955936     1.007825032230
         H           -3.126279490081    -2.518309251519    -0.546769044064     1.007825032230
         H           -4.532522490081    -0.509749251519    -0.053865044064     1.007825032230
         H            3.541491509919    -1.983262251519     0.944265955936     1.007825032230
         H            0.019185509919     2.314928748481     0.032655955936     1.007825032230
         H           -1.502390490081     2.950939748481     0.371865955936     1.007825032230
         H            4.666805509919     0.009569748481    -0.103249044064     1.007825032230
         H            3.252124109919     1.885737148481    -1.026345244064     1.007825032230

  Basis Set: AUG-CC-PVTZ
    Blend: AUG-CC-PVTZ
  Basis Set: (AUG-CC-PVTZ AUX)
    Blend: AUG-CC-PVTZ-JKFIT
	 Reference Energy          =    -531.4509995965402140 [Eh]
	 Singles Energy            =      -0.0000000000000000 [Eh]
	 Same-Spin Energy          =      -0.5966410314839085 [Eh]
	 Opposite-Spin Energy      =      -1.8212320622063749 [Eh]
	 Correlation Energy        =      -2.4178730936902832 [Eh]
	 Total Energy              =    -533.8688726902305461 [Eh]

	 ================> DF-SCS-MP2 Energies <==================
	-----------------------------------------------------------
	 SCS Same-Spin Scale       =       0.3333333333333333 [-]
	 SCS Opposite-Spin Scale   =       1.2000000000000000 [-]
	 SCS Same-Spin Energy      =      -0.1988803438279695 [Eh]
	 SCS Opposite-Spin Energy  =      -2.1854784746476499 [Eh]
	 SCS Correlation Energy    =      -2.3843588184756195 [Eh]
	 SCS Total Energy          =    -533.8353584150158895 [Eh]
	-----------------------------------------------------------

  Dipole Moment: [D]
     X:     1.5033      Y:    -0.4364      Z:     0.0224     Total:     1.5656

*** Psi4 exiting successfully. Buy a developer a beer!
