                               Psi4 1.4a3.dev225

  ==> Input File <==

--------------------------------------------------------------------------
#psi4
#
memory 32 gb

molecule  {
0 1
  N        1.4447430     0.9271060    -0.5600120
  N       -0.8646290     2.1728000     0.5033790
  C       -0.6433280    -0.2041590    -0.0552500
  C        0.8543246    -0.1554348    -0.0224453
  C       -1.4414270     0.9434540     0.1762700
  C       -1.2729090    -1.4294320    -0.3272730
  C       -2.8381000     0.7953410     0.1919050
  C        1.5703020    -1.2114420     0.5410850
  C       -2.6593290    -1.5570310    -0.3269880
  C       -3.4429950    -0.4315550    -0.0645950
  C        2.9613910    -1.1706130     0.5101660
  C        3.5885550    -0.0650650    -0.0636080
  C        2.7882770     0.9583460    -0.5692770
  H       -0.6539860    -2.2940070    -0.5598860
  H       -3.4538380     1.6721500     0.3887520
  H        1.0497850    -2.0407580     1.0110860
  H       -3.1218920    -2.5149200    -0.5495680
  H       -4.5281350    -0.5063600    -0.0566640
  H        3.5458790    -1.9798730     0.9414670
  H        0.0235730     2.3183180     0.0298570
  H       -1.4980030     2.9543290     0.3690670
  H        4.6711930     0.0129590    -0.1060480
  H        3.2359550     1.8482630    -1.0089550
units angstrom
no_reorient  #important for SAPT in psi4, default
symmetry c1  #important for SAPT in psi4, default
}

set PROPERTIES_ORIGIN ["COM"]
properties('MP2/aug-cc-pvtz', properties = ['dipole'])
--------------------------------------------------------------------------

    Molecular point group: c1
  Charge       = 0
  Multiplicity = 1
  Basis Set: AUG-CC-PVTZ
    Blend: AUG-CC-PVTZ
  Basis Set: (AUG-CC-PVTZ AUX)
    Blend: AUG-CC-PVTZ-JKFIT

    Orbital Energies [Eh]
    ---------------------

    Doubly Occupied:

       1A    -15.569156     2A    -15.550445     3A    -11.289287
       4A    -11.282106     5A    -11.279847     6A    -11.264203
       7A    -11.243265     8A    -11.241420     9A    -11.238211
      10A    -11.237199    11A    -11.234925    12A    -11.223301
      13A    -11.220571    14A     -1.265924    15A     -1.213524
      16A     -1.126729    17A     -1.090876    18A     -1.060172
      19A     -0.997743    20A     -0.979921    21A     -0.870245
      22A     -0.866020    23A     -0.816617    24A     -0.800531
      25A     -0.718697    26A     -0.690144    27A     -0.684317
      28A     -0.663023    29A     -0.654344    30A     -0.627451
      31A     -0.594958    32A     -0.591776    33A     -0.585660
      34A     -0.574164    35A     -0.552276    36A     -0.536241
      37A     -0.520081    38A     -0.500492    39A     -0.492331
      40A     -0.444528    41A     -0.422738    42A     -0.389861
      43A     -0.368430    44A     -0.319653    45A     -0.286644

  @DF-RHF Final Energy:  -531.45385858441432

   => Energetics <=

    Nuclear Repulsion Energy =            714.6373456353114761
    One-Electron Energy =               -2137.8223077409597863
    Two-Electron Energy =                 891.7311035212339903
    Total Energy =                       -531.4538585844143199
  Basis Set: (AUG-CC-PVTZ AUX)
    Blend: AUG-CC-PVTZ-RI
    Molecular point group: c1

    Geometry (in Angstrom), charge = 0, multiplicity = 1:

       Center              X                  Y                   Z               Mass
    ------------   -----------------  -----------------  -----------------  -----------------
         N            1.439067339187     0.923913008442    -0.557363555113    14.003074004430
         N           -0.870304660813     2.169607008442     0.506027444887    14.003074004430
         C           -0.649003660813    -0.207351991558    -0.052601555113    12.000000000000
         C            0.848648939187    -0.158627791558    -0.019796855113    12.000000000000
         C           -1.447102660813     0.940261008442     0.178918444887    12.000000000000
         C           -1.278584660813    -1.432624991558    -0.324624555113    12.000000000000
         C           -2.843775660813     0.792148008442     0.194553444887    12.000000000000
         C            1.564626339187    -1.214634991558     0.543733444887    12.000000000000
         C           -2.665004660813    -1.560223991558    -0.324339555113    12.000000000000
         C           -3.448670660813    -0.434747991558    -0.061946555113    12.000000000000
         C            2.955715339187    -1.173805991558     0.512814444887    12.000000000000
         C            3.582879339187    -0.068257991558    -0.060959555113    12.000000000000
         C            2.782601339187     0.955153008442    -0.566628555113    12.000000000000
         H           -0.659661660813    -2.297199991558    -0.557237555113     1.007825032230
         H           -3.459513660813     1.668957008442     0.391400444887     1.007825032230
         H            1.044109339187    -2.043950991558     1.013734444887     1.007825032230
         H           -3.127567660813    -2.518112991558    -0.546919555113     1.007825032230
         H           -4.533810660813    -0.509552991558    -0.054015555113     1.007825032230
         H            3.540203339187    -1.983065991558     0.944115444887     1.007825032230
         H            0.017897339187     2.315125008442     0.032505444887     1.007825032230
         H           -1.503678660813     2.951136008442     0.371715444887     1.007825032230
         H            4.665517339187     0.009766008442    -0.103399555113     1.007825032230
         H            3.230279339187     1.845070008442    -1.006306555113     1.007825032230

  Basis Set: AUG-CC-PVTZ
    Blend: AUG-CC-PVTZ
  Basis Set: (AUG-CC-PVTZ AUX)
    Blend: AUG-CC-PVTZ-JKFIT
	 Reference Energy          =    -531.4538585844143199 [Eh]
	 Singles Energy            =      -0.0000000000000000 [Eh]
	 Same-Spin Energy          =      -0.5961987058539859 [Eh]
	 Opposite-Spin Energy      =      -1.8202887073207350 [Eh]
	 Correlation Energy        =      -2.4164874131747212 [Eh]
	 Total Energy              =    -533.8703459975890837 [Eh]

	 ================> DF-SCS-MP2 Energies <==================
	-----------------------------------------------------------
	 SCS Same-Spin Scale       =       0.3333333333333333 [-]
	 SCS Opposite-Spin Scale   =       1.2000000000000000 [-]
	 SCS Same-Spin Energy      =      -0.1987329019513286 [Eh]
	 SCS Opposite-Spin Energy  =      -2.1843464487848818 [Eh]
	 SCS Correlation Energy    =      -2.3830793507362102 [Eh]
	 SCS Total Energy          =    -533.8369379351505586 [Eh]
	-----------------------------------------------------------

  Dipole Moment: [D]
     X:     1.6204      Y:    -0.4235      Z:     0.0139     Total:     1.6749

*** Psi4 exiting successfully. Buy a developer a beer!
