                               Psi4 1.3.2 release

  ==> Input File <==

--------------------------------------------------------------------------
#psi4
#
memory 32 gb

molecule  {
0 1
  N        1.5677211     0.8659500    -0.5248777
  N       -0.8646290     2.1728000     0.5033790
  C       -0.6433280    -0.2041590    -0.0552500
  C        0.8343400    -0.1560850    -0.0228830
  C       -1.4414270     0.9434540     0.1762700
  C       -1.2729090    -1.4294320    -0.3272730
  C       -2.8381000     0.7953410     0.1919050
  C        1.5703020    -1.2114420     0.5410850
  C       -2.6593290    -1.5570310    -0.3269880
  C       -3.4429950    -0.4315550    -0.0645950
  C        2.9613910    -1.1706130     0.5101660
  C        3.5885550    -0.0650650    -0.0636080
  C        2.7882770     0.9583460    -0.5692770
  H       -0.6539860    -2.2940070    -0.5598860
  H       -3.4538380     1.6721500     0.3887520
  H        1.0497850    -2.0407580     1.0110860
  H       -3.1218920    -2.5149200    -0.5495680
  H       -4.5281350    -0.5063600    -0.0566640
  H        3.5458790    -1.9798730     0.9414670
  H        0.0235730     2.3183180     0.0298570
  H       -1.4980030     2.9543290     0.3690670
  H        4.6711930     0.0129590    -0.1060480
  H        3.2359550     1.8482630    -1.0089550
units angstrom
no_reorient  #important for SAPT in psi4, default
symmetry c1  #important for SAPT in psi4, default
}

set PROPERTIES_ORIGIN ["COM"]
properties('MP2/aug-cc-pvtz', properties = ['dipole'])
--------------------------------------------------------------------------

    Molecular point group: c1
  Charge       = 0
  Multiplicity = 1
  Basis Set: AUG-CC-PVTZ
    Blend: AUG-CC-PVTZ
  Basis Set: (AUG-CC-PVTZ AUX)
    Blend: AUG-CC-PVTZ-JKFIT

    Orbital Energies [Eh]
    ---------------------

    Doubly Occupied:

       1A    -15.555474     2A    -15.550269     3A    -11.289338
       4A    -11.282876     5A    -11.264867     6A    -11.256465
       7A    -11.241210     8A    -11.239861     9A    -11.239593
      10A    -11.238445    11A    -11.236841    12A    -11.225740
      13A    -11.223020    14A     -1.289868    15A     -1.219418
      16A     -1.131070    17A     -1.087280    18A     -1.065808
      19A     -0.999729    20A     -0.982223    21A     -0.879420
      22A     -0.856173    23A     -0.821937    24A     -0.805420
      25A     -0.722644    26A     -0.697046    27A     -0.686986
      28A     -0.663085    29A     -0.656900    30A     -0.628620
      31A     -0.600169    32A     -0.593292    33A     -0.587456
      34A     -0.574932    35A     -0.562395    36A     -0.537361
      37A     -0.527450    38A     -0.506288    39A     -0.495369
      40A     -0.447473    41A     -0.394541    42A     -0.390363
      43A     -0.372820    44A     -0.318084    45A     -0.287031

  @DF-RHF Final Energy:  -531.44071648593467

   => Energetics <=

    Nuclear Repulsion Energy =            716.2037622406538731
    One-Electron Energy =               -2140.8236563499317526
    Two-Electron Energy =                 893.1791776233433211
    Total Energy =                       -531.4407164859346722
  Basis Set: (AUG-CC-PVTZ AUX)
    Blend: AUG-CC-PVTZ-RI
    Molecular point group: c1

    Geometry (in Angstrom), charge = 0, multiplicity = 1:

       Center              X                  Y                   Z               Mass
    ------------   -----------------  -----------------  -----------------  -----------------
         N            1.553330611432     0.867837864783    -0.525090986158    14.003074004430
         N           -0.879019488568     2.174687864783     0.503165713842    14.003074004430
         C           -0.657718488568    -0.202271135217    -0.055463286158    12.000000000000
         C            0.819949511432    -0.154197135217    -0.023096286158    12.000000000000
         C           -1.455817488568     0.945341864783     0.176056713842    12.000000000000
         C           -1.287299488568    -1.427544135217    -0.327486286158    12.000000000000
         C           -2.852490488568     0.797228864783     0.191691713842    12.000000000000
         C            1.555911511432    -1.209554135217     0.540871713842    12.000000000000
         C           -2.673719488568    -1.555143135217    -0.327201286158    12.000000000000
         C           -3.457385488568    -0.429667135217    -0.064808286158    12.000000000000
         C            2.947000511432    -1.168725135217     0.509952713842    12.000000000000
         C            3.574164511432    -0.063177135217    -0.063821286158    12.000000000000
         C            2.773886511432     0.960233864783    -0.569490286158    12.000000000000
         H           -0.668376488568    -2.292119135217    -0.560099286158     1.007825032230
         H           -3.468228488568     1.674037864783     0.388538713842     1.007825032230
         H            1.035394511432    -2.038870135217     1.010872713842     1.007825032230
         H           -3.136282488568    -2.513032135217    -0.549781286158     1.007825032230
         H           -4.542525488568    -0.504472135217    -0.056877286158     1.007825032230
         H            3.531488511432    -1.977985135217     0.941253713842     1.007825032230
         H            0.009182511432     2.320205864783     0.029643713842     1.007825032230
         H           -1.512393488568     2.956216864783     0.368853713842     1.007825032230
         H            4.656802511432     0.014846864783    -0.106261286158     1.007825032230
         H            3.221564511432     1.850150864783    -1.009168286158     1.007825032230

  Basis Set: AUG-CC-PVTZ
    Blend: AUG-CC-PVTZ
  Basis Set: (AUG-CC-PVTZ AUX)
    Blend: AUG-CC-PVTZ-JKFIT
	 Reference Energy          =    -531.4407164859346722 [Eh]
	 Singles Energy            =      -0.0000000000000000 [Eh]
	 Same-Spin Energy          =      -0.5954253180763702 [Eh]
	 Opposite-Spin Energy      =      -1.8175071919705927 [Eh]
	 Correlation Energy        =      -2.4129325100469630 [Eh]
	 Total Energy              =    -533.8536489959816436 [Eh]

	 ================> DF-SCS-MP2 Energies <==================
	-----------------------------------------------------------
	 SCS Same-Spin Scale       =       0.3333333333333333 [-]
	 SCS Opposite-Spin Scale   =       1.2000000000000000 [-]
	 SCS Same-Spin Energy      =      -0.1984751060254567 [Eh]
	 SCS Opposite-Spin Energy  =      -2.1810086303647114 [Eh]
	 SCS Correlation Energy    =      -2.3794837363901680 [Eh]
	 SCS Total Energy          =    -533.8202002223248428 [Eh]
	-----------------------------------------------------------

  Dipole Moment: [D]
     X:     1.1070      Y:    -0.2649      Z:    -0.0608     Total:     1.1399

*** Psi4 exiting successfully. Buy a developer a beer!
