                               Psi4 1.4a3.dev225

  ==> Input File <==

--------------------------------------------------------------------------
#psi4
#
memory 32 gb

molecule  {
0 1
  N        1.4447430     0.9271060    -0.5600120
  N       -0.8646290     2.1728000     0.5033790
  C       -0.6433280    -0.2041590    -0.0552500
  C        0.8343400    -0.1560850    -0.0228830
  C       -1.4414270     0.9434540     0.1762700
  C       -1.2729090    -1.4294320    -0.3272730
  C       -2.8381000     0.7953410     0.1919050
  C        1.5703020    -1.2114420     0.5410850
  C       -2.6593290    -1.5570310    -0.3269880
  C       -3.4429950    -0.4315550    -0.0645950
  C        2.9613910    -1.1706130     0.5101660
  C        3.5885550    -0.0650650    -0.0636080
  C        2.7882770     0.9583460    -0.5692770
  H       -0.6539860    -2.2940070    -0.5598860
  H       -3.4538380     1.6721500     0.3887520
  H        1.0497850    -2.0407580     1.0110860
  H       -3.1218920    -2.5149200    -0.5495680
  H       -4.5281350    -0.5063600    -0.0566640
  H        3.5458790    -1.9798730     0.9414670
  H        0.0235730     2.3183180     0.0298570
  H       -1.4980030     2.9543290     0.3690670
  H        4.6711930     0.0129590    -0.1060480
  H        3.2153984     1.8073996    -0.9887658
units angstrom
no_reorient  #important for SAPT in psi4, default
symmetry c1  #important for SAPT in psi4, default
}

set PROPERTIES_ORIGIN ["COM"]
properties('MP2/aug-cc-pvtz', properties = ['dipole'])
--------------------------------------------------------------------------

    Molecular point group: c1
  Charge       = 0
  Multiplicity = 1
  Basis Set: AUG-CC-PVTZ
    Blend: AUG-CC-PVTZ
  Basis Set: (AUG-CC-PVTZ AUX)
    Blend: AUG-CC-PVTZ-JKFIT

    Orbital Energies [Eh]
    ---------------------

    Doubly Occupied:

       1A    -15.568422     2A    -15.550962     3A    -11.289694
       4A    -11.280786     5A    -11.275530     6A    -11.263190
       7A    -11.242282     8A    -11.241879     9A    -11.239056
      10A    -11.238096    11A    -11.234429    12A    -11.223876
      13A    -11.221141    14A     -1.262434    15A     -1.213927
      16A     -1.127858    17A     -1.088707    18A     -1.062148
      19A     -0.998224    20A     -0.980785    21A     -0.871907
      22A     -0.867017    23A     -0.817912    24A     -0.800918
      25A     -0.721211    26A     -0.690836    27A     -0.685127
      28A     -0.664949    29A     -0.653283    30A     -0.630272
      31A     -0.597135    32A     -0.592396    33A     -0.586144
      34A     -0.574428    35A     -0.550612    36A     -0.537121
      37A     -0.520392    38A     -0.501726    39A     -0.494117
      40A     -0.445153    41A     -0.421171    42A     -0.388737
      43A     -0.368515    44A     -0.319017    45A     -0.286538

  @DF-RHF Final Energy:  -531.45277997628841

   => Energetics <=

    Nuclear Repulsion Energy =            714.9151796088917763
    One-Electron Energy =               -2138.3558008528466416
    Two-Electron Energy =                 891.9878412676664539
    Total Energy =                       -531.4527799762884115
  Basis Set: (AUG-CC-PVTZ AUX)
    Blend: AUG-CC-PVTZ-RI
    Molecular point group: c1

    Geometry (in Angstrom), charge = 0, multiplicity = 1:

       Center              X                  Y                   Z               Mass
    ------------   -----------------  -----------------  -----------------  -----------------
         N            1.440599123751     0.924201015795    -0.557452303883    14.003074004430
         N           -0.868772876249     2.169895015795     0.505938696117    14.003074004430
         C           -0.647471876249    -0.207063984205    -0.052690303883    12.000000000000
         C            0.830196123751    -0.158989984205    -0.020323303883    12.000000000000
         C           -1.445570876249     0.940549015795     0.178829696117    12.000000000000
         C           -1.277052876249    -1.432336984205    -0.324713303883    12.000000000000
         C           -2.842243876249     0.792436015795     0.194464696117    12.000000000000
         C            1.566158123751    -1.214346984205     0.543644696117    12.000000000000
         C           -2.663472876249    -1.559935984205    -0.324428303883    12.000000000000
         C           -3.447138876249    -0.434459984205    -0.062035303883    12.000000000000
         C            2.957247123751    -1.173517984205     0.512725696117    12.000000000000
         C            3.584411123751    -0.067969984205    -0.061048303883    12.000000000000
         C            2.784133123751     0.955441015795    -0.566717303883    12.000000000000
         H           -0.658129876249    -2.296911984205    -0.557326303883     1.007825032230
         H           -3.457981876249     1.669245015795     0.391311696117     1.007825032230
         H            1.045641123751    -2.043662984205     1.013645696117     1.007825032230
         H           -3.126035876249    -2.517824984205    -0.547008303883     1.007825032230
         H           -4.532278876249    -0.509264984205    -0.054104303883     1.007825032230
         H            3.541735123751    -1.982777984205     0.944026696117     1.007825032230
         H            0.019429123751     2.315413015795     0.032416696117     1.007825032230
         H           -1.502146876249     2.951424015795     0.371626696117     1.007825032230
         H            4.667049123751     0.010054015795    -0.103488303883     1.007825032230
         H            3.211254523751     1.804494615795    -0.986206103883     1.007825032230

  Basis Set: AUG-CC-PVTZ
    Blend: AUG-CC-PVTZ
  Basis Set: (AUG-CC-PVTZ AUX)
    Blend: AUG-CC-PVTZ-JKFIT
	 Reference Energy          =    -531.4527799762884115 [Eh]
	 Singles Energy            =      -0.0000000000000000 [Eh]
	 Same-Spin Energy          =      -0.5964040331450453 [Eh]
	 Opposite-Spin Energy      =      -1.8204241728030703 [Eh]
	 Correlation Energy        =      -2.4168282059481156 [Eh]
	 Total Energy              =    -533.8696081822365613 [Eh]

	 ================> DF-SCS-MP2 Energies <==================
	-----------------------------------------------------------
	 SCS Same-Spin Scale       =       0.3333333333333333 [-]
	 SCS Opposite-Spin Scale   =       1.2000000000000000 [-]
	 SCS Same-Spin Energy      =      -0.1988013443816818 [Eh]
	 SCS Opposite-Spin Energy  =      -2.1845090073636841 [Eh]
	 SCS Correlation Energy    =      -2.3833103517453660 [Eh]
	 SCS Total Energy          =    -533.8360903280338334 [Eh]
	-----------------------------------------------------------

  Dipole Moment: [D]
     X:     1.5462      Y:    -0.4088      Z:     0.0077     Total:     1.5993

*** Psi4 exiting successfully. Buy a developer a beer!
