                               Psi4 1.3.2 release

  ==> Input File <==

--------------------------------------------------------------------------
#psi4
#
memory 32 gb

molecule  {
0 1
  N        1.4447430     0.9271060    -0.5600120
  N       -0.8646290     2.1728000     0.5033790
  C       -0.7699952    -0.2806536    -0.0652231
  C        0.8343400    -0.1560850    -0.0228830
  C       -1.4414270     0.9434540     0.1762700
  C       -1.2729090    -1.4294320    -0.3272730
  C       -2.8381000     0.7953410     0.1919050
  C        1.5703020    -1.2114420     0.5410850
  C       -2.6593290    -1.5570310    -0.3269880
  C       -3.4429950    -0.4315550    -0.0645950
  C        2.9613910    -1.1706130     0.5101660
  C        3.5885550    -0.0650650    -0.0636080
  C        2.7882770     0.9583460    -0.5692770
  H       -0.6539860    -2.2940070    -0.5598860
  H       -3.4538380     1.6721500     0.3887520
  H        1.0497850    -2.0407580     1.0110860
  H       -3.1218920    -2.5149200    -0.5495680
  H       -4.5281350    -0.5063600    -0.0566640
  H        3.5458790    -1.9798730     0.9414670
  H        0.0235730     2.3183180     0.0298570
  H       -1.4980030     2.9543290     0.3690670
  H        4.6711930     0.0129590    -0.1060480
  H        3.2359550     1.8482630    -1.0089550
units angstrom
no_reorient  #important for SAPT in psi4, default
symmetry c1  #important for SAPT in psi4, default
}

set PROPERTIES_ORIGIN ["COM"]
properties('MP2/aug-cc-pvtz', properties = ['dipole'])
--------------------------------------------------------------------------

    Molecular point group: c1
  Charge       = 0
  Multiplicity = 1
  Basis Set: AUG-CC-PVTZ
    Blend: AUG-CC-PVTZ
  Basis Set: (AUG-CC-PVTZ AUX)
    Blend: AUG-CC-PVTZ-JKFIT

    Orbital Energies [Eh]
    ---------------------

    Doubly Occupied:

       1A    -15.570411     2A    -15.555256     3A    -11.294005
       4A    -11.281864     5A    -11.280095     6A    -11.263144
       7A    -11.242888     8A    -11.241045     9A    -11.234585
      10A    -11.233509    11A    -11.223350    12A    -11.221012
      13A    -11.219127    14A     -1.259690    15A     -1.215881
      16A     -1.143008    17A     -1.088446    18A     -1.052609
      19A     -1.008672    20A     -0.980366    21A     -0.863266
      22A     -0.859490    23A     -0.821816    24A     -0.803882
      25A     -0.718408    26A     -0.692096    27A     -0.684165
      28A     -0.658776    29A     -0.651457    30A     -0.627031
      31A     -0.606014    32A     -0.591750    33A     -0.587703
      34A     -0.569386    35A     -0.550034    36A     -0.537355
      37A     -0.524020    38A     -0.509361    39A     -0.473906
      40A     -0.450773    41A     -0.413467    42A     -0.387762
      43A     -0.367348    44A     -0.329537    45A     -0.286798

  @DF-RHF Final Energy:  -531.42842163245996

   => Energetics <=

    Nuclear Repulsion Energy =            714.5337985412879789
    One-Electron Energy =               -2137.5753100625843217
    Two-Electron Energy =                 891.6130898888363845
    Total Energy =                       -531.4284216324599583
  Basis Set: (AUG-CC-PVTZ AUX)
    Blend: AUG-CC-PVTZ-RI
    Molecular point group: c1

    Geometry (in Angstrom), charge = 0, multiplicity = 1:

       Center              X                  Y                   Z               Mass
    ------------   -----------------  -----------------  -----------------  -----------------
         N            1.449414094193     0.929355821593    -0.556629039771    14.003074004430
         N           -0.859957905807     2.175049821593     0.506761960229    14.003074004430
         C           -0.765324105807    -0.278403778407    -0.061840139771    12.000000000000
         C            0.839011094193    -0.153835178407    -0.019500039771    12.000000000000
         C           -1.436755905807     0.945703821593     0.179652960229    12.000000000000
         C           -1.268237905807    -1.427182178407    -0.323890039771    12.000000000000
         C           -2.833428905807     0.797590821593     0.195287960229    12.000000000000
         C            1.574973094193    -1.209192178407     0.544467960229    12.000000000000
         C           -2.654657905807    -1.554781178407    -0.323605039771    12.000000000000
         C           -3.438323905807    -0.429305178407    -0.061212039771    12.000000000000
         C            2.966062094193    -1.168363178407     0.513548960229    12.000000000000
         C            3.593226094193    -0.062815178407    -0.060225039771    12.000000000000
         C            2.792948094193     0.960595821593    -0.565894039771    12.000000000000
         H           -0.649314905807    -2.291757178407    -0.556503039771     1.007825032230
         H           -3.449166905807     1.674399821593     0.392134960229     1.007825032230
         H            1.054456094193    -2.038508178407     1.014468960229     1.007825032230
         H           -3.117220905807    -2.512670178407    -0.546185039771     1.007825032230
         H           -4.523463905807    -0.504110178407    -0.053281039771     1.007825032230
         H            3.550550094193    -1.977623178407     0.944849960229     1.007825032230
         H            0.028244094193     2.320567821593     0.033239960229     1.007825032230
         H           -1.493331905807     2.956578821593     0.372449960229     1.007825032230
         H            4.675864094193     0.015208821593    -0.102665039771     1.007825032230
         H            3.240626094193     1.850512821593    -1.005572039771     1.007825032230

  Basis Set: AUG-CC-PVTZ
    Blend: AUG-CC-PVTZ
  Basis Set: (AUG-CC-PVTZ AUX)
    Blend: AUG-CC-PVTZ-JKFIT
	 Reference Energy          =    -531.4284216324599583 [Eh]
	 Singles Energy            =      -0.0000000000000000 [Eh]
	 Same-Spin Energy          =      -0.5959527687163197 [Eh]
	 Opposite-Spin Energy      =      -1.8202539499655876 [Eh]
	 Correlation Energy        =      -2.4162067186819076 [Eh]
	 Total Energy              =    -533.8446283511418642 [Eh]

	 ================> DF-SCS-MP2 Energies <==================
	-----------------------------------------------------------
	 SCS Same-Spin Scale       =       0.3333333333333333 [-]
	 SCS Opposite-Spin Scale   =       1.2000000000000000 [-]
	 SCS Same-Spin Energy      =      -0.1986509229054399 [Eh]
	 SCS Opposite-Spin Energy  =      -2.1843047399587050 [Eh]
	 SCS Correlation Energy    =      -2.3829556628641448 [Eh]
	 SCS Total Energy          =    -533.8113772953240641 [Eh]
	-----------------------------------------------------------

  Dipole Moment: [D]
     X:     1.6276      Y:    -0.3965      Z:    -0.0019     Total:     1.6752

*** Psi4 exiting successfully. Buy a developer a beer!
