                               Psi4 1.3.2 release

  ==> Input File <==

--------------------------------------------------------------------------
#psi4
#
memory 32 gb

molecule  {
0 1
  N        1.4447430     0.9271060    -0.5600120
  N       -0.8646290     2.1728000     0.5033790
  C       -0.6433280    -0.2041590    -0.0552500
  C        0.8315644    -0.1056563    -0.0122250
  C       -1.4414270     0.9434540     0.1762700
  C       -1.2729090    -1.4294320    -0.3272730
  C       -2.8381000     0.7953410     0.1919050
  C        1.5703020    -1.2114420     0.5410850
  C       -2.6593290    -1.5570310    -0.3269880
  C       -3.4429950    -0.4315550    -0.0645950
  C        2.9613910    -1.1706130     0.5101660
  C        3.5885550    -0.0650650    -0.0636080
  C        2.7882770     0.9583460    -0.5692770
  H       -0.6539860    -2.2940070    -0.5598860
  H       -3.4538380     1.6721500     0.3887520
  H        1.0497850    -2.0407580     1.0110860
  H       -3.1218920    -2.5149200    -0.5495680
  H       -4.5281350    -0.5063600    -0.0566640
  H        3.5458790    -1.9798730     0.9414670
  H        0.0235730     2.3183180     0.0298570
  H       -1.4980030     2.9543290     0.3690670
  H        4.6711930     0.0129590    -0.1060480
  H        3.2359550     1.8482630    -1.0089550
units angstrom
no_reorient  #important for SAPT in psi4, default
symmetry c1  #important for SAPT in psi4, default
}

set PROPERTIES_ORIGIN ["COM"]
properties('MP2/aug-cc-pvtz', properties = ['dipole'])
--------------------------------------------------------------------------

    Molecular point group: c1
  Charge       = 0
  Multiplicity = 1
  Basis Set: AUG-CC-PVTZ
    Blend: AUG-CC-PVTZ
  Basis Set: (AUG-CC-PVTZ AUX)
    Blend: AUG-CC-PVTZ-JKFIT

    Orbital Energies [Eh]
    ---------------------

    Doubly Occupied:

       1A    -15.566797     2A    -15.551728     3A    -11.291428
       4A    -11.280831     5A    -11.280388     6A    -11.261855
       7A    -11.244765     8A    -11.242663     9A    -11.240343
      10A    -11.238538    11A    -11.234622    12A    -11.224003
      13A    -11.221906    14A     -1.270163    15A     -1.215013
      16A     -1.127996    17A     -1.089713    18A     -1.058807
      19A     -0.997451    20A     -0.980726    21A     -0.873842
      22A     -0.862122    23A     -0.818419    24A     -0.799965
      25A     -0.718678    26A     -0.692610    27A     -0.685003
      28A     -0.662447    29A     -0.655746    30A     -0.626277
      31A     -0.594970    32A     -0.590839    33A     -0.586519
      34A     -0.575396    35A     -0.552791    36A     -0.536866
      37A     -0.521449    38A     -0.504273    39A     -0.494144
      40A     -0.445671    41A     -0.416848    42A     -0.393193
      43A     -0.364374    44A     -0.318935    45A     -0.286964

  @DF-RHF Final Energy:  -531.45218222731603

   => Energetics <=

    Nuclear Repulsion Energy =            714.8182484341218696
    One-Electron Energy =               -2138.1447042223608150
    Two-Electron Energy =                 891.8742735609229157
    Total Energy =                       -531.4521822273160296
  Basis Set: (AUG-CC-PVTZ AUX)
    Blend: AUG-CC-PVTZ-RI
    Molecular point group: c1

    Geometry (in Angstrom), charge = 0, multiplicity = 1:

       Center              X                  Y                   Z               Mass
    ------------   -----------------  -----------------  -----------------  -----------------
         N            1.440673144320     0.920400975558    -0.558084630068    14.003074004430
         N           -0.868698855680     2.166094975558     0.505306369932    14.003074004430
         C           -0.647397855680    -0.210864024442    -0.053322630068    12.000000000000
         C            0.827494544320    -0.112361324442    -0.010297630068    12.000000000000
         C           -1.445496855680     0.936748975558     0.178197369932    12.000000000000
         C           -1.276978855680    -1.436137024442    -0.325345630068    12.000000000000
         C           -2.842169855680     0.788635975558     0.193832369932    12.000000000000
         C            1.566232144320    -1.218147024442     0.543012369932    12.000000000000
         C           -2.663398855680    -1.563736024442    -0.325060630068    12.000000000000
         C           -3.447064855680    -0.438260024442    -0.062667630068    12.000000000000
         C            2.957321144320    -1.177318024442     0.512093369932    12.000000000000
         C            3.584485144320    -0.071770024442    -0.061680630068    12.000000000000
         C            2.784207144320     0.951640975558    -0.567349630068    12.000000000000
         H           -0.658055855680    -2.300712024442    -0.557958630068     1.007825032230
         H           -3.457907855680     1.665444975558     0.390679369932     1.007825032230
         H            1.045715144320    -2.047463024442     1.013013369932     1.007825032230
         H           -3.125961855680    -2.521625024442    -0.547640630068     1.007825032230
         H           -4.532204855680    -0.513065024442    -0.054736630068     1.007825032230
         H            3.541809144320    -1.986578024442     0.943394369932     1.007825032230
         H            0.019503144320     2.311612975558     0.031784369932     1.007825032230
         H           -1.502072855680     2.947623975558     0.370994369932     1.007825032230
         H            4.667123144320     0.006253975558    -0.104120630068     1.007825032230
         H            3.231885144320     1.841557975558    -1.007027630068     1.007825032230

  Basis Set: AUG-CC-PVTZ
    Blend: AUG-CC-PVTZ
  Basis Set: (AUG-CC-PVTZ AUX)
    Blend: AUG-CC-PVTZ-JKFIT
	 Reference Energy          =    -531.4521822273160296 [Eh]
	 Singles Energy            =      -0.0000000000000000 [Eh]
	 Same-Spin Energy          =      -0.5962332864633011 [Eh]
	 Opposite-Spin Energy      =      -1.8202943136083072 [Eh]
	 Correlation Energy        =      -2.4165276000716083 [Eh]
	 Total Energy              =    -533.8687098273876472 [Eh]

	 ================> DF-SCS-MP2 Energies <==================
	-----------------------------------------------------------
	 SCS Same-Spin Scale       =       0.3333333333333333 [-]
	 SCS Opposite-Spin Scale   =       1.2000000000000000 [-]
	 SCS Same-Spin Energy      =      -0.1987444288211004 [Eh]
	 SCS Opposite-Spin Energy  =      -2.1843531763299686 [Eh]
	 SCS Correlation Energy    =      -2.3830976051510691 [Eh]
	 SCS Total Energy          =    -533.8352798324671085 [Eh]
	-----------------------------------------------------------

  Dipole Moment: [D]
     X:     1.4887      Y:    -0.4058      Z:     0.0093     Total:     1.5430

*** Psi4 exiting successfully. Buy a developer a beer!
