                               Psi4 1.3.2 release

  ==> Input File <==

--------------------------------------------------------------------------
#psi4
#
memory 32 gb

molecule  {
0 1
  N        1.4447430     0.9271060    -0.5600120
  N       -0.8646290     2.1728000     0.5033790
  C       -0.6433280    -0.2041590    -0.0552500
  C        0.8343400    -0.1560850    -0.0228830
  C       -1.4001321     1.0314670     0.1996888
  C       -1.2729090    -1.4294320    -0.3272730
  C       -2.8381000     0.7953410     0.1919050
  C        1.5703020    -1.2114420     0.5410850
  C       -2.6593290    -1.5570310    -0.3269880
  C       -3.4429950    -0.4315550    -0.0645950
  C        2.9613910    -1.1706130     0.5101660
  C        3.5885550    -0.0650650    -0.0636080
  C        2.7882770     0.9583460    -0.5692770
  H       -0.6539860    -2.2940070    -0.5598860
  H       -3.4538380     1.6721500     0.3887520
  H        1.0497850    -2.0407580     1.0110860
  H       -3.1218920    -2.5149200    -0.5495680
  H       -4.5281350    -0.5063600    -0.0566640
  H        3.5458790    -1.9798730     0.9414670
  H        0.0235730     2.3183180     0.0298570
  H       -1.4980030     2.9543290     0.3690670
  H        4.6711930     0.0129590    -0.1060480
  H        3.2359550     1.8482630    -1.0089550
units angstrom
no_reorient  #important for SAPT in psi4, default
symmetry c1  #important for SAPT in psi4, default
}

set PROPERTIES_ORIGIN ["COM"]
properties('MP2/aug-cc-pvtz', properties = ['dipole'])
--------------------------------------------------------------------------

    Molecular point group: c1
  Charge       = 0
  Multiplicity = 1
  Basis Set: AUG-CC-PVTZ
    Blend: AUG-CC-PVTZ
  Basis Set: (AUG-CC-PVTZ AUX)
    Blend: AUG-CC-PVTZ-JKFIT

    Orbital Energies [Eh]
    ---------------------

    Doubly Occupied:

       1A    -15.567738     2A    -15.565190     3A    -11.291348
       4A    -11.287179     5A    -11.280931     6A    -11.262243
       7A    -11.240830     8A    -11.239278     9A    -11.237323
      10A    -11.236434    11A    -11.233713    12A    -11.223808
      13A    -11.214390    14A     -1.269301    15A     -1.248716
      16A     -1.124027    17A     -1.087704    18A     -1.057410
      19A     -0.991887    20A     -0.971420    21A     -0.868582
      22A     -0.862524    23A     -0.815129    24A     -0.801177
      25A     -0.716880    26A     -0.702048    27A     -0.701819
      28A     -0.663242    29A     -0.657192    30A     -0.632871
      31A     -0.595726    32A     -0.585731    33A     -0.580686
      34A     -0.573560    35A     -0.550873    36A     -0.539332
      37A     -0.525796    38A     -0.504018    39A     -0.478793
      40A     -0.454412    41A     -0.419130    42A     -0.388282
      43A     -0.366697    44A     -0.316085    45A     -0.272855

  @DF-RHF Final Energy:  -531.43807189404436

   => Energetics <=

    Nuclear Repulsion Energy =            714.2807212202550318
    One-Electron Energy =               -2137.0289652229016610
    Two-Electron Energy =                 891.3101721086021598
    Total Energy =                       -531.4380718940443558
  Basis Set: (AUG-CC-PVTZ AUX)
    Blend: AUG-CC-PVTZ-RI
    Molecular point group: c1

    Geometry (in Angstrom), charge = 0, multiplicity = 1:

       Center              X                  Y                   Z               Mass
    ------------   -----------------  -----------------  -----------------  -----------------
         N            1.437563829150     0.917749282608    -0.558984945450    14.003074004430
         N           -0.871808170850     2.163443282608     0.504406054550    14.003074004430
         C           -0.650507170850    -0.213515717392    -0.054222945450    12.000000000000
         C            0.827160829150    -0.165441717392    -0.021855945450    12.000000000000
         C           -1.407311270850     1.022110282608     0.200715854550    12.000000000000
         C           -1.280088170850    -1.438788717392    -0.326245945450    12.000000000000
         C           -2.845279170850     0.785984282608     0.192932054550    12.000000000000
         C            1.563122829150    -1.220798717392     0.542112054550    12.000000000000
         C           -2.666508170850    -1.566387717392    -0.325960945450    12.000000000000
         C           -3.450174170850    -0.440911717392    -0.063567945450    12.000000000000
         C            2.954211829150    -1.179969717392     0.511193054550    12.000000000000
         C            3.581375829150    -0.074421717392    -0.062580945450    12.000000000000
         C            2.781097829150     0.948989282608    -0.568249945450    12.000000000000
         H           -0.661165170850    -2.303363717392    -0.558858945450     1.007825032230
         H           -3.461017170850     1.662793282608     0.389779054550     1.007825032230
         H            1.042605829150    -2.050114717392     1.012113054550     1.007825032230
         H           -3.129071170850    -2.524276717392    -0.548540945450     1.007825032230
         H           -4.535314170850    -0.515716717392    -0.055636945450     1.007825032230
         H            3.538699829150    -1.989229717392     0.942494054550     1.007825032230
         H            0.016393829150     2.308961282608     0.030884054550     1.007825032230
         H           -1.505182170850     2.944972282608     0.370094054550     1.007825032230
         H            4.664013829150     0.003602282608    -0.105020945450     1.007825032230
         H            3.228775829150     1.838906282608    -1.007927945450     1.007825032230

  Basis Set: AUG-CC-PVTZ
    Blend: AUG-CC-PVTZ
  Basis Set: (AUG-CC-PVTZ AUX)
    Blend: AUG-CC-PVTZ-JKFIT
	 Reference Energy          =    -531.4380718940443558 [Eh]
	 Singles Energy            =      -0.0000000000000000 [Eh]
	 Same-Spin Energy          =      -0.5974372403256148 [Eh]
	 Opposite-Spin Energy      =      -1.8216559912502575 [Eh]
	 Correlation Energy        =      -2.4190932315758724 [Eh]
	 Total Energy              =    -533.8571651256202131 [Eh]

	 ================> DF-SCS-MP2 Energies <==================
	-----------------------------------------------------------
	 SCS Same-Spin Scale       =       0.3333333333333333 [-]
	 SCS Opposite-Spin Scale   =       1.2000000000000000 [-]
	 SCS Same-Spin Energy      =      -0.1991457467752049 [Eh]
	 SCS Opposite-Spin Energy  =      -2.1859871895003087 [Eh]
	 SCS Correlation Energy    =      -2.3851329362755136 [Eh]
	 SCS Total Energy          =    -533.8232048303199235 [Eh]
	-----------------------------------------------------------

  Dipole Moment: [D]
     X:     1.7043      Y:     0.1957      Z:     0.1787     Total:     1.7248

*** Psi4 exiting successfully. Buy a developer a beer!
