                               Psi4 1.3.2 release

  ==> Input File <==

--------------------------------------------------------------------------
#psi4
#
memory 32 gb

molecule  {
0 1
  N        1.4447430     0.9271060    -0.5600120
  N       -0.8425365     2.1631683     0.4997124
  C       -0.6433280    -0.2041590    -0.0552500
  C        0.8343400    -0.1560850    -0.0228830
  C       -1.4414270     0.9434540     0.1762700
  C       -1.2729090    -1.4294320    -0.3272730
  C       -2.8381000     0.7953410     0.1919050
  C        1.5703020    -1.2114420     0.5410850
  C       -2.6593290    -1.5570310    -0.3269880
  C       -3.4429950    -0.4315550    -0.0645950
  C        2.9613910    -1.1706130     0.5101660
  C        3.5885550    -0.0650650    -0.0636080
  C        2.7882770     0.9583460    -0.5692770
  H       -0.6539860    -2.2940070    -0.5598860
  H       -3.4538380     1.6721500     0.3887520
  H        1.0497850    -2.0407580     1.0110860
  H       -3.1218920    -2.5149200    -0.5495680
  H       -4.5281350    -0.5063600    -0.0566640
  H        3.5458790    -1.9798730     0.9414670
  H        0.0235730     2.3183180     0.0298570
  H       -1.4980030     2.9543290     0.3690670
  H        4.6711930     0.0129590    -0.1060480
  H        3.2359550     1.8482630    -1.0089550
units angstrom
no_reorient  #important for SAPT in psi4, default
symmetry c1  #important for SAPT in psi4, default
}

set PROPERTIES_ORIGIN ["COM"]
properties('MP2/aug-cc-pvtz', properties = ['dipole'])
--------------------------------------------------------------------------

    Molecular point group: c1
  Charge       = 0
  Multiplicity = 1
  Basis Set: AUG-CC-PVTZ
    Blend: AUG-CC-PVTZ
  Basis Set: (AUG-CC-PVTZ AUX)
    Blend: AUG-CC-PVTZ-JKFIT

    Orbital Energies [Eh]
    ---------------------

    Doubly Occupied:

       1A    -15.568490     2A    -15.551575     3A    -11.289829
       4A    -11.281158     5A    -11.280970     6A    -11.263293
       7A    -11.242575     8A    -11.241901     9A    -11.239047
      10A    -11.238502    11A    -11.234207    12A    -11.224601
      13A    -11.221367    14A     -1.262447    15A     -1.214025
      16A     -1.127969    17A     -1.088795    18A     -1.061307
      19A     -0.997990    20A     -0.980729    21A     -0.871700
      22A     -0.864213    23A     -0.816492    24A     -0.801233
      25A     -0.718823    26A     -0.692952    27A     -0.682211
      28A     -0.662642    29A     -0.654458    30A     -0.627035
      31A     -0.596983    32A     -0.591796    33A     -0.584622
      34A     -0.574339    35A     -0.550662    36A     -0.536763
      37A     -0.520010    38A     -0.501671    39A     -0.493584
      40A     -0.445446    41A     -0.420833    42A     -0.388762
      43A     -0.368529    44A     -0.319258    45A     -0.286876

  @DF-RHF Final Energy:  -531.45255446376507

   => Energetics <=

    Nuclear Repulsion Energy =            714.8699181342782367
    One-Electron Energy =               -2138.2796118106011818
    Two-Electron Energy =                 891.9571392125579905
    Total Energy =                       -531.4525544637650682
  Basis Set: (AUG-CC-PVTZ AUX)
    Blend: AUG-CC-PVTZ-RI
    Molecular point group: c1

    Geometry (in Angstrom), charge = 0, multiplicity = 1:

       Center              X                  Y                   Z               Mass
    ------------   -----------------  -----------------  -----------------  -----------------
         N            1.438658437999     0.924751861443    -0.557030802246    14.003074004430
         N           -0.848621062001     2.160814161443     0.502693597754    14.003074004430
         C           -0.649412562001    -0.206513138557    -0.052268802246    12.000000000000
         C            0.828255437999    -0.158439138557    -0.019901802246    12.000000000000
         C           -1.447511562001     0.941099861443     0.179251197754    12.000000000000
         C           -1.278993562001    -1.431786138557    -0.324291802246    12.000000000000
         C           -2.844184562001     0.792986861443     0.194886197754    12.000000000000
         C            1.564217437999    -1.213796138557     0.544066197754    12.000000000000
         C           -2.665413562001    -1.559385138557    -0.324006802246    12.000000000000
         C           -3.449079562001    -0.433909138557    -0.061613802246    12.000000000000
         C            2.955306437999    -1.172967138557     0.513147197754    12.000000000000
         C            3.582470437999    -0.067419138557    -0.060626802246    12.000000000000
         C            2.782192437999     0.955991861443    -0.566295802246    12.000000000000
         H           -0.660070562001    -2.296361138557    -0.556904802246     1.007825032230
         H           -3.459922562001     1.669795861443     0.391733197754     1.007825032230
         H            1.043700437999    -2.043112138557     1.014067197754     1.007825032230
         H           -3.127976562001    -2.517274138557    -0.546586802246     1.007825032230
         H           -4.534219562001    -0.508714138557    -0.053682802246     1.007825032230
         H            3.539794437999    -1.982227138557     0.944448197754     1.007825032230
         H            0.017488437999     2.315963861443     0.032838197754     1.007825032230
         H           -1.504087562001     2.951974861443     0.372048197754     1.007825032230
         H            4.665108437999     0.010604861443    -0.103066802246     1.007825032230
         H            3.229870437999     1.845908861443    -1.005973802246     1.007825032230

  Basis Set: AUG-CC-PVTZ
    Blend: AUG-CC-PVTZ
  Basis Set: (AUG-CC-PVTZ AUX)
    Blend: AUG-CC-PVTZ-JKFIT
	 Reference Energy          =    -531.4525544637650682 [Eh]
	 Singles Energy            =      -0.0000000000000000 [Eh]
	 Same-Spin Energy          =      -0.5965371531258599 [Eh]
	 Opposite-Spin Energy      =      -1.8208764875759669 [Eh]
	 Correlation Energy        =      -2.4174136407018265 [Eh]
	 Total Energy              =    -533.8699681044669205 [Eh]

	 ================> DF-SCS-MP2 Energies <==================
	-----------------------------------------------------------
	 SCS Same-Spin Scale       =       0.3333333333333333 [-]
	 SCS Opposite-Spin Scale   =       1.2000000000000000 [-]
	 SCS Same-Spin Energy      =      -0.1988457177086199 [Eh]
	 SCS Opposite-Spin Energy  =      -2.1850517850911602 [Eh]
	 SCS Correlation Energy    =      -2.3838975027997802 [Eh]
	 SCS Total Energy          =    -533.8364519665648231 [Eh]
	-----------------------------------------------------------

  Dipole Moment: [D]
     X:     1.4941      Y:    -0.4130      Z:     0.0183     Total:     1.5502

*** Psi4 exiting successfully. Buy a developer a beer!
