                               Psi4 1.3.2 release

  ==> Input File <==

--------------------------------------------------------------------------
#psi4
#
memory 32 gb

molecule  {
0 1
  N        1.4447430     0.9271060    -0.5600120
  N       -0.8646290     2.1728000     0.5033790
  C       -0.6322854    -0.3416615     0.0149698
  C        0.8343400    -0.1560850    -0.0228830
  C       -1.4414270     0.9434540     0.1762700
  C       -1.2729090    -1.4294320    -0.3272730
  C       -2.8381000     0.7953410     0.1919050
  C        1.5703020    -1.2114420     0.5410850
  C       -2.6593290    -1.5570310    -0.3269880
  C       -3.4429950    -0.4315550    -0.0645950
  C        2.9613910    -1.1706130     0.5101660
  C        3.5885550    -0.0650650    -0.0636080
  C        2.7882770     0.9583460    -0.5692770
  H       -0.6539860    -2.2940070    -0.5598860
  H       -3.4538380     1.6721500     0.3887520
  H        1.0497850    -2.0407580     1.0110860
  H       -3.1218920    -2.5149200    -0.5495680
  H       -4.5281350    -0.5063600    -0.0566640
  H        3.5458790    -1.9798730     0.9414670
  H        0.0235730     2.3183180     0.0298570
  H       -1.4980030     2.9543290     0.3690670
  H        4.6711930     0.0129590    -0.1060480
  H        3.2359550     1.8482630    -1.0089550
units angstrom
no_reorient  #important for SAPT in psi4, default
symmetry c1  #important for SAPT in psi4, default
}

set PROPERTIES_ORIGIN ["COM"]
properties('MP2/aug-cc-pvtz', properties = ['dipole'])
--------------------------------------------------------------------------

    Molecular point group: c1
  Charge       = 0
  Multiplicity = 1
  Basis Set: AUG-CC-PVTZ
    Blend: AUG-CC-PVTZ
  Basis Set: (AUG-CC-PVTZ AUX)
    Blend: AUG-CC-PVTZ-JKFIT

    Orbital Energies [Eh]
    ---------------------

    Doubly Occupied:

       1A    -15.572259     2A    -15.556433     3A    -11.291225
       4A    -11.291104     5A    -11.283515     6A    -11.262912
       7A    -11.243446     8A    -11.240028     9A    -11.237715
      10A    -11.237298    11A    -11.228885    12A    -11.218581
      13A    -11.217507    14A     -1.263003    15A     -1.212377
      16A     -1.135695    17A     -1.089134    18A     -1.064376
      19A     -1.006773    20A     -0.970863    21A     -0.871571
      22A     -0.864686    23A     -0.811836    24A     -0.802117
      25A     -0.719915    26A     -0.693804    27A     -0.684044
      28A     -0.662397    29A     -0.658753    30A     -0.625255
      31A     -0.598021    32A     -0.593249    33A     -0.583751
      34A     -0.572873    35A     -0.550747    36A     -0.536341
      37A     -0.522141    38A     -0.507470    39A     -0.477350
      40A     -0.450939    41A     -0.418300    42A     -0.389864
      43A     -0.373465    44A     -0.325474    45A     -0.278264

  @DF-RHF Final Energy:  -531.43201385926238

   => Energetics <=

    Nuclear Repulsion Energy =            714.2445964882655289
    One-Electron Energy =               -2136.9617048387563045
    Two-Electron Energy =                 891.2850944912285058
    Total Energy =                       -531.4320138592623834
  Basis Set: (AUG-CC-PVTZ AUX)
    Blend: AUG-CC-PVTZ-RI
    Molecular point group: c1

    Geometry (in Angstrom), charge = 0, multiplicity = 1:

       Center              X                  Y                   Z               Mass
    ------------   -----------------  -----------------  -----------------  -----------------
         N            1.439698225976     0.933660124675    -0.562286906156    14.003074004430
         N           -0.869673774024     2.179354124675     0.501104093844    14.003074004430
         C           -0.637330174024    -0.335107375325     0.012694893844    12.000000000000
         C            0.829295225976    -0.149530875325    -0.025157906156    12.000000000000
         C           -1.446471774024     0.950008124675     0.173995093844    12.000000000000
         C           -1.277953774024    -1.422877875325    -0.329547906156    12.000000000000
         C           -2.843144774024     0.801895124675     0.189630093844    12.000000000000
         C            1.565257225976    -1.204887875325     0.538810093844    12.000000000000
         C           -2.664373774024    -1.550476875325    -0.329262906156    12.000000000000
         C           -3.448039774024    -0.425000875325    -0.066869906156    12.000000000000
         C            2.956346225976    -1.164058875325     0.507891093844    12.000000000000
         C            3.583510225976    -0.058510875325    -0.065882906156    12.000000000000
         C            2.783232225976     0.964900124675    -0.571551906156    12.000000000000
         H           -0.659030774024    -2.287452875325    -0.562160906156     1.007825032230
         H           -3.458882774024     1.678704124675     0.386477093844     1.007825032230
         H            1.044740225976    -2.034203875325     1.008811093844     1.007825032230
         H           -3.126936774024    -2.508365875325    -0.551842906156     1.007825032230
         H           -4.533179774024    -0.499805875325    -0.058938906156     1.007825032230
         H            3.540834225976    -1.973318875325     0.939192093844     1.007825032230
         H            0.018528225976     2.324872124675     0.027582093844     1.007825032230
         H           -1.503047774024     2.960883124675     0.366792093844     1.007825032230
         H            4.666148225976     0.019513124675    -0.108322906156     1.007825032230
         H            3.230910225976     1.854817124675    -1.011229906156     1.007825032230

  Basis Set: AUG-CC-PVTZ
    Blend: AUG-CC-PVTZ
  Basis Set: (AUG-CC-PVTZ AUX)
    Blend: AUG-CC-PVTZ-JKFIT
	 Reference Energy          =    -531.4320138592623834 [Eh]
	 Singles Energy            =      -0.0000000000000000 [Eh]
	 Same-Spin Energy          =      -0.5964059294421709 [Eh]
	 Opposite-Spin Energy      =      -1.8214390322755798 [Eh]
	 Correlation Energy        =      -2.4178449617177504 [Eh]
	 Total Energy              =    -533.8498588209801028 [Eh]

	 ================> DF-SCS-MP2 Energies <==================
	-----------------------------------------------------------
	 SCS Same-Spin Scale       =       0.3333333333333333 [-]
	 SCS Opposite-Spin Scale   =       1.2000000000000000 [-]
	 SCS Same-Spin Energy      =      -0.1988019764807236 [Eh]
	 SCS Opposite-Spin Energy  =      -2.1857268387306958 [Eh]
	 SCS Correlation Energy    =      -2.3845288152114197 [Eh]
	 SCS Total Energy          =    -533.8165426744737942 [Eh]
	-----------------------------------------------------------

  Dipole Moment: [D]
     X:     1.6422      Y:    -0.3058      Z:     0.0182     Total:     1.6705

*** Psi4 exiting successfully. Buy a developer a beer!
