                               Psi4 1.3.2 release

  ==> Input File <==

--------------------------------------------------------------------------
#psi4
#
memory 32 gb

molecule  {
0 1
  N        1.4447430     0.9271060    -0.5600120
  N       -0.8646290     2.1728000     0.5033790
  C       -0.6433280    -0.2041590    -0.0552500
  C        0.8343400    -0.1560850    -0.0228830
  C       -1.4414270     0.9434540     0.1762700
  C       -1.2729090    -1.4294320    -0.3272730
  C       -2.8381000     0.7953410     0.1919050
  C        1.5703020    -1.2114420     0.5410850
  C       -2.6593290    -1.5570310    -0.3269880
  C       -3.4429950    -0.4315550    -0.0645950
  C        2.9613910    -1.1706130     0.5101660
  C        3.5885550    -0.0650650    -0.0636080
  C        2.5883358     0.9536969    -0.5678982
  H       -0.6539860    -2.2940070    -0.5598860
  H       -3.4538380     1.6721500     0.3887520
  H        1.0497850    -2.0407580     1.0110860
  H       -3.1218920    -2.5149200    -0.5495680
  H       -4.5281350    -0.5063600    -0.0566640
  H        3.5458790    -1.9798730     0.9414670
  H        0.0235730     2.3183180     0.0298570
  H       -1.4980030     2.9543290     0.3690670
  H        4.6711930     0.0129590    -0.1060480
  H        3.2359550     1.8482630    -1.0089550
units angstrom
no_reorient  #important for SAPT in psi4, default
symmetry c1  #important for SAPT in psi4, default
}

set PROPERTIES_ORIGIN ["COM"]
properties('MP2/aug-cc-pvtz', properties = ['dipole'])
--------------------------------------------------------------------------

    Molecular point group: c1
  Charge       = 0
  Multiplicity = 1
  Basis Set: AUG-CC-PVTZ
    Blend: AUG-CC-PVTZ
  Basis Set: (AUG-CC-PVTZ AUX)
    Blend: AUG-CC-PVTZ-JKFIT

    Orbital Energies [Eh]
    ---------------------

    Doubly Occupied:

       1A    -15.556913     2A    -15.554420     3A    -11.291055
       4A    -11.281727     5A    -11.281697     6A    -11.258265
       7A    -11.248758     8A    -11.241048     9A    -11.239021
      10A    -11.238568    11A    -11.235605    12A    -11.225020
      13A    -11.221893    14A     -1.332096    15A     -1.219524
      16A     -1.131051    17A     -1.099831    18A     -1.057911
      19A     -0.993843    20A     -0.975171    21A     -0.888053
      22A     -0.845311    23A     -0.819462    24A     -0.804960
      25A     -0.719335    26A     -0.697187    27A     -0.686004
      28A     -0.670750    29A     -0.655054    30A     -0.620471
      31A     -0.598069    32A     -0.588561    33A     -0.582230
      34A     -0.580948    35A     -0.577367    36A     -0.542118
      37A     -0.527210    38A     -0.503501    39A     -0.489527
      40A     -0.446863    41A     -0.412473    42A     -0.397166
      43A     -0.367113    44A     -0.313991    45A     -0.283410

  @DF-RHF Final Energy:  -531.39702972673319

   => Energetics <=

    Nuclear Repulsion Energy =            718.2919065036259099
    One-Electron Energy =               -2144.7767590445578207
    Two-Electron Energy =                 895.0878228141988302
    Total Energy =                       -531.3970297267331944
  Basis Set: (AUG-CC-PVTZ AUX)
    Blend: AUG-CC-PVTZ-RI
    Molecular point group: c1

    Geometry (in Angstrom), charge = 0, multiplicity = 1:

       Center              X                  Y                   Z               Mass
    ------------   -----------------  -----------------  -----------------  -----------------
         N            1.454583809985     0.924286891059    -0.557429952737    14.003074004430
         N           -0.854788190015     2.169980891059     0.505961047263    14.003074004430
         C           -0.633487190015    -0.206978108941    -0.052667952737    12.000000000000
         C            0.844180809985    -0.158904108941    -0.020300952737    12.000000000000
         C           -1.431586190015     0.940634891059     0.178852047263    12.000000000000
         C           -1.263068190015    -1.432251108941    -0.324690952737    12.000000000000
         C           -2.828259190015     0.792521891059     0.194487047263    12.000000000000
         C            1.580142809985    -1.214261108941     0.543667047263    12.000000000000
         C           -2.649488190015    -1.559850108941    -0.324405952737    12.000000000000
         C           -3.433154190015    -0.434374108941    -0.062012952737    12.000000000000
         C            2.971231809985    -1.173432108941     0.512748047263    12.000000000000
         C            3.598395809985    -0.067884108941    -0.061025952737    12.000000000000
         C            2.598176609985     0.950877791059    -0.565316152737    12.000000000000
         H           -0.644145190015    -2.296826108941    -0.557303952737     1.007825032230
         H           -3.443997190015     1.669330891059     0.391334047263     1.007825032230
         H            1.059625809985    -2.043577108941     1.013668047263     1.007825032230
         H           -3.112051190015    -2.517739108941    -0.546985952737     1.007825032230
         H           -4.518294190015    -0.509179108941    -0.054081952737     1.007825032230
         H            3.555719809985    -1.982692108941     0.944049047263     1.007825032230
         H            0.033413809985     2.315498891059     0.032439047263     1.007825032230
         H           -1.488162190015     2.951509891059     0.371649047263     1.007825032230
         H            4.681033809985     0.010139891059    -0.103465952737     1.007825032230
         H            3.245795809985     1.845443891059    -1.006372952737     1.007825032230

  Basis Set: AUG-CC-PVTZ
    Blend: AUG-CC-PVTZ
  Basis Set: (AUG-CC-PVTZ AUX)
    Blend: AUG-CC-PVTZ-JKFIT
	 Reference Energy          =    -531.3970297267331944 [Eh]
	 Singles Energy            =      -0.0000000000000000 [Eh]
	 Same-Spin Energy          =      -0.5944101759235526 [Eh]
	 Opposite-Spin Energy      =      -1.8187441932021022 [Eh]
	 Correlation Energy        =      -2.4131543691256550 [Eh]
	 Total Energy              =    -533.8101840958588582 [Eh]

	 ================> DF-SCS-MP2 Energies <==================
	-----------------------------------------------------------
	 SCS Same-Spin Scale       =       0.3333333333333333 [-]
	 SCS Opposite-Spin Scale   =       1.2000000000000000 [-]
	 SCS Same-Spin Energy      =      -0.1981367253078509 [Eh]
	 SCS Opposite-Spin Energy  =      -2.1824930318425224 [Eh]
	 SCS Correlation Energy    =      -2.3806297571503734 [Eh]
	 SCS Total Energy          =    -533.7776594838835535 [Eh]
	-----------------------------------------------------------

  Dipole Moment: [D]
     X:     1.2498      Y:    -0.4256      Z:     0.0077     Total:     1.3203

*** Psi4 exiting successfully. Buy a developer a beer!
