                               Psi4 1.3.2 release

  ==> Input File <==

--------------------------------------------------------------------------
#psi4
#
memory 32 gb

molecule  {
0 1
  N        1.4447430     0.9271060    -0.5600120
  N       -0.8646290     2.1728000     0.5033790
  C       -0.6433280    -0.2041590    -0.0552500
  C        0.8343400    -0.1560850    -0.0228830
  C       -1.3147040     1.0183467     0.1943760
  C       -1.2729090    -1.4294320    -0.3272730
  C       -2.8381000     0.7953410     0.1919050
  C        1.5703020    -1.2114420     0.5410850
  C       -2.6593290    -1.5570310    -0.3269880
  C       -3.4429950    -0.4315550    -0.0645950
  C        2.9613910    -1.1706130     0.5101660
  C        3.5885550    -0.0650650    -0.0636080
  C        2.7882770     0.9583460    -0.5692770
  H       -0.6539860    -2.2940070    -0.5598860
  H       -3.4538380     1.6721500     0.3887520
  H        1.0497850    -2.0407580     1.0110860
  H       -3.1218920    -2.5149200    -0.5495680
  H       -4.5281350    -0.5063600    -0.0566640
  H        3.5458790    -1.9798730     0.9414670
  H        0.0235730     2.3183180     0.0298570
  H       -1.4980030     2.9543290     0.3690670
  H        4.6711930     0.0129590    -0.1060480
  H        3.2359550     1.8482630    -1.0089550
units angstrom
no_reorient  #important for SAPT in psi4, default
symmetry c1  #important for SAPT in psi4, default
}

set PROPERTIES_ORIGIN ["COM"]
properties('MP2/aug-cc-pvtz', properties = ['dipole'])
--------------------------------------------------------------------------

    Molecular point group: c1
  Charge       = 0
  Multiplicity = 1
  Basis Set: AUG-CC-PVTZ
    Blend: AUG-CC-PVTZ
  Basis Set: (AUG-CC-PVTZ AUX)
    Blend: AUG-CC-PVTZ-JKFIT

    Orbital Energies [Eh]
    ---------------------

    Doubly Occupied:

       1A    -15.568750     2A    -15.566995     3A    -11.293774
       4A    -11.285241     5A    -11.280600     6A    -11.261638
       7A    -11.239837     8A    -11.237825     9A    -11.237394
      10A    -11.234497    11A    -11.230154    12A    -11.227366
      13A    -11.213575    14A     -1.276559    15A     -1.251754
      16A     -1.123916    17A     -1.087035    18A     -1.056910
      19A     -0.989631    20A     -0.969731    21A     -0.865935
      22A     -0.861980    23A     -0.821690    24A     -0.797102
      25A     -0.719553    26A     -0.707345    27A     -0.701423
      28A     -0.663592    29A     -0.656807    30A     -0.636049
      31A     -0.596288    32A     -0.588634    33A     -0.574961
      34A     -0.573187    35A     -0.549964    36A     -0.539646
      37A     -0.525604    38A     -0.505959    39A     -0.472997
      40A     -0.454145    41A     -0.416943    42A     -0.387858
      43A     -0.366731    44A     -0.314773    45A     -0.271047

  @DF-RHF Final Energy:  -531.42405270954464

   => Energetics <=

    Nuclear Repulsion Energy =            714.9521738122678016
    One-Electron Energy =               -2138.3456662683024661
    Two-Electron Energy =                 891.9694397464900248
    Total Energy =                       -531.4240527095446396
  Basis Set: (AUG-CC-PVTZ AUX)
    Blend: AUG-CC-PVTZ-RI
    Molecular point group: c1

    Geometry (in Angstrom), charge = 0, multiplicity = 1:

       Center              X                  Y                   Z               Mass
    ------------   -----------------  -----------------  -----------------  -----------------
         N            1.431536602608     0.918674961868    -0.558610110364    14.003074004430
         N           -0.877835397392     2.164368961868     0.504780889636    14.003074004430
         C           -0.656534397392    -0.212590038132    -0.053848110364    12.000000000000
         C            0.821133602608    -0.164516038132    -0.021481110364    12.000000000000
         C           -1.327910397392     1.009915661868     0.195777889636    12.000000000000
         C           -1.286115397392    -1.437863038132    -0.325871110364    12.000000000000
         C           -2.851306397392     0.786909961868     0.193306889636    12.000000000000
         C            1.557095602608    -1.219873038132     0.542486889636    12.000000000000
         C           -2.672535397392    -1.565462038132    -0.325586110364    12.000000000000
         C           -3.456201397392    -0.439986038132    -0.063193110364    12.000000000000
         C            2.948184602608    -1.179044038132     0.511567889636    12.000000000000
         C            3.575348602608    -0.073496038132    -0.062206110364    12.000000000000
         C            2.775070602608     0.949914961868    -0.567875110364    12.000000000000
         H           -0.667192397392    -2.302438038132    -0.558484110364     1.007825032230
         H           -3.467044397392     1.663718961868     0.390153889636     1.007825032230
         H            1.036578602608    -2.049189038132     1.012487889636     1.007825032230
         H           -3.135098397392    -2.523351038132    -0.548166110364     1.007825032230
         H           -4.541341397392    -0.514791038132    -0.055262110364     1.007825032230
         H            3.532672602608    -1.988304038132     0.942868889636     1.007825032230
         H            0.010366602608     2.309886961868     0.031258889636     1.007825032230
         H           -1.511209397392     2.945897961868     0.370468889636     1.007825032230
         H            4.657986602608     0.004527961868    -0.104646110364     1.007825032230
         H            3.222748602608     1.839831961868    -1.007553110364     1.007825032230

  Basis Set: AUG-CC-PVTZ
    Blend: AUG-CC-PVTZ
  Basis Set: (AUG-CC-PVTZ AUX)
    Blend: AUG-CC-PVTZ-JKFIT
	 Reference Energy          =    -531.4240527095446396 [Eh]
	 Singles Energy            =      -0.0000000000000000 [Eh]
	 Same-Spin Energy          =      -0.5975003363969620 [Eh]
	 Opposite-Spin Energy      =      -1.8224224480723012 [Eh]
	 Correlation Energy        =      -2.4199227844692635 [Eh]
	 Total Energy              =    -533.8439754940138755 [Eh]

	 ================> DF-SCS-MP2 Energies <==================
	-----------------------------------------------------------
	 SCS Same-Spin Scale       =       0.3333333333333333 [-]
	 SCS Opposite-Spin Scale   =       1.2000000000000000 [-]
	 SCS Same-Spin Energy      =      -0.1991667787989873 [Eh]
	 SCS Opposite-Spin Energy  =      -2.1869069376867616 [Eh]
	 SCS Correlation Energy    =      -2.3860737164857491 [Eh]
	 SCS Total Energy          =    -533.8101264260303651 [Eh]
	-----------------------------------------------------------

  Dipole Moment: [D]
     X:     1.6775      Y:     0.3564      Z:     0.2179     Total:     1.7287

*** Psi4 exiting successfully. Buy a developer a beer!
