                               Psi4 1.3.2 release

  ==> Input File <==

--------------------------------------------------------------------------
#psi4
#
memory 32 gb

molecule  {
0 1
  N        1.4447430     0.9271060    -0.5600120
  N       -0.8646290     2.1728000     0.5033790
  C       -0.6433280    -0.2041590    -0.0552500
  C        0.8206279    -0.0052201     0.0089208
  C       -1.4414270     0.9434540     0.1762700
  C       -1.2729090    -1.4294320    -0.3272730
  C       -2.8381000     0.7953410     0.1919050
  C        1.5703020    -1.2114420     0.5410850
  C       -2.6593290    -1.5570310    -0.3269880
  C       -3.4429950    -0.4315550    -0.0645950
  C        2.9613910    -1.1706130     0.5101660
  C        3.5885550    -0.0650650    -0.0636080
  C        2.7882770     0.9583460    -0.5692770
  H       -0.6539860    -2.2940070    -0.5598860
  H       -3.4538380     1.6721500     0.3887520
  H        1.0497850    -2.0407580     1.0110860
  H       -3.1218920    -2.5149200    -0.5495680
  H       -4.5281350    -0.5063600    -0.0566640
  H        3.5458790    -1.9798730     0.9414670
  H        0.0235730     2.3183180     0.0298570
  H       -1.4980030     2.9543290     0.3690670
  H        4.6711930     0.0129590    -0.1060480
  H        3.2359550     1.8482630    -1.0089550
units angstrom
no_reorient  #important for SAPT in psi4, default
symmetry c1  #important for SAPT in psi4, default
}

set PROPERTIES_ORIGIN ["COM"]
properties('MP2/aug-cc-pvtz', properties = ['dipole'])
--------------------------------------------------------------------------

    Molecular point group: c1
  Charge       = 0
  Multiplicity = 1
  Basis Set: AUG-CC-PVTZ
    Blend: AUG-CC-PVTZ
  Basis Set: (AUG-CC-PVTZ AUX)
    Blend: AUG-CC-PVTZ-JKFIT

    Orbital Energies [Eh]
    ---------------------

    Doubly Occupied:

       1A    -15.562845     2A    -15.553231     3A    -11.293573
       4A    -11.279428     5A    -11.279402     6A    -11.258054
       7A    -11.249211     8A    -11.243315     9A    -11.242696
      10A    -11.239155    11A    -11.235218    12A    -11.224134
      13A    -11.223270    14A     -1.286520    15A     -1.217173
      16A     -1.128330    17A     -1.091712    18A     -1.053519
      19A     -0.997018    20A     -0.981009    21A     -0.878688
      22A     -0.857102    23A     -0.820939    24A     -0.797656
      25A     -0.718383    26A     -0.696746    27A     -0.685129
      28A     -0.664755    29A     -0.656397    30A     -0.624229
      31A     -0.595079    32A     -0.587856    33A     -0.585408
      34A     -0.578145    35A     -0.556904    36A     -0.536960
      37A     -0.524088    38A     -0.509246    39A     -0.493812
      40A     -0.446771    41A     -0.405782    42A     -0.401320
      43A     -0.356761    44A     -0.318158    45A     -0.287748

  @DF-RHF Final Energy:  -531.43511821428228

   => Energetics <=

    Nuclear Repulsion Energy =            715.1558751556863172
    One-Electron Energy =               -2138.7362329670913823
    Two-Electron Energy =                 892.1452395971227816
    Total Energy =                       -531.4351182142822836
  Basis Set: (AUG-CC-PVTZ AUX)
    Blend: AUG-CC-PVTZ-RI
    Molecular point group: c1

    Geometry (in Angstrom), charge = 0, multiplicity = 1:

       Center              X                  Y                   Z               Mass
    ------------   -----------------  -----------------  -----------------  -----------------
         N            1.441444749484     0.913314879409    -0.559576534102    14.003074004430
         N           -0.867927250516     2.159008879409     0.503814465898    14.003074004430
         C           -0.646626250516    -0.217950120591    -0.054814534102    12.000000000000
         C            0.817329649484    -0.019011220591     0.009356265898    12.000000000000
         C           -1.444725250516     0.929662879409     0.176705465898    12.000000000000
         C           -1.276207250516    -1.443223120591    -0.326837534102    12.000000000000
         C           -2.841398250516     0.781549879409     0.192340465898    12.000000000000
         C            1.567003749484    -1.225233120591     0.541520465898    12.000000000000
         C           -2.662627250516    -1.570822120591    -0.326552534102    12.000000000000
         C           -3.446293250516    -0.445346120591    -0.064159534102    12.000000000000
         C            2.958092749484    -1.184404120591     0.510601465898    12.000000000000
         C            3.585256749484    -0.078856120591    -0.063172534102    12.000000000000
         C            2.784978749484     0.944554879409    -0.568841534102    12.000000000000
         H           -0.657284250516    -2.307798120591    -0.559450534102     1.007825032230
         H           -3.457136250516     1.658358879409     0.389187465898     1.007825032230
         H            1.046486749484    -2.054549120591     1.011521465898     1.007825032230
         H           -3.125190250516    -2.528711120591    -0.549132534102     1.007825032230
         H           -4.531433250516    -0.520151120591    -0.056228534102     1.007825032230
         H            3.542580749484    -1.993664120591     0.941902465898     1.007825032230
         H            0.020274749484     2.304526879409     0.030292465898     1.007825032230
         H           -1.501301250516     2.940537879409     0.369502465898     1.007825032230
         H            4.667894749484    -0.000832120591    -0.105612534102     1.007825032230
         H            3.232656749484     1.834471879409    -1.008519534102     1.007825032230

  Basis Set: AUG-CC-PVTZ
    Blend: AUG-CC-PVTZ
  Basis Set: (AUG-CC-PVTZ AUX)
    Blend: AUG-CC-PVTZ-JKFIT
	 Reference Energy          =    -531.4351182142822836 [Eh]
	 Singles Energy            =      -0.0000000000000000 [Eh]
	 Same-Spin Energy          =      -0.5957203240759230 [Eh]
	 Opposite-Spin Energy      =      -1.8203949979669438 [Eh]
	 Correlation Energy        =      -2.4161153220428666 [Eh]
	 Total Energy              =    -533.8512335363251395 [Eh]

	 ================> DF-SCS-MP2 Energies <==================
	-----------------------------------------------------------
	 SCS Same-Spin Scale       =       0.3333333333333333 [-]
	 SCS Opposite-Spin Scale   =       1.2000000000000000 [-]
	 SCS Same-Spin Energy      =      -0.1985734413586410 [Eh]
	 SCS Opposite-Spin Energy  =      -2.1844739975603327 [Eh]
	 SCS Correlation Energy    =      -2.3830474389189735 [Eh]
	 SCS Total Energy          =    -533.8181656532012767 [Eh]
	-----------------------------------------------------------

  Dipole Moment: [D]
     X:     1.3905      Y:    -0.3416      Z:    -0.0124     Total:     1.4319

*** Psi4 exiting successfully. Buy a developer a beer!
