                               Psi4 1.3.2 release

  ==> Input File <==

--------------------------------------------------------------------------
#psi4
#
memory 32 gb

molecule  {
0 1
  N        1.4447430     0.9271060    -0.5600120
  N       -0.8646290     2.1728000     0.5033790
  C       -0.6433280    -0.2041590    -0.0552500
  C        1.0341864    -0.1495833    -0.0185055
  C       -1.4414270     0.9434540     0.1762700
  C       -1.2729090    -1.4294320    -0.3272730
  C       -2.8381000     0.7953410     0.1919050
  C        1.5703020    -1.2114420     0.5410850
  C       -2.6593290    -1.5570310    -0.3269880
  C       -3.4429950    -0.4315550    -0.0645950
  C        2.9613910    -1.1706130     0.5101660
  C        3.5885550    -0.0650650    -0.0636080
  C        2.7882770     0.9583460    -0.5692770
  H       -0.6539860    -2.2940070    -0.5598860
  H       -3.4538380     1.6721500     0.3887520
  H        1.0497850    -2.0407580     1.0110860
  H       -3.1218920    -2.5149200    -0.5495680
  H       -4.5281350    -0.5063600    -0.0566640
  H        3.5458790    -1.9798730     0.9414670
  H        0.0235730     2.3183180     0.0298570
  H       -1.4980030     2.9543290     0.3690670
  H        4.6711930     0.0129590    -0.1060480
  H        3.2359550     1.8482630    -1.0089550
units angstrom
no_reorient  #important for SAPT in psi4, default
symmetry c1  #important for SAPT in psi4, default
}

set PROPERTIES_ORIGIN ["COM"]
properties('MP2/aug-cc-pvtz', properties = ['dipole'])
--------------------------------------------------------------------------

    Molecular point group: c1
  Charge       = 0
  Multiplicity = 1
  Basis Set: AUG-CC-PVTZ
    Blend: AUG-CC-PVTZ
  Basis Set: (AUG-CC-PVTZ AUX)
    Blend: AUG-CC-PVTZ-JKFIT

    Orbital Energies [Eh]
    ---------------------

    Doubly Occupied:

       1A    -15.572875     2A    -15.545553     3A    -11.289181
       4A    -11.286182     5A    -11.271083     6A    -11.270966
       7A    -11.247602     8A    -11.238424     9A    -11.232911
      10A    -11.229315    11A    -11.228871    12A    -11.217401
      13A    -11.214696    14A     -1.300760    15A     -1.208082
      16A     -1.118863    17A     -1.110516    18A     -1.055588
      19A     -0.994273    20A     -0.972028    21A     -0.883710
      22A     -0.858992    23A     -0.811936    24A     -0.796824
      25A     -0.724282    26A     -0.687132    27A     -0.679749
      28A     -0.669338    29A     -0.654949    30A     -0.625920
      31A     -0.592419    32A     -0.586485    33A     -0.581215
      34A     -0.572528    35A     -0.571263    36A     -0.529932
      37A     -0.516552    38A     -0.493015    39A     -0.485856
      40A     -0.437942    41A     -0.415853    42A     -0.399410
      43A     -0.370225    44A     -0.321092    45A     -0.283187

  @DF-RHF Final Energy:  -531.41493773303750

   => Energetics <=

    Nuclear Repulsion Energy =            714.8704604375151348
    One-Electron Energy =               -2138.2608459566504280
    Two-Electron Energy =                 891.9754477860976749
    Total Energy =                       -531.4149377330375046
  Basis Set: (AUG-CC-PVTZ AUX)
    Blend: AUG-CC-PVTZ-RI
    Molecular point group: c1

    Geometry (in Angstrom), charge = 0, multiplicity = 1:

       Center              X                  Y                   Z               Mass
    ------------   -----------------  -----------------  -----------------  -----------------
         N            1.426377512129     0.923500166343    -0.557641520643    14.003074004430
         N           -0.882994487871     2.169194166343     0.505749479357    14.003074004430
         C           -0.661693487871    -0.207764833657    -0.052879520643    12.000000000000
         C            1.015820912129    -0.153189133657    -0.016135020643    12.000000000000
         C           -1.459792487871     0.939848166343     0.178640479357    12.000000000000
         C           -1.291274487871    -1.433037833657    -0.324902520643    12.000000000000
         C           -2.856465487871     0.791735166343     0.194275479357    12.000000000000
         C            1.551936512129    -1.215047833657     0.543455479357    12.000000000000
         C           -2.677694487871    -1.560636833657    -0.324617520643    12.000000000000
         C           -3.461360487871    -0.435160833657    -0.062224520643    12.000000000000
         C            2.943025512129    -1.174218833657     0.512536479357    12.000000000000
         C            3.570189512129    -0.068670833657    -0.061237520643    12.000000000000
         C            2.769911512129     0.954740166343    -0.566906520643    12.000000000000
         H           -0.672351487871    -2.297612833657    -0.557515520643     1.007825032230
         H           -3.472203487871     1.668544166343     0.391122479357     1.007825032230
         H            1.031419512129    -2.044363833657     1.013456479357     1.007825032230
         H           -3.140257487871    -2.518525833657    -0.547197520643     1.007825032230
         H           -4.546500487871    -0.509965833657    -0.054293520643     1.007825032230
         H            3.527513512129    -1.983478833657     0.943837479357     1.007825032230
         H            0.005207512129     2.314712166343     0.032227479357     1.007825032230
         H           -1.516368487871     2.950723166343     0.371437479357     1.007825032230
         H            4.652827512129     0.009353166343    -0.103677520643     1.007825032230
         H            3.217589512129     1.844657166343    -1.006584520643     1.007825032230

  Basis Set: AUG-CC-PVTZ
    Blend: AUG-CC-PVTZ
  Basis Set: (AUG-CC-PVTZ AUX)
    Blend: AUG-CC-PVTZ-JKFIT
	 Reference Energy          =    -531.4149377330375046 [Eh]
	 Singles Energy            =      -0.0000000000000000 [Eh]
	 Same-Spin Energy          =      -0.5955881500918898 [Eh]
	 Opposite-Spin Energy      =      -1.8197336928047050 [Eh]
	 Correlation Energy        =      -2.4153218428965948 [Eh]
	 Total Energy              =    -533.8302595759340647 [Eh]

	 ================> DF-SCS-MP2 Energies <==================
	-----------------------------------------------------------
	 SCS Same-Spin Scale       =       0.3333333333333333 [-]
	 SCS Opposite-Spin Scale   =       1.2000000000000000 [-]
	 SCS Same-Spin Energy      =      -0.1985293833639633 [Eh]
	 SCS Opposite-Spin Energy  =      -2.1836804313656457 [Eh]
	 SCS Correlation Energy    =      -2.3822098147296091 [Eh]
	 SCS Total Energy          =    -533.7971475477671675 [Eh]
	-----------------------------------------------------------

  Dipole Moment: [D]
     X:     2.4555      Y:    -0.4305      Z:     0.0144     Total:     2.4930

*** Psi4 exiting successfully. Buy a developer a beer!
