                               Psi4 1.4a3.dev225

  ==> Input File <==

--------------------------------------------------------------------------
#psi4
#
memory 32 gb

molecule  {
0 1
  N        1.4447430     0.9271060    -0.5600120
  N       -0.8646290     2.1728000     0.5033790
  C       -0.6433280    -0.2041590    -0.0552500
  C        0.8343400    -0.1560850    -0.0228830
  C       -1.4414270     0.9434540     0.1762700
  C       -1.2729090    -1.4294320    -0.3272730
  C       -2.8381000     0.7953410     0.1919050
  C        1.5807798    -1.2264670     0.5491141
  C       -2.6593290    -1.5570310    -0.3269880
  C       -3.4429950    -0.4315550    -0.0645950
  C        2.9613910    -1.1706130     0.5101660
  C        3.5885550    -0.0650650    -0.0636080
  C        2.7882770     0.9583460    -0.5692770
  H       -0.6539860    -2.2940070    -0.5598860
  H       -3.4538380     1.6721500     0.3887520
  H        1.0497850    -2.0407580     1.0110860
  H       -3.1218920    -2.5149200    -0.5495680
  H       -4.5281350    -0.5063600    -0.0566640
  H        3.5458790    -1.9798730     0.9414670
  H        0.0235730     2.3183180     0.0298570
  H       -1.4980030     2.9543290     0.3690670
  H        4.6711930     0.0129590    -0.1060480
  H        3.2359550     1.8482630    -1.0089550
units angstrom
no_reorient  #important for SAPT in psi4, default
symmetry c1  #important for SAPT in psi4, default
}

set PROPERTIES_ORIGIN ["COM"]
properties('MP2/aug-cc-pvtz', properties = ['dipole'])
--------------------------------------------------------------------------

    Molecular point group: c1
  Charge       = 0
  Multiplicity = 1
  Basis Set: AUG-CC-PVTZ
    Blend: AUG-CC-PVTZ
  Basis Set: (AUG-CC-PVTZ AUX)
    Blend: AUG-CC-PVTZ-JKFIT

    Orbital Energies [Eh]
    ---------------------

    Doubly Occupied:

       1A    -15.568839     2A    -15.551368     3A    -11.292858
       4A    -11.281446     5A    -11.280921     6A    -11.261849
       7A    -11.242318     8A    -11.242162     9A    -11.239735
      10A    -11.238689    11A    -11.235114    12A    -11.224362
      13A    -11.221642    14A     -1.261778    15A     -1.214278
      16A     -1.128246    17A     -1.089964    18A     -1.060216
      19A     -0.997807    20A     -0.980934    21A     -0.872706
      22A     -0.862692    23A     -0.817620    24A     -0.800304
      25A     -0.718619    26A     -0.691202    27A     -0.685129
      28A     -0.664890    29A     -0.652830    30A     -0.626928
      31A     -0.595944    32A     -0.592333    33A     -0.586668
      34A     -0.572739    35A     -0.549977    36A     -0.538721
      37A     -0.520552    38A     -0.502274    39A     -0.494470
      40A     -0.445574    41A     -0.419927    42A     -0.390404
      43A     -0.367668    44A     -0.318791    45A     -0.286717

  @DF-RHF Final Energy:  -531.45302093387136

   => Energetics <=

    Nuclear Repulsion Energy =            714.3146900250775388
    One-Electron Energy =               -2137.1550185887217594
    Two-Electron Energy =                 891.3873076297727494
    Total Energy =                       -531.4530209338713576
  Basis Set: (AUG-CC-PVTZ AUX)
    Blend: AUG-CC-PVTZ-RI
    Molecular point group: c1

    Geometry (in Angstrom), charge = 0, multiplicity = 1:

       Center              X                  Y                   Z               Mass
    ------------   -----------------  -----------------  -----------------  -----------------
         N            1.439738074428     0.925018944094    -0.557899152739    14.003074004430
         N           -0.869633925572     2.170712944094     0.505491847261    14.003074004430
         C           -0.648332925572    -0.206246055906    -0.053137152739    12.000000000000
         C            0.829335074428    -0.158172055906    -0.020770152739    12.000000000000
         C           -1.446431925572     0.941366944094     0.178382847261    12.000000000000
         C           -1.277913925572    -1.431519055906    -0.325160152739    12.000000000000
         C           -2.843104925572     0.793253944094     0.194017847261    12.000000000000
         C            1.575774874428    -1.228554055906     0.551226947261    12.000000000000
         C           -2.664333925572    -1.559118055906    -0.324875152739    12.000000000000
         C           -3.447999925572    -0.433642055906    -0.062482152739    12.000000000000
         C            2.956386074428    -1.172700055906     0.512278847261    12.000000000000
         C            3.583550074428    -0.067152055906    -0.061495152739    12.000000000000
         C            2.783272074428     0.956258944094    -0.567164152739    12.000000000000
         H           -0.658990925572    -2.296094055906    -0.557773152739     1.007825032230
         H           -3.458842925572     1.670062944094     0.390864847261     1.007825032230
         H            1.044780074428    -2.042845055906     1.013198847261     1.007825032230
         H           -3.126896925572    -2.517007055906    -0.547455152739     1.007825032230
         H           -4.533139925572    -0.508447055906    -0.054551152739     1.007825032230
         H            3.540874074428    -1.981960055906     0.943579847261     1.007825032230
         H            0.018568074428     2.316230944094     0.031969847261     1.007825032230
         H           -1.503007925572     2.952241944094     0.371179847261     1.007825032230
         H            4.666188074428     0.010871944094    -0.103935152739     1.007825032230
         H            3.230950074428     1.846175944094    -1.006842152739     1.007825032230

  Basis Set: AUG-CC-PVTZ
    Blend: AUG-CC-PVTZ
  Basis Set: (AUG-CC-PVTZ AUX)
    Blend: AUG-CC-PVTZ-JKFIT
	 Reference Energy          =    -531.4530209338713576 [Eh]
	 Singles Energy            =      -0.0000000000000000 [Eh]
	 Same-Spin Energy          =      -0.5964538488093133 [Eh]
	 Opposite-Spin Energy      =      -1.8207494743363435 [Eh]
	 Correlation Energy        =      -2.4172033231456567 [Eh]
	 Total Energy              =    -533.8702242570170711 [Eh]

	 ================> DF-SCS-MP2 Energies <==================
	-----------------------------------------------------------
	 SCS Same-Spin Scale       =       0.3333333333333333 [-]
	 SCS Opposite-Spin Scale   =       1.2000000000000000 [-]
	 SCS Same-Spin Energy      =      -0.1988179496031044 [Eh]
	 SCS Opposite-Spin Energy  =      -2.1848993692036123 [Eh]
	 SCS Correlation Energy    =      -2.3837173188067169 [Eh]
	 SCS Total Energy          =    -533.8367382526780602 [Eh]
	-----------------------------------------------------------

  Dipole Moment: [D]
     X:     1.4890      Y:    -0.4170      Z:     0.0140     Total:     1.5463

*** Psi4 exiting successfully. Buy a developer a beer!
