                               Psi4 1.3.2 release

  ==> Input File <==

--------------------------------------------------------------------------
#psi4
#
memory 32 gb

molecule  {
0 1
  N        1.4447430     0.9271060    -0.5600120
  N       -0.8646290     2.1728000     0.5033790
  C       -0.6433280    -0.2041590    -0.0552500
  C        0.8344891    -0.2570567    -0.0443042
  C       -1.4414270     0.9434540     0.1762700
  C       -1.2729090    -1.4294320    -0.3272730
  C       -2.8381000     0.7953410     0.1919050
  C        1.5703020    -1.2114420     0.5410850
  C       -2.6593290    -1.5570310    -0.3269880
  C       -3.4429950    -0.4315550    -0.0645950
  C        2.9613910    -1.1706130     0.5101660
  C        3.5885550    -0.0650650    -0.0636080
  C        2.7882770     0.9583460    -0.5692770
  H       -0.6539860    -2.2940070    -0.5598860
  H       -3.4538380     1.6721500     0.3887520
  H        1.0497850    -2.0407580     1.0110860
  H       -3.1218920    -2.5149200    -0.5495680
  H       -4.5281350    -0.5063600    -0.0566640
  H        3.5458790    -1.9798730     0.9414670
  H        0.0235730     2.3183180     0.0298570
  H       -1.4980030     2.9543290     0.3690670
  H        4.6711930     0.0129590    -0.1060480
  H        3.2359550     1.8482630    -1.0089550
units angstrom
no_reorient  #important for SAPT in psi4, default
symmetry c1  #important for SAPT in psi4, default
}

set PROPERTIES_ORIGIN ["COM"]
properties('MP2/aug-cc-pvtz', properties = ['dipole'])
--------------------------------------------------------------------------

    Molecular point group: c1
  Charge       = 0
  Multiplicity = 1
  Basis Set: AUG-CC-PVTZ
    Blend: AUG-CC-PVTZ
  Basis Set: (AUG-CC-PVTZ AUX)
    Blend: AUG-CC-PVTZ-JKFIT

    Orbital Energies [Eh]
    ---------------------

    Doubly Occupied:

       1A    -15.572520     2A    -15.549853     3A    -11.286797
       4A    -11.282132     5A    -11.281983     6A    -11.266135
       7A    -11.243543     8A    -11.237505     9A    -11.237022
      10A    -11.236166    11A    -11.234888    12A    -11.223974
      13A    -11.219959    14A     -1.249150    15A     -1.212033
      16A     -1.128053    17A     -1.089126    18A     -1.065342
      19A     -0.998830    20A     -0.980619    21A     -0.872793
      22A     -0.863439    23A     -0.814778    24A     -0.800668
      25A     -0.718941    26A     -0.687322    27A     -0.684964
      28A     -0.666616    29A     -0.647575    30A     -0.628360
      31A     -0.598691    32A     -0.593078    33A     -0.585747
      34A     -0.572293    35A     -0.547097    36A     -0.536015
      37A     -0.517489    38A     -0.497986    39A     -0.489387
      40A     -0.444654    41A     -0.425418    42A     -0.381707
      43A     -0.377238    44A     -0.319339    45A     -0.286214

  @DF-RHF Final Energy:  -531.44174193406081

   => Energetics <=

    Nuclear Repulsion Energy =            714.2610723994757791
    One-Electron Energy =               -2137.0987535575427501
    Two-Electron Energy =                 891.3959392240061561
    Total Energy =                       -531.4417419340608149
  Basis Set: (AUG-CC-PVTZ AUX)
    Blend: AUG-CC-PVTZ-RI
    Molecular point group: c1

    Geometry (in Angstrom), charge = 0, multiplicity = 1:

       Center              X                  Y                   Z               Mass
    ------------   -----------------  -----------------  -----------------  -----------------
         N            1.440466797352     0.931082759530    -0.555821339586    14.003074004430
         N           -0.868905202648     2.176776759530     0.507569660414    14.003074004430
         C           -0.647604202648    -0.200182240470    -0.051059339586    12.000000000000
         C            0.830212897352    -0.253079940470    -0.040113539586    12.000000000000
         C           -1.445703202648     0.947430759530     0.180460660414    12.000000000000
         C           -1.277185202648    -1.425455240470    -0.323082339586    12.000000000000
         C           -2.842376202648     0.799317759530     0.196095660414    12.000000000000
         C            1.566025797352    -1.207465240470     0.545275660414    12.000000000000
         C           -2.663605202648    -1.553054240470    -0.322797339586    12.000000000000
         C           -3.447271202648    -0.427578240470    -0.060404339586    12.000000000000
         C            2.957114797352    -1.166636240470     0.514356660414    12.000000000000
         C            3.584278797352    -0.061088240470    -0.059417339586    12.000000000000
         C            2.784000797352     0.962322759530    -0.565086339586    12.000000000000
         H           -0.658262202648    -2.290030240470    -0.555695339586     1.007825032230
         H           -3.458114202648     1.676126759530     0.392942660414     1.007825032230
         H            1.045508797352    -2.036781240470     1.015276660414     1.007825032230
         H           -3.126168202648    -2.510943240470    -0.545377339586     1.007825032230
         H           -4.532411202648    -0.502383240470    -0.052473339586     1.007825032230
         H            3.541602797352    -1.975896240470     0.945657660414     1.007825032230
         H            0.019296797352     2.322294759530     0.034047660414     1.007825032230
         H           -1.502279202648     2.958305759530     0.373257660414     1.007825032230
         H            4.666916797352     0.016935759530    -0.101857339586     1.007825032230
         H            3.231678797352     1.852239759530    -1.004764339586     1.007825032230

  Basis Set: AUG-CC-PVTZ
    Blend: AUG-CC-PVTZ
  Basis Set: (AUG-CC-PVTZ AUX)
    Blend: AUG-CC-PVTZ-JKFIT
	 Reference Energy          =    -531.4417419340608149 [Eh]
	 Singles Energy            =      -0.0000000000000000 [Eh]
	 Same-Spin Energy          =      -0.5970061391591457 [Eh]
	 Opposite-Spin Energy      =      -1.8227265444079250 [Eh]
	 Correlation Energy        =      -2.4197326835670707 [Eh]
	 Total Energy              =    -533.8614746176278913 [Eh]

	 ================> DF-SCS-MP2 Energies <==================
	-----------------------------------------------------------
	 SCS Same-Spin Scale       =       0.3333333333333333 [-]
	 SCS Opposite-Spin Scale   =       1.2000000000000000 [-]
	 SCS Same-Spin Energy      =      -0.1990020463863819 [Eh]
	 SCS Opposite-Spin Energy  =      -2.1872718532895101 [Eh]
	 SCS Correlation Energy    =      -2.3862738996758921 [Eh]
	 SCS Total Energy          =    -533.8280158337366856 [Eh]
	-----------------------------------------------------------

  Dipole Moment: [D]
     X:     1.5805      Y:    -0.4272      Z:     0.0149     Total:     1.6373

*** Psi4 exiting successfully. Buy a developer a beer!
