                               Psi4 1.4a3.dev225

  ==> Input File <==

--------------------------------------------------------------------------
#psi4
#
memory 32 gb

molecule  {
0 1
  N        1.4447430     0.9271060    -0.5600120
  N       -0.8646290     2.1728000     0.5033790
  C       -0.6433280    -0.2041590    -0.0552500
  C        0.8118059    -0.1960728    -0.0030540
  C       -1.4414270     0.9434540     0.1762700
  C       -1.2729090    -1.4294320    -0.3272730
  C       -2.8381000     0.7953410     0.1919050
  C        1.5703020    -1.2114420     0.5410850
  C       -2.6593290    -1.5570310    -0.3269880
  C       -3.4429950    -0.4315550    -0.0645950
  C        2.9613910    -1.1706130     0.5101660
  C        3.5885550    -0.0650650    -0.0636080
  C        2.7882770     0.9583460    -0.5692770
  H       -0.6539860    -2.2940070    -0.5598860
  H       -3.4538380     1.6721500     0.3887520
  H        1.0497850    -2.0407580     1.0110860
  H       -3.1218920    -2.5149200    -0.5495680
  H       -4.5281350    -0.5063600    -0.0566640
  H        3.5458790    -1.9798730     0.9414670
  H        0.0235730     2.3183180     0.0298570
  H       -1.4980030     2.9543290     0.3690670
  H        4.6711930     0.0129590    -0.1060480
  H        3.2359550     1.8482630    -1.0089550
units angstrom
no_reorient  #important for SAPT in psi4, default
symmetry c1  #important for SAPT in psi4, default
}

set PROPERTIES_ORIGIN ["COM"]
properties('MP2/aug-cc-pvtz', properties = ['dipole'])
--------------------------------------------------------------------------

    Molecular point group: c1
  Charge       = 0
  Multiplicity = 1
  Basis Set: AUG-CC-PVTZ
    Blend: AUG-CC-PVTZ
  Basis Set: (AUG-CC-PVTZ AUX)
    Blend: AUG-CC-PVTZ-JKFIT

    Orbital Energies [Eh]
    ---------------------

    Doubly Occupied:

       1A    -15.570499     2A    -15.551131     3A    -11.289141
       4A    -11.282348     5A    -11.281184     6A    -11.264338
       7A    -11.242475     8A    -11.239448     9A    -11.239339
      10A    -11.238969    11A    -11.234097    12A    -11.224585
      13A    -11.221404    14A     -1.251805    15A     -1.213306
      16A     -1.129276    17A     -1.086569    18A     -1.065319
      19A     -0.998303    20A     -0.981546    21A     -0.872926
      22A     -0.863712    23A     -0.815862    24A     -0.800938
      25A     -0.719338    26A     -0.689335    27A     -0.685699
      28A     -0.665697    29A     -0.648906    30A     -0.627647
      31A     -0.598001    32A     -0.593640    33A     -0.586679
      34A     -0.573559    35A     -0.547236    36A     -0.536711
      37A     -0.518020    38A     -0.500425    39A     -0.494442
      40A     -0.445628    41A     -0.421021    42A     -0.384099
      43A     -0.373452    44A     -0.318943    45A     -0.286341

  @DF-RHF Final Energy:  -531.44846747139047

   => Energetics <=

    Nuclear Repulsion Energy =            714.4959113233134076
    One-Electron Energy =               -2137.5420769666011438
    Two-Electron Energy =                 891.5976981718971501
    Total Energy =                       -531.4484674713904724
  Basis Set: (AUG-CC-PVTZ AUX)
    Blend: AUG-CC-PVTZ-RI
    Molecular point group: c1

    Geometry (in Angstrom), charge = 0, multiplicity = 1:

       Center              X                  Y                   Z               Mass
    ------------   -----------------  -----------------  -----------------  -----------------
         N            1.442067169888     0.926780149725    -0.558731673542    14.003074004430
         N           -0.867304830112     2.172474149725     0.504659326458    14.003074004430
         C           -0.646003830112    -0.204484850275    -0.053969673542    12.000000000000
         C            0.809130069888    -0.196398650275    -0.001773673542    12.000000000000
         C           -1.444102830112     0.943128149725     0.177550326458    12.000000000000
         C           -1.275584830112    -1.429757850275    -0.325992673542    12.000000000000
         C           -2.840775830112     0.795015149725     0.193185326458    12.000000000000
         C            1.567626169888    -1.211767850275     0.542365326458    12.000000000000
         C           -2.662004830112    -1.557356850275    -0.325707673542    12.000000000000
         C           -3.445670830112    -0.431880850275    -0.063314673542    12.000000000000
         C            2.958715169888    -1.170938850275     0.511446326458    12.000000000000
         C            3.585879169888    -0.065390850275    -0.062327673542    12.000000000000
         C            2.785601169888     0.958020149725    -0.567996673542    12.000000000000
         H           -0.656661830112    -2.294332850275    -0.558605673542     1.007825032230
         H           -3.456513830112     1.671824149725     0.390032326458     1.007825032230
         H            1.047109169888    -2.041083850275     1.012366326458     1.007825032230
         H           -3.124567830112    -2.515245850275    -0.548287673542     1.007825032230
         H           -4.530810830112    -0.506685850275    -0.055383673542     1.007825032230
         H            3.543203169888    -1.980198850275     0.942747326458     1.007825032230
         H            0.020897169888     2.317992149725     0.031137326458     1.007825032230
         H           -1.500678830112     2.954003149725     0.370347326458     1.007825032230
         H            4.668517169888     0.012633149725    -0.104767673542     1.007825032230
         H            3.233279169888     1.847937149725    -1.007674673542     1.007825032230

  Basis Set: AUG-CC-PVTZ
    Blend: AUG-CC-PVTZ
  Basis Set: (AUG-CC-PVTZ AUX)
    Blend: AUG-CC-PVTZ-JKFIT
	 Reference Energy          =    -531.4484674713904724 [Eh]
	 Singles Energy            =      -0.0000000000000000 [Eh]
	 Same-Spin Energy          =      -0.5971804729589587 [Eh]
	 Opposite-Spin Energy      =      -1.8222816243638558 [Eh]
	 Correlation Energy        =      -2.4194620973228145 [Eh]
	 Total Energy              =    -533.8679295687132935 [Eh]

	 ================> DF-SCS-MP2 Energies <==================
	-----------------------------------------------------------
	 SCS Same-Spin Scale       =       0.3333333333333333 [-]
	 SCS Opposite-Spin Scale   =       1.2000000000000000 [-]
	 SCS Same-Spin Energy      =      -0.1990601576529862 [Eh]
	 SCS Opposite-Spin Energy  =      -2.1867379492366270 [Eh]
	 SCS Correlation Energy    =      -2.3857981068896130 [Eh]
	 SCS Total Energy          =    -533.8342655782801103 [Eh]
	-----------------------------------------------------------

  Dipole Moment: [D]
     X:     1.4596      Y:    -0.4239      Z:     0.0233     Total:     1.5201

*** Psi4 exiting successfully. Buy a developer a beer!
