                               Psi4 1.3.2 release

  ==> Input File <==

--------------------------------------------------------------------------
#psi4
#
memory 32 gb

molecule  {
0 1
  N        1.3589794     0.9609692    -0.5808665
  N       -0.8646290     2.1728000     0.5033790
  C       -0.6433280    -0.2041590    -0.0552500
  C        0.8343400    -0.1560850    -0.0228830
  C       -1.4414270     0.9434540     0.1762700
  C       -1.2729090    -1.4294320    -0.3272730
  C       -2.8381000     0.7953410     0.1919050
  C        1.5703020    -1.2114420     0.5410850
  C       -2.6593290    -1.5570310    -0.3269880
  C       -3.4429950    -0.4315550    -0.0645950
  C        2.9613910    -1.1706130     0.5101660
  C        3.5885550    -0.0650650    -0.0636080
  C        2.7882770     0.9583460    -0.5692770
  H       -0.6539860    -2.2940070    -0.5598860
  H       -3.4538380     1.6721500     0.3887520
  H        1.0497850    -2.0407580     1.0110860
  H       -3.1218920    -2.5149200    -0.5495680
  H       -4.5281350    -0.5063600    -0.0566640
  H        3.5458790    -1.9798730     0.9414670
  H        0.0235730     2.3183180     0.0298570
  H       -1.4980030     2.9543290     0.3690670
  H        4.6711930     0.0129590    -0.1060480
  H        3.2359550     1.8482630    -1.0089550
units angstrom
no_reorient  #important for SAPT in psi4, default
symmetry c1  #important for SAPT in psi4, default
}

set PROPERTIES_ORIGIN ["COM"]
properties('MP2/aug-cc-pvtz', properties = ['dipole'])
--------------------------------------------------------------------------

    Molecular point group: c1
  Charge       = 0
  Multiplicity = 1
  Basis Set: AUG-CC-PVTZ
    Blend: AUG-CC-PVTZ
  Basis Set: (AUG-CC-PVTZ AUX)
    Blend: AUG-CC-PVTZ-JKFIT

    Orbital Energies [Eh]
    ---------------------

    Doubly Occupied:

       1A    -15.579835     2A    -15.548176     3A    -11.291379
       4A    -11.291088     5A    -11.279460     6A    -11.267888
       7A    -11.246490     8A    -11.244012     9A    -11.237668
      10A    -11.236935    11A    -11.232157    12A    -11.222798
      13A    -11.220023    14A     -1.250331    15A     -1.209237
      16A     -1.125908    17A     -1.093055    18A     -1.055647
      19A     -0.996762    20A     -0.979716    21A     -0.870319
      22A     -0.865691    23A     -0.814804    24A     -0.796235
      25A     -0.717361    26A     -0.688037    27A     -0.683923
      28A     -0.663289    29A     -0.650704    30A     -0.626338
      31A     -0.593129    32A     -0.591671    33A     -0.585375
      34A     -0.573044    35A     -0.545117    36A     -0.535275
      37A     -0.514879    38A     -0.498122    39A     -0.493183
      40A     -0.444615    41A     -0.432348    42A     -0.391505
      43A     -0.362988    44A     -0.319880    45A     -0.286089

  @DF-RHF Final Energy:  -531.44054773454911

   => Energetics <=

    Nuclear Repulsion Energy =            713.8586811579914411
    One-Electron Energy =               -2136.2934904025332798
    Two-Electron Energy =                 890.9942615099927252
    Total Energy =                       -531.4405477345491136
  Basis Set: (AUG-CC-PVTZ AUX)
    Blend: AUG-CC-PVTZ-RI
    Molecular point group: c1

    Geometry (in Angstrom), charge = 0, multiplicity = 1:

       Center              X                  Y                   Z               Mass
    ------------   -----------------  -----------------  -----------------  -----------------
         N            1.361774646876     0.955034119807    -0.576470219863    14.003074004430
         N           -0.861833753124     2.166864919807     0.507775280137    14.003074004430
         C           -0.640532753124    -0.210094080193    -0.050853719863    12.000000000000
         C            0.837135246876    -0.162020080193    -0.018486719863    12.000000000000
         C           -1.438631753124     0.937518919807     0.180666280137    12.000000000000
         C           -1.270113753124    -1.435367080193    -0.322876719863    12.000000000000
         C           -2.835304753124     0.789405919807     0.196301280137    12.000000000000
         C            1.573097246876    -1.217377080193     0.545481280137    12.000000000000
         C           -2.656533753124    -1.562966080193    -0.322591719863    12.000000000000
         C           -3.440199753124    -0.437490080193    -0.060198719863    12.000000000000
         C            2.964186246876    -1.176548080193     0.514562280137    12.000000000000
         C            3.591350246876    -0.071000080193    -0.059211719863    12.000000000000
         C            2.791072246876     0.952410919807    -0.564880719863    12.000000000000
         H           -0.651190753124    -2.299942080193    -0.555489719863     1.007825032230
         H           -3.451042753124     1.666214919807     0.393148280137     1.007825032230
         H            1.052580246876    -2.046693080193     1.015482280137     1.007825032230
         H           -3.119096753124    -2.520855080193    -0.545171719863     1.007825032230
         H           -4.525339753124    -0.512295080193    -0.052267719863     1.007825032230
         H            3.548674246876    -1.985808080193     0.945863280137     1.007825032230
         H            0.026368246876     2.312382919807     0.034253280137     1.007825032230
         H           -1.495207753124     2.948393919807     0.373463280137     1.007825032230
         H            4.673988246876     0.007023919807    -0.101651719863     1.007825032230
         H            3.238750246876     1.842327919807    -1.004558719863     1.007825032230

  Basis Set: AUG-CC-PVTZ
    Blend: AUG-CC-PVTZ
  Basis Set: (AUG-CC-PVTZ AUX)
    Blend: AUG-CC-PVTZ-JKFIT
	 Reference Energy          =    -531.4405477345491136 [Eh]
	 Singles Energy            =      -0.0000000000000000 [Eh]
	 Same-Spin Energy          =      -0.5975813812578372 [Eh]
	 Opposite-Spin Energy      =      -1.8243836270349663 [Eh]
	 Correlation Energy        =      -2.4219650082928035 [Eh]
	 Total Energy              =    -533.8625127428418864 [Eh]

	 ================> DF-SCS-MP2 Energies <==================
	-----------------------------------------------------------
	 SCS Same-Spin Scale       =       0.3333333333333333 [-]
	 SCS Opposite-Spin Scale   =       1.2000000000000000 [-]
	 SCS Same-Spin Energy      =      -0.1991937937526124 [Eh]
	 SCS Opposite-Spin Energy  =      -2.1892603524419596 [Eh]
	 SCS Correlation Energy    =      -2.3884541461945719 [Eh]
	 SCS Total Energy          =    -533.8290018807437036 [Eh]
	-----------------------------------------------------------

  Dipole Moment: [D]
     X:     1.7418      Y:    -0.5034      Z:     0.0518     Total:     1.8138

*** Psi4 exiting successfully. Buy a developer a beer!
