                               Psi4 1.3.2 release

  ==> Input File <==

--------------------------------------------------------------------------
#psi4
#
memory 32 gb

molecule  {
0 1
  N        1.4447430     0.9271060    -0.5600120
  N       -0.8646290     2.1728000     0.5033790
  C       -0.6433280    -0.2041590    -0.0552500
  C        0.8794081    -0.0761094    -0.0625410
  C       -1.4414270     0.9434540     0.1762700
  C       -1.2729090    -1.4294320    -0.3272730
  C       -2.8381000     0.7953410     0.1919050
  C        1.5703020    -1.2114420     0.5410850
  C       -2.6593290    -1.5570310    -0.3269880
  C       -3.4429950    -0.4315550    -0.0645950
  C        2.9613910    -1.1706130     0.5101660
  C        3.5885550    -0.0650650    -0.0636080
  C        2.7882770     0.9583460    -0.5692770
  H       -0.6539860    -2.2940070    -0.5598860
  H       -3.4538380     1.6721500     0.3887520
  H        1.0497850    -2.0407580     1.0110860
  H       -3.1218920    -2.5149200    -0.5495680
  H       -4.5281350    -0.5063600    -0.0566640
  H        3.5458790    -1.9798730     0.9414670
  H        0.0235730     2.3183180     0.0298570
  H       -1.4980030     2.9543290     0.3690670
  H        4.6711930     0.0129590    -0.1060480
  H        3.2359550     1.8482630    -1.0089550
units angstrom
no_reorient  #important for SAPT in psi4, default
symmetry c1  #important for SAPT in psi4, default
}

set PROPERTIES_ORIGIN ["COM"]
properties('MP2/aug-cc-pvtz', properties = ['dipole'])
--------------------------------------------------------------------------

    Molecular point group: c1
  Charge       = 0
  Multiplicity = 1
  Basis Set: AUG-CC-PVTZ
    Blend: AUG-CC-PVTZ
  Basis Set: (AUG-CC-PVTZ AUX)
    Blend: AUG-CC-PVTZ-JKFIT

    Orbital Energies [Eh]
    ---------------------

    Doubly Occupied:

       1A    -15.563858     2A    -15.551066     3A    -11.290384
       4A    -11.281697     5A    -11.278010     6A    -11.261265
       7A    -11.246787     8A    -11.243894     9A    -11.238731
      10A    -11.236596    11A    -11.235009    12A    -11.222675
      13A    -11.220793    14A     -1.291779    15A     -1.214576
      16A     -1.125461    17A     -1.095077    18A     -1.052511
      19A     -0.996990    20A     -0.979046    21A     -0.876734
      22A     -0.859639    23A     -0.818773    24A     -0.798759
      25A     -0.718926    26A     -0.693767    27A     -0.683430
      28A     -0.660690    29A     -0.660084    30A     -0.625485
      31A     -0.592902    32A     -0.588232    33A     -0.585242
      34A     -0.576617    35A     -0.561239    36A     -0.535928
      37A     -0.523807    38A     -0.503448    39A     -0.493154
      40A     -0.444517    41A     -0.413641    42A     -0.400402
      43A     -0.359675    44A     -0.319397    45A     -0.287134

  @DF-RHF Final Energy:  -531.44496858670766

   => Energetics <=

    Nuclear Repulsion Energy =            715.0382202563423562
    One-Electron Energy =               -2138.5507251728809024
    Two-Electron Energy =                 892.0675363298308866
    Total Energy =                       -531.4449685867076596
  Basis Set: (AUG-CC-PVTZ AUX)
    Blend: AUG-CC-PVTZ-RI
    Molecular point group: c1

    Geometry (in Angstrom), charge = 0, multiplicity = 1:

       Center              X                  Y                   Z               Mass
    ------------   -----------------  -----------------  -----------------  -----------------
         N            1.437297617784     0.918316346965    -0.554534674835    14.003074004430
         N           -0.872074382216     2.164010346965     0.508856325165    14.003074004430
         C           -0.650773382216    -0.212948653035    -0.049772674835    12.000000000000
         C            0.871962717784    -0.084899053035    -0.057063674835    12.000000000000
         C           -1.448872382216     0.934664346965     0.181747325165    12.000000000000
         C           -1.280354382216    -1.438221653035    -0.321795674835    12.000000000000
         C           -2.845545382216     0.786551346965     0.197382325165    12.000000000000
         C            1.562856617784    -1.220231653035     0.546562325165    12.000000000000
         C           -2.666774382216    -1.565820653035    -0.321510674835    12.000000000000
         C           -3.450440382216    -0.440344653035    -0.059117674835    12.000000000000
         C            2.953945617784    -1.179402653035     0.515643325165    12.000000000000
         C            3.581109617784    -0.073854653035    -0.058130674835    12.000000000000
         C            2.780831617784     0.949556346965    -0.563799674835    12.000000000000
         H           -0.661431382216    -2.302796653035    -0.554408674835     1.007825032230
         H           -3.461283382216     1.663360346965     0.394229325165     1.007825032230
         H            1.042339617784    -2.049547653035     1.016563325165     1.007825032230
         H           -3.129337382216    -2.523709653035    -0.544090674835     1.007825032230
         H           -4.535580382216    -0.515149653035    -0.051186674835     1.007825032230
         H            3.538433617784    -1.988662653035     0.946944325165     1.007825032230
         H            0.016127617784     2.309528346965     0.035334325165     1.007825032230
         H           -1.505448382216     2.945539346965     0.374544325165     1.007825032230
         H            4.663747617784     0.004169346965    -0.100570674835     1.007825032230
         H            3.228509617784     1.839473346965    -1.003477674835     1.007825032230

  Basis Set: AUG-CC-PVTZ
    Blend: AUG-CC-PVTZ
  Basis Set: (AUG-CC-PVTZ AUX)
    Blend: AUG-CC-PVTZ-JKFIT
	 Reference Energy          =    -531.4449685867076596 [Eh]
	 Singles Energy            =      -0.0000000000000000 [Eh]
	 Same-Spin Energy          =      -0.5949319169669429 [Eh]
	 Opposite-Spin Energy      =      -1.8185773973580404 [Eh]
	 Correlation Energy        =      -2.4135093143249833 [Eh]
	 Total Energy              =    -533.8584779010326429 [Eh]

	 ================> DF-SCS-MP2 Energies <==================
	-----------------------------------------------------------
	 SCS Same-Spin Scale       =       0.3333333333333333 [-]
	 SCS Opposite-Spin Scale   =       1.2000000000000000 [-]
	 SCS Same-Spin Energy      =      -0.1983106389889810 [Eh]
	 SCS Opposite-Spin Energy  =      -2.1822928768296483 [Eh]
	 SCS Correlation Energy    =      -2.3806035158186294 [Eh]
	 SCS Total Energy          =    -533.8255721025262801 [Eh]
	-----------------------------------------------------------

  Dipole Moment: [D]
     X:     1.6419      Y:    -0.3782      Z:    -0.0227     Total:     1.6850

*** Psi4 exiting successfully. Buy a developer a beer!
