                               Psi4 1.3.2 release

  ==> Input File <==

--------------------------------------------------------------------------
#psi4
#
memory 32 gb

molecule  {
0 1
  N        1.4447430     0.9271060    -0.5600120
  N       -0.8646290     2.1728000     0.5033790
  C       -0.6434120    -0.1581331    -0.0786158
  C        0.8343400    -0.1560850    -0.0228830
  C       -1.4414270     0.9434540     0.1762700
  C       -1.2729090    -1.4294320    -0.3272730
  C       -2.8381000     0.7953410     0.1919050
  C        1.5703020    -1.2114420     0.5410850
  C       -2.6593290    -1.5570310    -0.3269880
  C       -3.4429950    -0.4315550    -0.0645950
  C        2.9613910    -1.1706130     0.5101660
  C        3.5885550    -0.0650650    -0.0636080
  C        2.7882770     0.9583460    -0.5692770
  H       -0.6539860    -2.2940070    -0.5598860
  H       -3.4538380     1.6721500     0.3887520
  H        1.0497850    -2.0407580     1.0110860
  H       -3.1218920    -2.5149200    -0.5495680
  H       -4.5281350    -0.5063600    -0.0566640
  H        3.5458790    -1.9798730     0.9414670
  H        0.0235730     2.3183180     0.0298570
  H       -1.4980030     2.9543290     0.3690670
  H        4.6711930     0.0129590    -0.1060480
  H        3.2359550     1.8482630    -1.0089550
units angstrom
no_reorient  #important for SAPT in psi4, default
symmetry c1  #important for SAPT in psi4, default
}

set PROPERTIES_ORIGIN ["COM"]
properties('MP2/aug-cc-pvtz', properties = ['dipole'])
--------------------------------------------------------------------------

    Molecular point group: c1
  Charge       = 0
  Multiplicity = 1
  Basis Set: AUG-CC-PVTZ
    Blend: AUG-CC-PVTZ
  Basis Set: (AUG-CC-PVTZ AUX)
    Blend: AUG-CC-PVTZ-JKFIT

    Orbital Energies [Eh]
    ---------------------

    Doubly Occupied:

       1A    -15.567819     2A    -15.548934     3A    -11.290087
       4A    -11.280772     5A    -11.276868     6A    -11.263775
       7A    -11.242793     8A    -11.242546     9A    -11.242358
      10A    -11.238687    11A    -11.233713    12A    -11.225643
      13A    -11.222466    14A     -1.262589    15A     -1.214667
      16A     -1.125630    17A     -1.089112    18A     -1.060564
      19A     -0.995018    20A     -0.984057    21A     -0.872129
      22A     -0.864285    23A     -0.820547    24A     -0.797847
      25A     -0.718456    26A     -0.689415    27A     -0.685436
      28A     -0.664086    29A     -0.651808    30A     -0.627914
      31A     -0.597066    32A     -0.593207    33A     -0.583997
      34A     -0.573229    35A     -0.550884    36A     -0.536836
      37A     -0.519782    38A     -0.499204    39A     -0.496250
      40A     -0.443268    41A     -0.421331    42A     -0.388803
      43A     -0.367430    44A     -0.317054    45A     -0.289801

  @DF-RHF Final Energy:  -531.45110669122198

   => Energetics <=

    Nuclear Repulsion Energy =            714.7521797494671318
    One-Electron Energy =               -2138.0502441411877044
    Two-Electron Energy =                 891.8469577004985922
    Total Energy =                       -531.4511066912219803
  Basis Set: (AUG-CC-PVTZ AUX)
    Blend: AUG-CC-PVTZ-RI
    Molecular point group: c1

    Geometry (in Angstrom), charge = 0, multiplicity = 1:

       Center              X                  Y                   Z               Mass
    ------------   -----------------  -----------------  -----------------  -----------------
         N            1.440483243305     0.920711607224    -0.555684141817    14.003074004430
         N           -0.868888756695     2.166405607224     0.507706858183    14.003074004430
         C           -0.647671756695    -0.164527492776    -0.074287941817    12.000000000000
         C            0.830080243305    -0.162479392776    -0.018555141817    12.000000000000
         C           -1.445686756695     0.937059607224     0.180597858183    12.000000000000
         C           -1.277168756695    -1.435826392776    -0.322945141817    12.000000000000
         C           -2.842359756695     0.788946607224     0.196232858183    12.000000000000
         C            1.566042243305    -1.217836392776     0.545412858183    12.000000000000
         C           -2.663588756695    -1.563425392776    -0.322660141817    12.000000000000
         C           -3.447254756695    -0.437949392776    -0.060267141817    12.000000000000
         C            2.957131243305    -1.177007392776     0.514493858183    12.000000000000
         C            3.584295243305    -0.071459392776    -0.059280141817    12.000000000000
         C            2.784017243305     0.951951607224    -0.564949141817    12.000000000000
         H           -0.658245756695    -2.300401392776    -0.555558141817     1.007825032230
         H           -3.458097756695     1.665755607224     0.393079858183     1.007825032230
         H            1.045525243305    -2.047152392776     1.015413858183     1.007825032230
         H           -3.126151756695    -2.521314392776    -0.545240141817     1.007825032230
         H           -4.532394756695    -0.512754392776    -0.052336141817     1.007825032230
         H            3.541619243305    -1.986267392776     0.945794858183     1.007825032230
         H            0.019313243305     2.311923607224     0.034184858183     1.007825032230
         H           -1.502262756695     2.947934607224     0.373394858183     1.007825032230
         H            4.666933243305     0.006564607224    -0.101720141817     1.007825032230
         H            3.231695243305     1.841868607224    -1.004627141817     1.007825032230

  Basis Set: AUG-CC-PVTZ
    Blend: AUG-CC-PVTZ
  Basis Set: (AUG-CC-PVTZ AUX)
    Blend: AUG-CC-PVTZ-JKFIT
	 Reference Energy          =    -531.4511066912219803 [Eh]
	 Singles Energy            =      -0.0000000000000000 [Eh]
	 Same-Spin Energy          =      -0.5965001613468250 [Eh]
	 Opposite-Spin Energy      =      -1.8210498932527948 [Eh]
	 Correlation Energy        =      -2.4175500545996198 [Eh]
	 Total Energy              =    -533.8686567458215677 [Eh]

	 ================> DF-SCS-MP2 Energies <==================
	-----------------------------------------------------------
	 SCS Same-Spin Scale       =       0.3333333333333333 [-]
	 SCS Opposite-Spin Scale   =       1.2000000000000000 [-]
	 SCS Same-Spin Energy      =      -0.1988333871156083 [Eh]
	 SCS Opposite-Spin Energy  =      -2.1852598719033538 [Eh]
	 SCS Correlation Energy    =      -2.3840932590189623 [Eh]
	 SCS Total Energy          =    -533.8351999502409626 [Eh]
	-----------------------------------------------------------

  Dipole Moment: [D]
     X:     1.4845      Y:    -0.4699      Z:     0.0110     Total:     1.5571

*** Psi4 exiting successfully. Buy a developer a beer!
