                               Psi4 1.4a3.dev225

  ==> Input File <==

--------------------------------------------------------------------------
#psi4
#
memory 32 gb

molecule  {
0 1
  N        1.4447430     0.9271060    -0.5600120
  N       -0.8646290     2.1728000     0.5033790
  C       -0.6433280    -0.2041590    -0.0552500
  C        0.8343400    -0.1560850    -0.0228830
  C       -1.4414270     0.9434540     0.1762700
  C       -1.2729090    -1.4294320    -0.3272730
  C       -2.8381000     0.7953410     0.1919050
  C        1.5703020    -1.2114420     0.5410850
  C       -2.6593290    -1.5570310    -0.3269880
  C       -3.4429950    -0.4315550    -0.0645950
  C        2.9613910    -1.1706130     0.5101660
  C        3.5885550    -0.0650650    -0.0636080
  C        2.7882770     0.9583460    -0.5692770
  H       -0.6539860    -2.2940070    -0.5598860
  H       -3.4538380     1.6721500     0.3887520
  H        1.0497850    -2.0407580     1.0110860
  H       -3.1218920    -2.5149200    -0.5495680
  H       -4.5281350    -0.5063600    -0.0566640
  H        3.5458790    -1.9798730     0.9414670
  H        0.0235730     2.3183180     0.0298570
  H       -1.4980030     2.9543290     0.3690670
  H        4.6711930     0.0129590    -0.1060480
  H        3.2441776     1.8646084    -1.0170307
units angstrom
no_reorient  #important for SAPT in psi4, default
symmetry c1  #important for SAPT in psi4, default
}

set PROPERTIES_ORIGIN ["COM"]
properties('MP2/aug-cc-pvtz', properties = ['dipole'])
--------------------------------------------------------------------------

    Molecular point group: c1
  Charge       = 0
  Multiplicity = 1
  Basis Set: AUG-CC-PVTZ
    Blend: AUG-CC-PVTZ
  Basis Set: (AUG-CC-PVTZ AUX)
    Blend: AUG-CC-PVTZ-JKFIT

    Orbital Energies [Eh]
    ---------------------

    Doubly Occupied:

       1A    -15.569046     2A    -15.551100     3A    -11.290243
       4A    -11.283712     5A    -11.280956     6A    -11.263628
       7A    -11.242906     8A    -11.242071     9A    -11.239236
      10A    -11.238246    11A    -11.234640    12A    -11.224008
      13A    -11.221278    14A     -1.262607    15A     -1.214039
      16A     -1.127961    17A     -1.089142    18A     -1.061160
      19A     -0.997675    20A     -0.980635    21A     -0.871587
      22A     -0.863617    23A     -0.816654    24A     -0.800605
      25A     -0.717984    26A     -0.690604    27A     -0.684923
      28A     -0.662920    29A     -0.653330    30A     -0.626001
      31A     -0.594961    32A     -0.592321    33A     -0.586228
      34A     -0.574173    35A     -0.550762    36A     -0.536453
      37A     -0.519973    38A     -0.501334    39A     -0.493640
      40A     -0.445286    41A     -0.420801    42A     -0.389132
      43A     -0.368748    44A     -0.319203    45A     -0.286706

  @DF-RHF Final Energy:  -531.45283755109222

   => Energetics <=

    Nuclear Repulsion Energy =            714.5317572237163404
    One-Electron Energy =               -2137.6047145590473519
    Two-Electron Energy =                 891.6201197842387955
    Total Energy =                       -531.4528375510922160
  Basis Set: (AUG-CC-PVTZ AUX)
    Blend: AUG-CC-PVTZ-RI
    Molecular point group: c1

    Geometry (in Angstrom), charge = 0, multiplicity = 1:

       Center              X                  Y                   Z               Mass
    ------------   -----------------  -----------------  -----------------  -----------------
         N            1.440428594306     0.923862028438    -0.557284821891    14.003074004430
         N           -0.868943405694     2.169556028438     0.506106178109    14.003074004430
         C           -0.647642405694    -0.207402971562    -0.052522821891    12.000000000000
         C            0.830025594306    -0.159328971562    -0.020155821891    12.000000000000
         C           -1.445741405694     0.940210028438     0.178997178109    12.000000000000
         C           -1.277223405694    -1.432675971562    -0.324545821891    12.000000000000
         C           -2.842414405694     0.792097028438     0.194632178109    12.000000000000
         C            1.565987594306    -1.214685971562     0.543812178109    12.000000000000
         C           -2.663643405694    -1.560274971562    -0.324260821891    12.000000000000
         C           -3.447309405694    -0.434798971562    -0.061867821891    12.000000000000
         C            2.957076594306    -1.173856971562     0.512893178109    12.000000000000
         C            3.584240594306    -0.068308971562    -0.060880821891    12.000000000000
         C            2.783962594306     0.955102028438    -0.566549821891    12.000000000000
         H           -0.658300405694    -2.297250971562    -0.557158821891     1.007825032230
         H           -3.458152405694     1.668906028438     0.391479178109     1.007825032230
         H            1.045470594306    -2.044001971562     1.013813178109     1.007825032230
         H           -3.126206405694    -2.518163971562    -0.546840821891     1.007825032230
         H           -4.532449405694    -0.509603971562    -0.053936821891     1.007825032230
         H            3.541564594306    -1.983116971562     0.944194178109     1.007825032230
         H            0.019258594306     2.315074028438     0.032584178109     1.007825032230
         H           -1.502317405694     2.951085028438     0.371794178109     1.007825032230
         H            4.666878594306     0.009715028438    -0.103320821891     1.007825032230
         H            3.239863194306     1.861364428438    -1.014303521891     1.007825032230

  Basis Set: AUG-CC-PVTZ
    Blend: AUG-CC-PVTZ
  Basis Set: (AUG-CC-PVTZ AUX)
    Blend: AUG-CC-PVTZ-JKFIT
	 Reference Energy          =    -531.4528375510922160 [Eh]
	 Singles Energy            =      -0.0000000000000000 [Eh]
	 Same-Spin Energy          =      -0.5965600202627079 [Eh]
	 Opposite-Spin Energy      =      -1.8209450860495324 [Eh]
	 Correlation Energy        =      -2.4175051063122401 [Eh]
	 Total Energy              =    -533.8703426574044215 [Eh]

	 ================> DF-SCS-MP2 Energies <==================
	-----------------------------------------------------------
	 SCS Same-Spin Scale       =       0.3333333333333333 [-]
	 SCS Opposite-Spin Scale   =       1.2000000000000000 [-]
	 SCS Same-Spin Energy      =      -0.1988533400875693 [Eh]
	 SCS Opposite-Spin Energy  =      -2.1851341032594389 [Eh]
	 SCS Correlation Energy    =      -2.3839874433470083 [Eh]
	 SCS Total Energy          =    -533.8368249944392119 [Eh]
	-----------------------------------------------------------

  Dipole Moment: [D]
     X:     1.5177      Y:    -0.4263      Z:     0.0170     Total:     1.5766

*** Psi4 exiting successfully. Buy a developer a beer!
