                               Psi4 1.3.2 release

  ==> Input File <==

--------------------------------------------------------------------------
#psi4
#
memory 32 gb

molecule  {
0 1
  N        1.3589558     0.9613196    -0.5801866
  N       -0.8646290     2.1728000     0.5033790
  C       -0.6433280    -0.2041590    -0.0552500
  C        0.8343400    -0.1560850    -0.0228830
  C       -1.4414270     0.9434540     0.1762700
  C       -1.2729090    -1.4294320    -0.3272730
  C       -2.8381000     0.7953410     0.1919050
  C        1.5703020    -1.2114420     0.5410850
  C       -2.6593290    -1.5570310    -0.3269880
  C       -3.4429950    -0.4315550    -0.0645950
  C        2.9613910    -1.1706130     0.5101660
  C        3.5885550    -0.0650650    -0.0636080
  C        2.7882770     0.9583460    -0.5692770
  H       -0.6539860    -2.2940070    -0.5598860
  H       -3.4538380     1.6721500     0.3887520
  H        1.0497850    -2.0407580     1.0110860
  H       -3.1218920    -2.5149200    -0.5495680
  H       -4.5281350    -0.5063600    -0.0566640
  H        3.5458790    -1.9798730     0.9414670
  H        0.0235730     2.3183180     0.0298570
  H       -1.4980030     2.9543290     0.3690670
  H        4.6711930     0.0129590    -0.1060480
  H        3.2359550     1.8482630    -1.0089550
units angstrom
no_reorient  #important for SAPT in psi4, default
symmetry c1  #important for SAPT in psi4, default
}

set PROPERTIES_ORIGIN ["COM"]
properties('MP2/aug-cc-pvtz', properties = ['dipole'])
--------------------------------------------------------------------------

    Molecular point group: c1
  Charge       = 0
  Multiplicity = 1
  Basis Set: AUG-CC-PVTZ
    Blend: AUG-CC-PVTZ
  Basis Set: (AUG-CC-PVTZ AUX)
    Blend: AUG-CC-PVTZ-JKFIT

    Orbital Energies [Eh]
    ---------------------

    Doubly Occupied:

       1A    -15.579838     2A    -15.548161     3A    -11.291384
       4A    -11.291092     5A    -11.279458     6A    -11.267889
       7A    -11.246491     8A    -11.244013     9A    -11.237668
      10A    -11.236934    11A    -11.232156    12A    -11.222795
      13A    -11.220022    14A     -1.250333    15A     -1.209227
      16A     -1.125906    17A     -1.093057    18A     -1.055646
      19A     -0.996761    20A     -0.979715    21A     -0.870323
      22A     -0.865690    23A     -0.814800    24A     -0.796235
      25A     -0.717360    26A     -0.688046    27A     -0.683919
      28A     -0.663289    29A     -0.650695    30A     -0.626339
      31A     -0.593129    32A     -0.591670    33A     -0.585375
      34A     -0.573038    35A     -0.545125    36A     -0.535273
      37A     -0.514878    38A     -0.498117    39A     -0.493186
      40A     -0.444610    41A     -0.432348    42A     -0.391511
      43A     -0.362992    44A     -0.319874    45A     -0.286081

  @DF-RHF Final Energy:  -531.44054023657361

   => Energetics <=

    Nuclear Repulsion Energy =            713.8605595402548261
    One-Electron Energy =               -2136.2972965014378133
    Two-Electron Energy =                 890.9961967246093764
    Total Energy =                       -531.4405402365736109
  Basis Set: (AUG-CC-PVTZ AUX)
    Blend: AUG-CC-PVTZ-RI
    Molecular point group: c1

    Geometry (in Angstrom), charge = 0, multiplicity = 1:

       Center              X                  Y                   Z               Mass
    ------------   -----------------  -----------------  -----------------  -----------------
         N            1.361752989868     0.955355671323    -0.575846296132    14.003074004430
         N           -0.861831810132     2.166836071323     0.507719303868    14.003074004430
         C           -0.640530810132    -0.210122928677    -0.050909696132    12.000000000000
         C            0.837137189868    -0.162048928677    -0.018542696132    12.000000000000
         C           -1.438629810132     0.937490071323     0.180610303868    12.000000000000
         C           -1.270111810132    -1.435395928677    -0.322932696132    12.000000000000
         C           -2.835302810132     0.789377071323     0.196245303868    12.000000000000
         C            1.573099189868    -1.217405928677     0.545425303868    12.000000000000
         C           -2.656531810132    -1.562994928677    -0.322647696132    12.000000000000
         C           -3.440197810132    -0.437518928677    -0.060254696132    12.000000000000
         C            2.964188189868    -1.176576928677     0.514506303868    12.000000000000
         C            3.591352189868    -0.071028928677    -0.059267696132    12.000000000000
         C            2.791074189868     0.952382071323    -0.564936696132    12.000000000000
         H           -0.651188810132    -2.299970928677    -0.555545696132     1.007825032230
         H           -3.451040810132     1.666186071323     0.393092303868     1.007825032230
         H            1.052582189868    -2.046721928677     1.015426303868     1.007825032230
         H           -3.119094810132    -2.520883928677    -0.545227696132     1.007825032230
         H           -4.525337810132    -0.512323928677    -0.052323696132     1.007825032230
         H            3.548676189868    -1.985836928677     0.945807303868     1.007825032230
         H            0.026370189868     2.312354071323     0.034197303868     1.007825032230
         H           -1.495205810132     2.948365071323     0.373407303868     1.007825032230
         H            4.673990189868     0.006995071323    -0.101707696132     1.007825032230
         H            3.238752189868     1.842299071323    -1.004614696132     1.007825032230

  Basis Set: AUG-CC-PVTZ
    Blend: AUG-CC-PVTZ
  Basis Set: (AUG-CC-PVTZ AUX)
    Blend: AUG-CC-PVTZ-JKFIT
	 Reference Energy          =    -531.4405402365736109 [Eh]
	 Singles Energy            =      -0.0000000000000000 [Eh]
	 Same-Spin Energy          =      -0.5975835101277293 [Eh]
	 Opposite-Spin Energy      =      -1.8243865286006660 [Eh]
	 Correlation Energy        =      -2.4219700387283951 [Eh]
	 Total Energy              =    -533.8625102753020428 [Eh]

	 ================> DF-SCS-MP2 Energies <==================
	-----------------------------------------------------------
	 SCS Same-Spin Scale       =       0.3333333333333333 [-]
	 SCS Opposite-Spin Scale   =       1.2000000000000000 [-]
	 SCS Same-Spin Energy      =      -0.1991945033759097 [Eh]
	 SCS Opposite-Spin Energy  =      -2.1892638343207991 [Eh]
	 SCS Correlation Energy    =      -2.3884583376967088 [Eh]
	 SCS Total Energy          =    -533.8289985742703720 [Eh]
	-----------------------------------------------------------

  Dipole Moment: [D]
     X:     1.7420      Y:    -0.5037      Z:     0.0511     Total:     1.8141

*** Psi4 exiting successfully. Buy a developer a beer!
