                               Psi4 1.3.2 release

  ==> Input File <==

--------------------------------------------------------------------------
#psi4
#
memory 32 gb

molecule  {
0 1
  N        1.4447430     0.9271060    -0.5600120
  N       -0.8646290     2.1728000     0.5033790
  C       -0.6433280    -0.2041590    -0.0552500
  C        0.7526644    -0.2036273     0.0032591
  C       -1.4414270     0.9434540     0.1762700
  C       -1.2729090    -1.4294320    -0.3272730
  C       -2.8381000     0.7953410     0.1919050
  C        1.5703020    -1.2114420     0.5410850
  C       -2.6593290    -1.5570310    -0.3269880
  C       -3.4429950    -0.4315550    -0.0645950
  C        2.9613910    -1.1706130     0.5101660
  C        3.5885550    -0.0650650    -0.0636080
  C        2.7882770     0.9583460    -0.5692770
  H       -0.6539860    -2.2940070    -0.5598860
  H       -3.4538380     1.6721500     0.3887520
  H        1.0497850    -2.0407580     1.0110860
  H       -3.1218920    -2.5149200    -0.5495680
  H       -4.5281350    -0.5063600    -0.0566640
  H        3.5458790    -1.9798730     0.9414670
  H        0.0235730     2.3183180     0.0298570
  H       -1.4980030     2.9543290     0.3690670
  H        4.6711930     0.0129590    -0.1060480
  H        3.2359550     1.8482630    -1.0089550
units angstrom
no_reorient  #important for SAPT in psi4, default
symmetry c1  #important for SAPT in psi4, default
}

set PROPERTIES_ORIGIN ["COM"]
properties('MP2/aug-cc-pvtz', properties = ['dipole'])
--------------------------------------------------------------------------

    Molecular point group: c1
  Charge       = 0
  Multiplicity = 1
  Basis Set: AUG-CC-PVTZ
    Blend: AUG-CC-PVTZ
  Basis Set: (AUG-CC-PVTZ AUX)
    Blend: AUG-CC-PVTZ-JKFIT

    Orbital Energies [Eh]
    ---------------------

    Doubly Occupied:

       1A    -15.569322     2A    -15.553101     3A    -11.291402
       4A    -11.285867     5A    -11.279079     6A    -11.262427
       7A    -11.242381     8A    -11.242195     9A    -11.241158
      10A    -11.240580    11A    -11.232005    12A    -11.226686
      13A    -11.223434    14A     -1.244059    15A     -1.213071
      16A     -1.133512    17A     -1.081061    18A     -1.070661
      19A     -0.998212    20A     -0.983374    21A     -0.878604
      22A     -0.859394    23A     -0.816450    24A     -0.800434
      25A     -0.721344    26A     -0.690892    27A     -0.687431
      28A     -0.668364    29A     -0.643927    30A     -0.626773
      31A     -0.599959    32A     -0.596036    33A     -0.588666
      34A     -0.573448    35A     -0.544375    36A     -0.537018
      37A     -0.516461    38A     -0.502598    39A     -0.499146
      40A     -0.447746    41A     -0.413225    42A     -0.381904
      43A     -0.374486    44A     -0.317577    45A     -0.285258

  @DF-RHF Final Energy:  -531.43676392934594

   => Energetics <=

    Nuclear Repulsion Energy =            714.5445198626318870
    One-Electron Energy =               -2137.5923639449561051
    Two-Electron Energy =                 891.6110801529782748
    Total Energy =                       -531.4367639293459433
  Basis Set: (AUG-CC-PVTZ AUX)
    Blend: AUG-CC-PVTZ-RI
    Molecular point group: c1

    Geometry (in Angstrom), charge = 0, multiplicity = 1:

       Center              X                  Y                   Z               Mass
    ------------   -----------------  -----------------  -----------------  -----------------
         N            1.446239792463     0.927313143937    -0.559177083002    14.003074004430
         N           -0.863132207537     2.173007143937     0.504213916998    14.003074004430
         C           -0.641831207537    -0.203951856063    -0.054415083002    12.000000000000
         C            0.754161192463    -0.203420156063     0.004094016998    12.000000000000
         C           -1.439930207537     0.943661143937     0.177104916998    12.000000000000
         C           -1.271412207537    -1.429224856063    -0.326438083002    12.000000000000
         C           -2.836603207537     0.795548143937     0.192739916998    12.000000000000
         C            1.571798792463    -1.211234856063     0.541919916998    12.000000000000
         C           -2.657832207537    -1.556823856063    -0.326153083002    12.000000000000
         C           -3.441498207537    -0.431347856063    -0.063760083002    12.000000000000
         C            2.962887792463    -1.170405856063     0.511000916998    12.000000000000
         C            3.590051792463    -0.064857856063    -0.062773083002    12.000000000000
         C            2.789773792463     0.958553143937    -0.568442083002    12.000000000000
         H           -0.652489207537    -2.293799856063    -0.559051083002     1.007825032230
         H           -3.452341207537     1.672357143937     0.389586916998     1.007825032230
         H            1.051281792463    -2.040550856063     1.011920916998     1.007825032230
         H           -3.120395207537    -2.514712856063    -0.548733083002     1.007825032230
         H           -4.526638207537    -0.506152856063    -0.055829083002     1.007825032230
         H            3.547375792463    -1.979665856063     0.942301916998     1.007825032230
         H            0.025069792463     2.318525143937     0.030691916998     1.007825032230
         H           -1.496506207537     2.954536143937     0.369901916998     1.007825032230
         H            4.672689792463     0.013166143937    -0.105213083002     1.007825032230
         H            3.237451792463     1.848470143937    -1.008120083002     1.007825032230

  Basis Set: AUG-CC-PVTZ
    Blend: AUG-CC-PVTZ
  Basis Set: (AUG-CC-PVTZ AUX)
    Blend: AUG-CC-PVTZ-JKFIT
	 Reference Energy          =    -531.4367639293459433 [Eh]
	 Singles Energy            =      -0.0000000000000000 [Eh]
	 Same-Spin Energy          =      -0.5986073360440556 [Eh]
	 Opposite-Spin Energy      =      -1.8246929074588367 [Eh]
	 Correlation Energy        =      -2.4233002435028923 [Eh]
	 Total Energy              =    -533.8600641728488654 [Eh]

	 ================> DF-SCS-MP2 Energies <==================
	-----------------------------------------------------------
	 SCS Same-Spin Scale       =       0.3333333333333333 [-]
	 SCS Opposite-Spin Scale   =       1.2000000000000000 [-]
	 SCS Same-Spin Energy      =      -0.1995357786813519 [Eh]
	 SCS Opposite-Spin Energy  =      -2.1896314889506039 [Eh]
	 SCS Correlation Energy    =      -2.3891672676319557 [Eh]
	 SCS Total Energy          =    -533.8259311969778764 [Eh]
	-----------------------------------------------------------

  Dipole Moment: [D]
     X:     1.1752      Y:    -0.4116      Z:     0.0262     Total:     1.2455

*** Psi4 exiting successfully. Buy a developer a beer!
