                               Psi4 1.3.2 release

  ==> Input File <==

--------------------------------------------------------------------------
#psi4
#
memory 32 gb

molecule  {
0 1
  N        1.4447430     0.9271060    -0.5600120
  N       -0.8646290     2.1728000     0.5033790
  C       -0.6433280    -0.2041590    -0.0552500
  C        0.8343400    -0.1560850    -0.0228830
  C       -1.4224521     0.9386604     0.1617350
  C       -1.2729090    -1.4294320    -0.3272730
  C       -2.8381000     0.7953410     0.1919050
  C        1.5703020    -1.2114420     0.5410850
  C       -2.6593290    -1.5570310    -0.3269880
  C       -3.4429950    -0.4315550    -0.0645950
  C        2.9613910    -1.1706130     0.5101660
  C        3.5885550    -0.0650650    -0.0636080
  C        2.7882770     0.9583460    -0.5692770
  H       -0.6539860    -2.2940070    -0.5598860
  H       -3.4538380     1.6721500     0.3887520
  H        1.0497850    -2.0407580     1.0110860
  H       -3.1218920    -2.5149200    -0.5495680
  H       -4.5281350    -0.5063600    -0.0566640
  H        3.5458790    -1.9798730     0.9414670
  H        0.0235730     2.3183180     0.0298570
  H       -1.4980030     2.9543290     0.3690670
  H        4.6711930     0.0129590    -0.1060480
  H        3.2359550     1.8482630    -1.0089550
units angstrom
no_reorient  #important for SAPT in psi4, default
symmetry c1  #important for SAPT in psi4, default
}

set PROPERTIES_ORIGIN ["COM"]
properties('MP2/aug-cc-pvtz', properties = ['dipole'])
--------------------------------------------------------------------------

    Molecular point group: c1
  Charge       = 0
  Multiplicity = 1
  Basis Set: AUG-CC-PVTZ
    Blend: AUG-CC-PVTZ
  Basis Set: (AUG-CC-PVTZ AUX)
    Blend: AUG-CC-PVTZ-JKFIT

    Orbital Energies [Eh]
    ---------------------

    Doubly Occupied:

       1A    -15.568769     2A    -15.551355     3A    -11.289791
       4A    -11.281387     5A    -11.281021     6A    -11.263446
       7A    -11.242595     8A    -11.241836     9A    -11.239252
      10A    -11.237825    11A    -11.232795    12A    -11.226156
      13A    -11.221377    14A     -1.262671    15A     -1.214146
      16A     -1.128147    17A     -1.088942    18A     -1.061361
      19A     -0.996848    20A     -0.981059    21A     -0.870797
      22A     -0.864833    23A     -0.818779    24A     -0.799363
      25A     -0.718775    26A     -0.690023    27A     -0.685208
      28A     -0.663535    29A     -0.653108    30A     -0.628085
      31A     -0.595480    32A     -0.591991    33A     -0.586082
      34A     -0.574217    35A     -0.550599    36A     -0.536607
      37A     -0.519863    38A     -0.501806    39A     -0.493574
      40A     -0.445389    41A     -0.420747    42A     -0.388986
      43A     -0.368850    44A     -0.318485    45A     -0.287114

  @DF-RHF Final Energy:  -531.45278711126775

   => Energetics <=

    Nuclear Repulsion Energy =            714.7983000388255732
    One-Electron Energy =               -2138.1360222210328175
    Two-Electron Energy =                 891.8849350709394912
    Total Energy =                       -531.4527871112677531
  Basis Set: (AUG-CC-PVTZ AUX)
    Blend: AUG-CC-PVTZ-RI
    Molecular point group: c1

    Geometry (in Angstrom), charge = 0, multiplicity = 1:

       Center              X                  Y                   Z               Mass
    ------------   -----------------  -----------------  -----------------  -----------------
         N            1.439138576761     0.924297085998    -0.556307183089    14.003074004430
         N           -0.870233423239     2.169991085998     0.507083816911    14.003074004430
         C           -0.648932423239    -0.206967914002    -0.051545183089    12.000000000000
         C            0.828735576761    -0.158893914002    -0.019178183089    12.000000000000
         C           -1.428056523239     0.935851485998     0.165439816911    12.000000000000
         C           -1.278513423239    -1.432240914002    -0.323568183089    12.000000000000
         C           -2.843704423239     0.792532085998     0.195609816911    12.000000000000
         C            1.564697576761    -1.214250914002     0.544789816911    12.000000000000
         C           -2.664933423239    -1.559839914002    -0.323283183089    12.000000000000
         C           -3.448599423239    -0.434363914002    -0.060890183089    12.000000000000
         C            2.955786576761    -1.173421914002     0.513870816911    12.000000000000
         C            3.582950576761    -0.067873914002    -0.059903183089    12.000000000000
         C            2.782672576761     0.955537085998    -0.565572183089    12.000000000000
         H           -0.659590423239    -2.296815914002    -0.556181183089     1.007825032230
         H           -3.459442423239     1.669341085998     0.392456816911     1.007825032230
         H            1.044180576761    -2.043566914002     1.014790816911     1.007825032230
         H           -3.127496423239    -2.517728914002    -0.545863183089     1.007825032230
         H           -4.533739423239    -0.509168914002    -0.052959183089     1.007825032230
         H            3.540274576761    -1.982681914002     0.945171816911     1.007825032230
         H            0.017968576761     2.315509085998     0.033561816911     1.007825032230
         H           -1.503607423239     2.951520085998     0.372771816911     1.007825032230
         H            4.665588576761     0.010150085998    -0.102343183089     1.007825032230
         H            3.230350576761     1.845454085998    -1.005250183089     1.007825032230

  Basis Set: AUG-CC-PVTZ
    Blend: AUG-CC-PVTZ
  Basis Set: (AUG-CC-PVTZ AUX)
    Blend: AUG-CC-PVTZ-JKFIT
	 Reference Energy          =    -531.4527871112677531 [Eh]
	 Singles Energy            =      -0.0000000000000000 [Eh]
	 Same-Spin Energy          =      -0.5964919068103971 [Eh]
	 Opposite-Spin Energy      =      -1.8208551109468161 [Eh]
	 Correlation Energy        =      -2.4173470177572129 [Eh]
	 Total Energy              =    -533.8701341290250184 [Eh]

	 ================> DF-SCS-MP2 Energies <==================
	-----------------------------------------------------------
	 SCS Same-Spin Scale       =       0.3333333333333333 [-]
	 SCS Opposite-Spin Scale   =       1.2000000000000000 [-]
	 SCS Same-Spin Energy      =      -0.1988306356034657 [Eh]
	 SCS Opposite-Spin Energy  =      -2.1850261331361791 [Eh]
	 SCS Correlation Energy    =      -2.3838567687396450 [Eh]
	 SCS Total Energy          =    -533.8366438800073865 [Eh]
	-----------------------------------------------------------

  Dipole Moment: [D]
     X:     1.5145      Y:    -0.4117      Z:     0.0143     Total:     1.5695

*** Psi4 exiting successfully. Buy a developer a beer!
