                               Psi4 1.3.2 release

  ==> Input File <==

--------------------------------------------------------------------------
#psi4
#
memory 32 gb

molecule  {
0 1
  N        1.4447430     0.9271060    -0.5600120
  N       -0.8646290     2.1728000     0.5033790
  C       -0.6414436    -0.2501264    -0.0318448
  C        0.8343400    -0.1560850    -0.0228830
  C       -1.4414270     0.9434540     0.1762700
  C       -1.2729090    -1.4294320    -0.3272730
  C       -2.8381000     0.7953410     0.1919050
  C        1.5703020    -1.2114420     0.5410850
  C       -2.6593290    -1.5570310    -0.3269880
  C       -3.4429950    -0.4315550    -0.0645950
  C        2.9613910    -1.1706130     0.5101660
  C        3.5885550    -0.0650650    -0.0636080
  C        2.7882770     0.9583460    -0.5692770
  H       -0.6539860    -2.2940070    -0.5598860
  H       -3.4538380     1.6721500     0.3887520
  H        1.0497850    -2.0407580     1.0110860
  H       -3.1218920    -2.5149200    -0.5495680
  H       -4.5281350    -0.5063600    -0.0566640
  H        3.5458790    -1.9798730     0.9414670
  H        0.0235730     2.3183180     0.0298570
  H       -1.4980030     2.9543290     0.3690670
  H        4.6711930     0.0129590    -0.1060480
  H        3.2359550     1.8482630    -1.0089550
units angstrom
no_reorient  #important for SAPT in psi4, default
symmetry c1  #important for SAPT in psi4, default
}

set PROPERTIES_ORIGIN ["COM"]
properties('MP2/aug-cc-pvtz', properties = ['dipole'])
--------------------------------------------------------------------------

    Molecular point group: c1
  Charge       = 0
  Multiplicity = 1
  Basis Set: AUG-CC-PVTZ
    Blend: AUG-CC-PVTZ
  Basis Set: (AUG-CC-PVTZ AUX)
    Blend: AUG-CC-PVTZ-JKFIT

    Orbital Energies [Eh]
    ---------------------

    Doubly Occupied:

       1A    -15.569945     2A    -15.553050     3A    -11.290264
       4A    -11.284708     5A    -11.282085     6A    -11.263258
       7A    -11.242921     8A    -11.241285     9A    -11.237867
      10A    -11.236313    11A    -11.234923    12A    -11.222199
      13A    -11.219969    14A     -1.262599    15A     -1.213427
      16A     -1.130367    17A     -1.088980    18A     -1.062322
      19A     -1.000731    20A     -0.977281    21A     -0.871286
      22A     -0.864697    23A     -0.813597    24A     -0.803092
      25A     -0.719178    26A     -0.691800    27A     -0.684580
      28A     -0.662915    29A     -0.655031    30A     -0.626523
      31A     -0.595507    32A     -0.591409    33A     -0.587519
      34A     -0.574444    35A     -0.550641    36A     -0.536514
      37A     -0.520612    38A     -0.504360    39A     -0.488882
      40A     -0.447230    41A     -0.420327    42A     -0.389263
      43A     -0.370104    44A     -0.321294    45A     -0.283645

  @DF-RHF Final Energy:  -531.45107007580452

   => Energetics <=

    Nuclear Repulsion Energy =            714.5158962091251169
    One-Electron Energy =               -2137.5560448542419181
    Two-Electron Energy =                 891.5890785693123917
    Total Energy =                       -531.4510700758045232
  Basis Set: (AUG-CC-PVTZ AUX)
    Blend: AUG-CC-PVTZ-RI
    Molecular point group: c1

    Geometry (in Angstrom), charge = 0, multiplicity = 1:

       Center              X                  Y                   Z               Mass
    ------------   -----------------  -----------------  -----------------  -----------------
         N            1.440344366369     0.927202029690    -0.558983985926    14.003074004430
         N           -0.869027633631     2.172896029690     0.504407014074    14.003074004430
         C           -0.645842233631    -0.250030370310    -0.030816785926    12.000000000000
         C            0.829941366369    -0.155988970310    -0.021854985926    12.000000000000
         C           -1.445825633631     0.943550029690     0.177298014074    12.000000000000
         C           -1.277307633631    -1.429335970310    -0.326244985926    12.000000000000
         C           -2.842498633631     0.795437029690     0.192933014074    12.000000000000
         C            1.565903366369    -1.211345970310     0.542113014074    12.000000000000
         C           -2.663727633631    -1.556934970310    -0.325959985926    12.000000000000
         C           -3.447393633631    -0.431458970310    -0.063566985926    12.000000000000
         C            2.956992366369    -1.170516970310     0.511194014074    12.000000000000
         C            3.584156366369    -0.064968970310    -0.062579985926    12.000000000000
         C            2.783878366369     0.958442029690    -0.568248985926    12.000000000000
         H           -0.658384633631    -2.293910970310    -0.558857985926     1.007825032230
         H           -3.458236633631     1.672246029690     0.389780014074     1.007825032230
         H            1.045386366369    -2.040661970310     1.012114014074     1.007825032230
         H           -3.126290633631    -2.514823970310    -0.548539985926     1.007825032230
         H           -4.532533633631    -0.506263970310    -0.055635985926     1.007825032230
         H            3.541480366369    -1.979776970310     0.942495014074     1.007825032230
         H            0.019174366369     2.318414029690     0.030885014074     1.007825032230
         H           -1.502401633631     2.954425029690     0.370095014074     1.007825032230
         H            4.666794366369     0.013055029690    -0.105019985926     1.007825032230
         H            3.231556366369     1.848359029690    -1.007926985926     1.007825032230

  Basis Set: AUG-CC-PVTZ
    Blend: AUG-CC-PVTZ
  Basis Set: (AUG-CC-PVTZ AUX)
    Blend: AUG-CC-PVTZ-JKFIT
	 Reference Energy          =    -531.4510700758045232 [Eh]
	 Singles Energy            =      -0.0000000000000000 [Eh]
	 Same-Spin Energy          =      -0.5964843523230321 [Eh]
	 Opposite-Spin Energy      =      -1.8207322254105778 [Eh]
	 Correlation Energy        =      -2.4172165777336101 [Eh]
	 Total Energy              =    -533.8682866535381208 [Eh]

	 ================> DF-SCS-MP2 Energies <==================
	-----------------------------------------------------------
	 SCS Same-Spin Scale       =       0.3333333333333333 [-]
	 SCS Opposite-Spin Scale   =       1.2000000000000000 [-]
	 SCS Same-Spin Energy      =      -0.1988281174410107 [Eh]
	 SCS Opposite-Spin Energy  =      -2.1848786704926932 [Eh]
	 SCS Correlation Energy    =      -2.3837067879337042 [Eh]
	 SCS Total Energy          =    -533.8347768637381705 [Eh]
	-----------------------------------------------------------

  Dipole Moment: [D]
     X:     1.5672      Y:    -0.3761      Z:     0.0162     Total:     1.6118

*** Psi4 exiting successfully. Buy a developer a beer!
