                               Psi4 1.3.2 release

  ==> Input File <==

--------------------------------------------------------------------------
#psi4
#
memory 32 gb

molecule  {
0 1
  N        1.4447430     0.9271060    -0.5600120
  N       -0.8646290     2.1728000     0.5033790
  C       -0.6433280    -0.2041590    -0.0552500
  C        0.7526888    -0.2027612     0.0048481
  C       -1.4414270     0.9434540     0.1762700
  C       -1.2729090    -1.4294320    -0.3272730
  C       -2.8381000     0.7953410     0.1919050
  C        1.5703020    -1.2114420     0.5410850
  C       -2.6593290    -1.5570310    -0.3269880
  C       -3.4429950    -0.4315550    -0.0645950
  C        2.9613910    -1.1706130     0.5101660
  C        3.5885550    -0.0650650    -0.0636080
  C        2.7882770     0.9583460    -0.5692770
  H       -0.6539860    -2.2940070    -0.5598860
  H       -3.4538380     1.6721500     0.3887520
  H        1.0497850    -2.0407580     1.0110860
  H       -3.1218920    -2.5149200    -0.5495680
  H       -4.5281350    -0.5063600    -0.0566640
  H        3.5458790    -1.9798730     0.9414670
  H        0.0235730     2.3183180     0.0298570
  H       -1.4980030     2.9543290     0.3690670
  H        4.6711930     0.0129590    -0.1060480
  H        3.2359550     1.8482630    -1.0089550
units angstrom
no_reorient  #important for SAPT in psi4, default
symmetry c1  #important for SAPT in psi4, default
}

set PROPERTIES_ORIGIN ["COM"]
properties('MP2/aug-cc-pvtz', properties = ['dipole'])
--------------------------------------------------------------------------

    Molecular point group: c1
  Charge       = 0
  Multiplicity = 1
  Basis Set: AUG-CC-PVTZ
    Blend: AUG-CC-PVTZ
  Basis Set: (AUG-CC-PVTZ AUX)
    Blend: AUG-CC-PVTZ-JKFIT

    Orbital Energies [Eh]
    ---------------------

    Doubly Occupied:

       1A    -15.569329     2A    -15.553100     3A    -11.291396
       4A    -11.285841     5A    -11.279086     6A    -11.262433
       7A    -11.242388     8A    -11.242188     9A    -11.241156
      10A    -11.240592    11A    -11.232006    12A    -11.226675
      13A    -11.223436    14A     -1.244075    15A     -1.213074
      16A     -1.133495    17A     -1.081070    18A     -1.070643
      19A     -0.998210    20A     -0.983375    21A     -0.878603
      22A     -0.859399    23A     -0.816442    24A     -0.800429
      25A     -0.721339    26A     -0.690892    27A     -0.687428
      28A     -0.668361    29A     -0.643941    30A     -0.626772
      31A     -0.599960    32A     -0.596015    33A     -0.588672
      34A     -0.573458    35A     -0.544374    36A     -0.537019
      37A     -0.516445    38A     -0.502649    39A     -0.499113
      40A     -0.447741    41A     -0.413220    42A     -0.381926
      43A     -0.374455    44A     -0.317589    45A     -0.285263

  @DF-RHF Final Energy:  -531.43678813828933

   => Energetics <=

    Nuclear Repulsion Energy =            714.5460519540746418
    One-Electron Energy =               -2137.5955346541281870
    Two-Electron Energy =                 891.6126945617641013
    Total Energy =                       -531.4367881382893302
  Basis Set: (AUG-CC-PVTZ AUX)
    Blend: AUG-CC-PVTZ-RI
    Molecular point group: c1

    Geometry (in Angstrom), charge = 0, multiplicity = 1:

       Center              X                  Y                   Z               Mass
    ------------   -----------------  -----------------  -----------------  -----------------
         N            1.446238070964     0.927252037804    -0.559289192051    14.003074004430
         N           -0.863133929036     2.172946037804     0.504101807949    14.003074004430
         C           -0.641832929036    -0.204012962196    -0.054527192051    12.000000000000
         C            0.754183870964    -0.202615162196     0.005570907949    12.000000000000
         C           -1.439931929036     0.943600037804     0.176992807949    12.000000000000
         C           -1.271413929036    -1.429285962196    -0.326550192051    12.000000000000
         C           -2.836604929036     0.795487037804     0.192627807949    12.000000000000
         C            1.571797070964    -1.211295962196     0.541807807949    12.000000000000
         C           -2.657833929036    -1.556884962196    -0.326265192051    12.000000000000
         C           -3.441499929036    -0.431408962196    -0.063872192051    12.000000000000
         C            2.962886070964    -1.170466962196     0.510888807949    12.000000000000
         C            3.590050070964    -0.064918962196    -0.062885192051    12.000000000000
         C            2.789772070964     0.958492037804    -0.568554192051    12.000000000000
         H           -0.652490929036    -2.293860962196    -0.559163192051     1.007825032230
         H           -3.452342929036     1.672296037804     0.389474807949     1.007825032230
         H            1.051280070964    -2.040611962196     1.011808807949     1.007825032230
         H           -3.120396929036    -2.514773962196    -0.548845192051     1.007825032230
         H           -4.526639929036    -0.506213962196    -0.055941192051     1.007825032230
         H            3.547374070964    -1.979726962196     0.942189807949     1.007825032230
         H            0.025068070964     2.318464037804     0.030579807949     1.007825032230
         H           -1.496507929036     2.954475037804     0.369789807949     1.007825032230
         H            4.672688070964     0.013105037804    -0.105325192051     1.007825032230
         H            3.237450070964     1.848409037804    -1.008232192051     1.007825032230

  Basis Set: AUG-CC-PVTZ
    Blend: AUG-CC-PVTZ
  Basis Set: (AUG-CC-PVTZ AUX)
    Blend: AUG-CC-PVTZ-JKFIT
	 Reference Energy          =    -531.4367881382893302 [Eh]
	 Singles Energy            =      -0.0000000000000000 [Eh]
	 Same-Spin Energy          =      -0.5986057452851801 [Eh]
	 Opposite-Spin Energy      =      -1.8246903372998171 [Eh]
	 Correlation Energy        =      -2.4232960825849972 [Eh]
	 Total Energy              =    -533.8600842208743416 [Eh]

	 ================> DF-SCS-MP2 Energies <==================
	-----------------------------------------------------------
	 SCS Same-Spin Scale       =       0.3333333333333333 [-]
	 SCS Opposite-Spin Scale   =       1.2000000000000000 [-]
	 SCS Same-Spin Energy      =      -0.1995352484283933 [Eh]
	 SCS Opposite-Spin Energy  =      -2.1896284047597803 [Eh]
	 SCS Correlation Energy    =      -2.3891636531881737 [Eh]
	 SCS Total Energy          =    -533.8259517914774506 [Eh]
	-----------------------------------------------------------

  Dipole Moment: [D]
     X:     1.1762      Y:    -0.4117      Z:     0.0266     Total:     1.2465

*** Psi4 exiting successfully. Buy a developer a beer!
