                               Psi4 1.3.2 release

  ==> Input File <==

--------------------------------------------------------------------------
#psi4
#
memory 32 gb

molecule  {
0 1
  N        1.4447430     0.9271060    -0.5600120
  N       -0.8646290     2.1728000     0.5033790
  C       -0.6433280    -0.2041590    -0.0552500
  C        0.8331771    -0.1308595    -0.0175483
  C       -1.4414270     0.9434540     0.1762700
  C       -1.2729090    -1.4294320    -0.3272730
  C       -2.8381000     0.7953410     0.1919050
  C        1.5703020    -1.2114420     0.5410850
  C       -2.6593290    -1.5570310    -0.3269880
  C       -3.4429950    -0.4315550    -0.0645950
  C        2.9613910    -1.1706130     0.5101660
  C        3.5885550    -0.0650650    -0.0636080
  C        2.7882770     0.9583460    -0.5692770
  H       -0.6539860    -2.2940070    -0.5598860
  H       -3.4538380     1.6721500     0.3887520
  H        1.0497850    -2.0407580     1.0110860
  H       -3.1218920    -2.5149200    -0.5495680
  H       -4.5281350    -0.5063600    -0.0566640
  H        3.5458790    -1.9798730     0.9414670
  H        0.0235730     2.3183180     0.0298570
  H       -1.4980030     2.9543290     0.3690670
  H        4.6711930     0.0129590    -0.1060480
  H        3.2359550     1.8482630    -1.0089550
units angstrom
no_reorient  #important for SAPT in psi4, default
symmetry c1  #important for SAPT in psi4, default
}

set PROPERTIES_ORIGIN ["COM"]
properties('MP2/aug-cc-pvtz', properties = ['dipole'])
--------------------------------------------------------------------------

    Molecular point group: c1
  Charge       = 0
  Multiplicity = 1
  Basis Set: AUG-CC-PVTZ
    Blend: AUG-CC-PVTZ
  Basis Set: (AUG-CC-PVTZ AUX)
    Blend: AUG-CC-PVTZ-JKFIT

    Orbital Energies [Eh]
    ---------------------

    Doubly Occupied:

       1A    -15.567830     2A    -15.551387     3A    -11.290780
       4A    -11.281134     5A    -11.280644     6A    -11.262698
       7A    -11.243416     8A    -11.242654     9A    -11.239759
      10A    -11.238371    11A    -11.234580    12A    -11.223982
      13A    -11.221570    14A     -1.266285    15A     -1.214503
      16A     -1.127952    17A     -1.089318    18A     -1.060128
      19A     -0.997616    20A     -0.980692    21A     -0.872644
      22A     -0.863401    23A     -0.817698    24A     -0.800373
      25A     -0.718746    26A     -0.691617    27A     -0.684985
      28A     -0.662831    29A     -0.654631    30A     -0.626764
      31A     -0.595183    32A     -0.591740    33A     -0.586362
      34A     -0.574816    35A     -0.551738    36A     -0.536772
      37A     -0.520776    38A     -0.502858    39A     -0.494051
      40A     -0.445447    41A     -0.419017    42A     -0.391095
      43A     -0.366486    44A     -0.319052    45A     -0.286801

  @DF-RHF Final Energy:  -531.45345007439369

   => Energetics <=

    Nuclear Repulsion Energy =            714.7289596891758947
    One-Electron Energy =               -2137.9824574416702490
    Two-Electron Energy =                 891.8000476781005545
    Total Energy =                       -531.4534500743936860
  Basis Set: (AUG-CC-PVTZ AUX)
    Blend: AUG-CC-PVTZ-RI
    Molecular point group: c1

    Geometry (in Angstrom), charge = 0, multiplicity = 1:

       Center              X                  Y                   Z               Mass
    ------------   -----------------  -----------------  -----------------  -----------------
         N            1.440559363161     0.922179142180    -0.557709054174    14.003074004430
         N           -0.868812636839     2.167873142180     0.505681945826    14.003074004430
         C           -0.647511636839    -0.209085857820    -0.052947054174    12.000000000000
         C            0.828993463161    -0.135786357820    -0.015245354174    12.000000000000
         C           -1.445610636839     0.938527142180     0.178572945826    12.000000000000
         C           -1.277092636839    -1.434358857820    -0.324970054174    12.000000000000
         C           -2.842283636839     0.790414142180     0.194207945826    12.000000000000
         C            1.566118363161    -1.216368857820     0.543387945826    12.000000000000
         C           -2.663512636839    -1.561957857820    -0.324685054174    12.000000000000
         C           -3.447178636839    -0.436481857820    -0.062292054174    12.000000000000
         C            2.957207363161    -1.175539857820     0.512468945826    12.000000000000
         C            3.584371363161    -0.069991857820    -0.061305054174    12.000000000000
         C            2.784093363161     0.953419142180    -0.566974054174    12.000000000000
         H           -0.658169636839    -2.298933857820    -0.557583054174     1.007825032230
         H           -3.458021636839     1.667223142180     0.391054945826     1.007825032230
         H            1.045601363161    -2.045684857820     1.013388945826     1.007825032230
         H           -3.126075636839    -2.519846857820    -0.547265054174     1.007825032230
         H           -4.532318636839    -0.511286857820    -0.054361054174     1.007825032230
         H            3.541695363161    -1.984799857820     0.943769945826     1.007825032230
         H            0.019389363161     2.313391142180     0.032159945826     1.007825032230
         H           -1.502186636839     2.949402142180     0.371369945826     1.007825032230
         H            4.667009363161     0.008032142180    -0.103745054174     1.007825032230
         H            3.231771363161     1.843336142180    -1.006652054174     1.007825032230

  Basis Set: AUG-CC-PVTZ
    Blend: AUG-CC-PVTZ
  Basis Set: (AUG-CC-PVTZ AUX)
    Blend: AUG-CC-PVTZ-JKFIT
	 Reference Energy          =    -531.4534500743936860 [Eh]
	 Singles Energy            =      -0.0000000000000000 [Eh]
	 Same-Spin Energy          =      -0.5963737587843416 [Eh]
	 Opposite-Spin Energy      =      -1.8204912812680174 [Eh]
	 Correlation Energy        =      -2.4168650400523592 [Eh]
	 Total Energy              =    -533.8703151144460435 [Eh]

	 ================> DF-SCS-MP2 Energies <==================
	-----------------------------------------------------------
	 SCS Same-Spin Scale       =       0.3333333333333333 [-]
	 SCS Opposite-Spin Scale   =       1.2000000000000000 [-]
	 SCS Same-Spin Energy      =      -0.1987912529281139 [Eh]
	 SCS Opposite-Spin Energy  =      -2.1845895375216209 [Eh]
	 SCS Correlation Energy    =      -2.3833807904497348 [Eh]
	 SCS Total Energy          =    -533.8368308648434777 [Eh]
	-----------------------------------------------------------

  Dipole Moment: [D]
     X:     1.5086      Y:    -0.4144      Z:     0.0120     Total:     1.5645

*** Psi4 exiting successfully. Buy a developer a beer!
