                               Psi4 1.3.2 release

  ==> Input File <==

--------------------------------------------------------------------------
#psi4
#
memory 32 gb

molecule  {
0 1
  N        1.4447430     0.9271060    -0.5600120
  N       -0.8646290     2.1728000     0.5033790
  C       -0.6433280    -0.2041590    -0.0552500
  C        0.8343400    -0.1560850    -0.0228830
  C       -1.4414270     0.9434540     0.1762700
  C       -1.2729090    -1.4294320    -0.3272730
  C       -2.8381000     0.7953410     0.1919050
  C        1.5703020    -1.2114420     0.5410850
  C       -2.6593290    -1.5570310    -0.3269880
  C       -3.4429950    -0.4315550    -0.0645950
  C        2.9613910    -1.1706130     0.5101660
  C        3.5885550    -0.0650650    -0.0636080
  C        2.7882770     0.9583460    -0.5692770
  H       -0.6539860    -2.2940070    -0.5598860
  H       -3.4538380     1.6721500     0.3887520
  H        1.0497850    -2.0407580     1.0110860
  H       -3.1218920    -2.5149200    -0.5495680
  H       -4.5281350    -0.5063600    -0.0566640
  H        3.5458790    -1.9798730     0.9414670
  H        0.0235730     2.3183180     0.0298570
  H       -1.4980030     2.9543290     0.3690670
  H        4.6711930     0.0129590    -0.1060480
  H        3.3181814     2.0117168    -1.0897120
units angstrom
no_reorient  #important for SAPT in psi4, default
symmetry c1  #important for SAPT in psi4, default
}

set PROPERTIES_ORIGIN ["COM"]
properties('MP2/aug-cc-pvtz', properties = ['dipole'])
--------------------------------------------------------------------------

    Molecular point group: c1
  Charge       = 0
  Multiplicity = 1
  Basis Set: AUG-CC-PVTZ
    Blend: AUG-CC-PVTZ
  Basis Set: (AUG-CC-PVTZ AUX)
    Blend: AUG-CC-PVTZ-JKFIT

    Orbital Energies [Eh]
    ---------------------

    Doubly Occupied:

       1A    -15.571412     2A    -15.551606     3A    -11.302815
       4A    -11.292144     5A    -11.281577     6A    -11.265196
       7A    -11.245221     8A    -11.243025     9A    -11.239899
      10A    -11.238798    11A    -11.235395    12A    -11.224499
      13A    -11.221790    14A     -1.263905    15A     -1.214584
      16A     -1.128475    17A     -1.090720    18A     -1.060221
      19A     -0.997262    20A     -0.980754    21A     -0.872416
      22A     -0.858499    23A     -0.814772    24A     -0.800154
      25A     -0.713440    26A     -0.690732    27A     -0.684871
      28A     -0.660553    29A     -0.653637    30A     -0.617958
      31A     -0.593590    32A     -0.588219    33A     -0.584715
      34A     -0.571767    35A     -0.551387    36A     -0.534228
      37A     -0.518296    38A     -0.500281    39A     -0.490354
      40A     -0.445773    41A     -0.419324    42A     -0.390534
      43A     -0.369807    44A     -0.319940    45A     -0.287338

  @DF-RHF Final Energy:  -531.43128544065564

   => Energetics <=

    Nuclear Repulsion Energy =            713.6683935925652804
    One-Electron Energy =               -2135.8355905101320786
    Two-Electron Energy =                 890.7359114769111557
    Total Energy =                       -531.4312854406556426
  Basis Set: (AUG-CC-PVTZ AUX)
    Blend: AUG-CC-PVTZ-RI
    Molecular point group: c1

    Geometry (in Angstrom), charge = 0, multiplicity = 1:

       Center              X                  Y                   Z               Mass
    ------------   -----------------  -----------------  -----------------  -----------------
         N            1.439990089170     0.922990346324    -0.556854153151    14.003074004430
         N           -0.869381910830     2.168684346324     0.506536846849    14.003074004430
         C           -0.648080910830    -0.208274653676    -0.052092153151    12.000000000000
         C            0.829587089170    -0.160200653676    -0.019725153151    12.000000000000
         C           -1.446179910830     0.939338346324     0.179427846849    12.000000000000
         C           -1.277661910830    -1.433547653676    -0.324115153151    12.000000000000
         C           -2.842852910830     0.791225346324     0.195062846849    12.000000000000
         C            1.565549089170    -1.215557653676     0.544242846849    12.000000000000
         C           -2.664081910830    -1.561146653676    -0.323830153151    12.000000000000
         C           -3.447747910830    -0.435670653676    -0.061437153151    12.000000000000
         C            2.956638089170    -1.174728653676     0.513323846849    12.000000000000
         C            3.583802089170    -0.069180653676    -0.060450153151    12.000000000000
         C            2.783524089170     0.954230346324    -0.566119153151    12.000000000000
         H           -0.658738910830    -2.298122653676    -0.556728153151     1.007825032230
         H           -3.458590910830     1.668034346324     0.391909846849     1.007825032230
         H            1.045032089170    -2.044873653676     1.014243846849     1.007825032230
         H           -3.126644910830    -2.519035653676    -0.546410153151     1.007825032230
         H           -4.532887910830    -0.510475653676    -0.053506153151     1.007825032230
         H            3.541126089170    -1.983988653676     0.944624846849     1.007825032230
         H            0.018820089170     2.314202346324     0.033014846849     1.007825032230
         H           -1.502755910830     2.950213346324     0.372224846849     1.007825032230
         H            4.666440089170     0.008843346324    -0.102890153151     1.007825032230
         H            3.313428489170     2.007601146324    -1.086554153151     1.007825032230

  Basis Set: AUG-CC-PVTZ
    Blend: AUG-CC-PVTZ
  Basis Set: (AUG-CC-PVTZ AUX)
    Blend: AUG-CC-PVTZ-JKFIT
	 Reference Energy          =    -531.4312854406556426 [Eh]
	 Singles Energy            =      -0.0000000000000000 [Eh]
	 Same-Spin Energy          =      -0.5971395178653727 [Eh]
	 Opposite-Spin Energy      =      -1.8231172669955351 [Eh]
	 Correlation Energy        =      -2.4202567848609080 [Eh]
	 Total Energy              =    -533.8515422255165959 [Eh]

	 ================> DF-SCS-MP2 Energies <==================
	-----------------------------------------------------------
	 SCS Same-Spin Scale       =       0.3333333333333333 [-]
	 SCS Opposite-Spin Scale   =       1.2000000000000000 [-]
	 SCS Same-Spin Energy      =      -0.1990465059551242 [Eh]
	 SCS Opposite-Spin Energy  =      -2.1877407203946420 [Eh]
	 SCS Correlation Energy    =      -2.3867872263497660 [Eh]
	 SCS Total Energy          =    -533.8180726670053673 [Eh]
	-----------------------------------------------------------

  Dipole Moment: [D]
     X:     1.4113      Y:    -0.5101      Z:     0.0612     Total:     1.5019

*** Psi4 exiting successfully. Buy a developer a beer!
