                               Psi4 1.3.2 release

  ==> Input File <==

--------------------------------------------------------------------------
#psi4
#
memory 32 gb

molecule  {
0 1
  N        1.4447430     0.9271060    -0.5600120
  N       -0.8646290     2.1728000     0.5033790
  C       -0.6433280    -0.2041590    -0.0552500
  C        0.8343400    -0.1560850    -0.0228830
  C       -1.3251465     0.9203566     0.0907085
  C       -1.2729090    -1.4294320    -0.3272730
  C       -2.8381000     0.7953410     0.1919050
  C        1.5703020    -1.2114420     0.5410850
  C       -2.6593290    -1.5570310    -0.3269880
  C       -3.4429950    -0.4315550    -0.0645950
  C        2.9613910    -1.1706130     0.5101660
  C        3.5885550    -0.0650650    -0.0636080
  C        2.7882770     0.9583460    -0.5692770
  H       -0.6539860    -2.2940070    -0.5598860
  H       -3.4538380     1.6721500     0.3887520
  H        1.0497850    -2.0407580     1.0110860
  H       -3.1218920    -2.5149200    -0.5495680
  H       -4.5281350    -0.5063600    -0.0566640
  H        3.5458790    -1.9798730     0.9414670
  H        0.0235730     2.3183180     0.0298570
  H       -1.4980030     2.9543290     0.3690670
  H        4.6711930     0.0129590    -0.1060480
  H        3.2359550     1.8482630    -1.0089550
units angstrom
no_reorient  #important for SAPT in psi4, default
symmetry c1  #important for SAPT in psi4, default
}

set PROPERTIES_ORIGIN ["COM"]
properties('MP2/aug-cc-pvtz', properties = ['dipole'])
--------------------------------------------------------------------------

    Molecular point group: c1
  Charge       = 0
  Multiplicity = 1
  Basis Set: AUG-CC-PVTZ
    Blend: AUG-CC-PVTZ
  Basis Set: (AUG-CC-PVTZ AUX)
    Blend: AUG-CC-PVTZ-JKFIT

    Orbital Energies [Eh]
    ---------------------

    Doubly Occupied:

       1A    -15.568492     2A    -15.552736     3A    -11.288269
       4A    -11.281361     5A    -11.280581     6A    -11.263230
       7A    -11.242097     8A    -11.240986     9A    -11.239309
      10A    -11.236410    11A    -11.235092    12A    -11.224037
      13A    -11.223107    14A     -1.263647    15A     -1.214849
      16A     -1.129809    17A     -1.088696    18A     -1.061994
      19A     -0.997971    20A     -0.978910    21A     -0.867969
      22A     -0.865648    23A     -0.826126    24A     -0.791543
      25A     -0.718844    26A     -0.688340    27A     -0.684883
      28A     -0.664763    29A     -0.652099    30A     -0.634901
      31A     -0.600711    32A     -0.590354    33A     -0.577812
      34A     -0.573198    35A     -0.549699    36A     -0.536303
      37A     -0.519257    38A     -0.508158    39A     -0.481348
      40A     -0.445513    41A     -0.419122    42A     -0.389017
      43A     -0.370270    44A     -0.317260    45A     -0.288614

  @DF-RHF Final Energy:  -531.43198897869001

   => Energetics <=

    Nuclear Repulsion Energy =            715.5740280872573749
    One-Electron Energy =               -2139.6653599088108422
    Two-Electron Energy =                 892.6593428428634525
    Total Energy =                       -531.4319889786900148
  Basis Set: (AUG-CC-PVTZ AUX)
    Blend: AUG-CC-PVTZ-RI
    Molecular point group: c1

    Geometry (in Angstrom), charge = 0, multiplicity = 1:

       Center              X                  Y                   Z               Mass
    ------------   -----------------  -----------------  -----------------  -----------------
         N            1.432273354486     0.925588477814    -0.551296035633    14.003074004430
         N           -0.877098645514     2.171282477814     0.512094964367    14.003074004430
         C           -0.655797645514    -0.205676522186    -0.046534035633    12.000000000000
         C            0.821870354486    -0.157602522186    -0.014167035633    12.000000000000
         C           -1.337616145514     0.918839077814     0.099424464367    12.000000000000
         C           -1.285378645514    -1.430949522186    -0.318557035633    12.000000000000
         C           -2.850569645514     0.793823477814     0.200620964367    12.000000000000
         C            1.557832354486    -1.212959522186     0.549800964367    12.000000000000
         C           -2.671798645514    -1.558548522186    -0.318272035633    12.000000000000
         C           -3.455464645514    -0.433072522186    -0.055879035633    12.000000000000
         C            2.948921354486    -1.172130522186     0.518881964367    12.000000000000
         C            3.576085354486    -0.066582522186    -0.054892035633    12.000000000000
         C            2.775807354486     0.956828477814    -0.560561035633    12.000000000000
         H           -0.666455645514    -2.295524522186    -0.551170035633     1.007825032230
         H           -3.466307645514     1.670632477814     0.397467964367     1.007825032230
         H            1.037315354486    -2.042275522186     1.019801964367     1.007825032230
         H           -3.134361645514    -2.516437522186    -0.540852035633     1.007825032230
         H           -4.540604645514    -0.507877522186    -0.047948035633     1.007825032230
         H            3.533409354486    -1.981390522186     0.950182964367     1.007825032230
         H            0.011103354486     2.316800477814     0.038572964367     1.007825032230
         H           -1.510472645514     2.952811477814     0.377782964367     1.007825032230
         H            4.658723354486     0.011441477814    -0.097332035633     1.007825032230
         H            3.223485354486     1.846745477814    -1.000239035633     1.007825032230

  Basis Set: AUG-CC-PVTZ
    Blend: AUG-CC-PVTZ
  Basis Set: (AUG-CC-PVTZ AUX)
    Blend: AUG-CC-PVTZ-JKFIT
	 Reference Energy          =    -531.4319889786900148 [Eh]
	 Singles Energy            =      -0.0000000000000000 [Eh]
	 Same-Spin Energy          =      -0.5963040435640063 [Eh]
	 Opposite-Spin Energy      =      -1.8222976664586201 [Eh]
	 Correlation Energy        =      -2.4186017100226262 [Eh]
	 Total Energy              =    -533.8505906887126002 [Eh]

	 ================> DF-SCS-MP2 Energies <==================
	-----------------------------------------------------------
	 SCS Same-Spin Scale       =       0.3333333333333333 [-]
	 SCS Opposite-Spin Scale   =       1.2000000000000000 [-]
	 SCS Same-Spin Energy      =      -0.1987680145213354 [Eh]
	 SCS Opposite-Spin Energy  =      -2.1867571997503439 [Eh]
	 SCS Correlation Energy    =      -2.3855252142716794 [Eh]
	 SCS Total Energy          =    -533.8175141929616530 [Eh]
	-----------------------------------------------------------

  Dipole Moment: [D]
     X:     1.4578      Y:    -0.3869      Z:     0.0115     Total:     1.5083

*** Psi4 exiting successfully. Buy a developer a beer!
