                               Psi4 1.3.2 release

  ==> Input File <==

--------------------------------------------------------------------------
#psi4
#
memory 32 gb

molecule  {
0 1
  N        1.4447430     0.9271060    -0.5600120
  N       -0.9546187     2.2100960     0.5073644
  C       -0.6433280    -0.2041590    -0.0552500
  C        0.8343400    -0.1560850    -0.0228830
  C       -1.4414270     0.9434540     0.1762700
  C       -1.2729090    -1.4294320    -0.3272730
  C       -2.8381000     0.7953410     0.1919050
  C        1.5703020    -1.2114420     0.5410850
  C       -2.6593290    -1.5570310    -0.3269880
  C       -3.4429950    -0.4315550    -0.0645950
  C        2.9613910    -1.1706130     0.5101660
  C        3.5885550    -0.0650650    -0.0636080
  C        2.7882770     0.9583460    -0.5692770
  H       -0.6539860    -2.2940070    -0.5598860
  H       -3.4538380     1.6721500     0.3887520
  H        1.0497850    -2.0407580     1.0110860
  H       -3.1218920    -2.5149200    -0.5495680
  H       -4.5281350    -0.5063600    -0.0566640
  H        3.5458790    -1.9798730     0.9414670
  H        0.0235730     2.3183180     0.0298570
  H       -1.4980030     2.9543290     0.3690670
  H        4.6711930     0.0129590    -0.1060480
  H        3.2359550     1.8482630    -1.0089550
units angstrom
no_reorient  #important for SAPT in psi4, default
symmetry c1  #important for SAPT in psi4, default
}

set PROPERTIES_ORIGIN ["COM"]
properties('MP2/aug-cc-pvtz', properties = ['dipole'])
--------------------------------------------------------------------------

    Molecular point group: c1
  Charge       = 0
  Multiplicity = 1
  Basis Set: AUG-CC-PVTZ
    Blend: AUG-CC-PVTZ
  Basis Set: (AUG-CC-PVTZ AUX)
    Blend: AUG-CC-PVTZ-JKFIT

    Orbital Energies [Eh]
    ---------------------

    Doubly Occupied:

       1A    -15.570362     2A    -15.547961     3A    -11.291134
       4A    -11.282463     5A    -11.281760     6A    -11.264360
       7A    -11.243339     8A    -11.242524     9A    -11.239812
      10A    -11.237044    11A    -11.236279    12A    -11.221668
      13A    -11.220830    14A     -1.263170    15A     -1.215980
      16A     -1.128867    17A     -1.089927    18A     -1.061819
      19A     -0.997370    20A     -0.982140    21A     -0.871477
      22A     -0.866056    23A     -0.819893    24A     -0.800557
      25A     -0.720994    26A     -0.698143    27A     -0.683900
      28A     -0.666017    29A     -0.648161    30A     -0.629600
      31A     -0.598442    32A     -0.589077    33A     -0.585846
      34A     -0.571407    35A     -0.551105    36A     -0.536080
      37A     -0.520513    38A     -0.501100    39A     -0.493242
      40A     -0.444338    41A     -0.420970    42A     -0.390036
      43A     -0.369336    44A     -0.318769    45A     -0.285801

  @DF-RHF Final Energy:  -531.44057067375104

   => Energetics <=

    Nuclear Repulsion Energy =            713.8544566586426754
    One-Electron Energy =               -2136.1907274593372676
    Two-Electron Energy =                 890.8957001269435523
    Total Energy =                       -531.4405706737510400
  Basis Set: (AUG-CC-PVTZ AUX)
    Blend: AUG-CC-PVTZ-RI
    Molecular point group: c1

    Geometry (in Angstrom), charge = 0, multiplicity = 1:

       Center              X                  Y                   Z               Mass
    ------------   -----------------  -----------------  -----------------  -----------------
         N            1.447886182322     0.920888296869    -0.557660792553    14.003074004430
         N           -0.951475517678     2.203878296869     0.509715607447    14.003074004430
         C           -0.640184817678    -0.210376703131    -0.052898792553    12.000000000000
         C            0.837483182322    -0.162302703131    -0.020531792553    12.000000000000
         C           -1.438283817678     0.937236296869     0.178621207447    12.000000000000
         C           -1.269765817678    -1.435649703131    -0.324921792553    12.000000000000
         C           -2.834956817678     0.789123296869     0.194256207447    12.000000000000
         C            1.573445182322    -1.217659703131     0.543436207447    12.000000000000
         C           -2.656185817678    -1.563248703131    -0.324636792553    12.000000000000
         C           -3.439851817678    -0.437772703131    -0.062243792553    12.000000000000
         C            2.964534182322    -1.176830703131     0.512517207447    12.000000000000
         C            3.591698182322    -0.071282703131    -0.061256792553    12.000000000000
         C            2.791420182322     0.952128296869    -0.566925792553    12.000000000000
         H           -0.650842817678    -2.300224703131    -0.557534792553     1.007825032230
         H           -3.450694817678     1.665932296869     0.391103207447     1.007825032230
         H            1.052928182322    -2.046975703131     1.013437207447     1.007825032230
         H           -3.118748817678    -2.521137703131    -0.547216792553     1.007825032230
         H           -4.524991817678    -0.512577703131    -0.054312792553     1.007825032230
         H            3.549022182322    -1.986090703131     0.943818207447     1.007825032230
         H            0.026716182322     2.312100296869     0.032208207447     1.007825032230
         H           -1.494859817678     2.948111296869     0.371418207447     1.007825032230
         H            4.674336182322     0.006741296869    -0.103696792553     1.007825032230
         H            3.239098182322     1.842045296869    -1.006603792553     1.007825032230

  Basis Set: AUG-CC-PVTZ
    Blend: AUG-CC-PVTZ
  Basis Set: (AUG-CC-PVTZ AUX)
    Blend: AUG-CC-PVTZ-JKFIT
	 Reference Energy          =    -531.4405706737510400 [Eh]
	 Singles Energy            =      -0.0000000000000000 [Eh]
	 Same-Spin Energy          =      -0.5966091411745722 [Eh]
	 Opposite-Spin Energy      =      -1.8210148469753786 [Eh]
	 Correlation Energy        =      -2.4176239881499511 [Eh]
	 Total Energy              =    -533.8581946619009386 [Eh]

	 ================> DF-SCS-MP2 Energies <==================
	-----------------------------------------------------------
	 SCS Same-Spin Scale       =       0.3333333333333333 [-]
	 SCS Opposite-Spin Scale   =       1.2000000000000000 [-]
	 SCS Same-Spin Energy      =      -0.1988697137248574 [Eh]
	 SCS Opposite-Spin Energy  =      -2.1852178163704541 [Eh]
	 SCS Correlation Energy    =      -2.3840875300953117 [Eh]
	 SCS Total Energy          =    -533.8246582038462975 [Eh]
	-----------------------------------------------------------

  Dipole Moment: [D]
     X:     1.6621      Y:    -0.4692      Z:     0.0094     Total:     1.7271

*** Psi4 exiting successfully. Buy a developer a beer!
