                               Psi4 1.4a3.dev225

  ==> Input File <==

--------------------------------------------------------------------------
#psi4
#
memory 32 gb

molecule  {
0 1
  N        1.4447430     0.9271060    -0.5600120
  N       -0.8646290     2.1728000     0.5033790
  C       -0.6433280    -0.2041590    -0.0552500
  C        0.8343400    -0.1560850    -0.0228830
  C       -1.4414270     0.9434540     0.1762700
  C       -1.2729090    -1.4294320    -0.3272730
  C       -2.8381000     0.7953410     0.1919050
  C        1.5441076    -1.1738796     0.5210122
  C       -2.6593290    -1.5570310    -0.3269880
  C       -3.4429950    -0.4315550    -0.0645950
  C        2.9613910    -1.1706130     0.5101660
  C        3.5885550    -0.0650650    -0.0636080
  C        2.7882770     0.9583460    -0.5692770
  H       -0.6539860    -2.2940070    -0.5598860
  H       -3.4538380     1.6721500     0.3887520
  H        1.0497850    -2.0407580     1.0110860
  H       -3.1218920    -2.5149200    -0.5495680
  H       -4.5281350    -0.5063600    -0.0566640
  H        3.5458790    -1.9798730     0.9414670
  H        0.0235730     2.3183180     0.0298570
  H       -1.4980030     2.9543290     0.3690670
  H        4.6711930     0.0129590    -0.1060480
  H        3.2359550     1.8482630    -1.0089550
units angstrom
no_reorient  #important for SAPT in psi4, default
symmetry c1  #important for SAPT in psi4, default
}

set PROPERTIES_ORIGIN ["COM"]
properties('MP2/aug-cc-pvtz', properties = ['dipole'])
--------------------------------------------------------------------------

    Molecular point group: c1
  Charge       = 0
  Multiplicity = 1
  Basis Set: AUG-CC-PVTZ
    Blend: AUG-CC-PVTZ
  Basis Set: (AUG-CC-PVTZ AUX)
    Blend: AUG-CC-PVTZ-JKFIT

    Orbital Energies [Eh]
    ---------------------

    Doubly Occupied:

       1A    -15.568827     2A    -15.550264     3A    -11.282746
       4A    -11.282466     5A    -11.279516     6A    -11.267613
       7A    -11.244110     8A    -11.241040     9A    -11.237764
      10A    -11.236952    11A    -11.233190    12A    -11.222956
      13A    -11.220199    14A     -1.264656    15A     -1.213283
      16A     -1.127163    17A     -1.086656    18A     -1.064905
      19A     -0.997890    20A     -0.979987    21A     -0.870144
      22A     -0.868021    23A     -0.815285    24A     -0.801496
      25A     -0.719231    26A     -0.689385    27A     -0.684643
      28A     -0.661768    29A     -0.653387    30A     -0.627732
      31A     -0.595111    32A     -0.592252    33A     -0.585049
      34A     -0.577286    35A     -0.552704    36A     -0.531686
      37A     -0.518597    38A     -0.499108    39A     -0.491424
      40A     -0.444395    41A     -0.422930    42A     -0.385994
      43A     -0.371491    44A     -0.320033    45A     -0.286449

  @DF-RHF Final Energy:  -531.45030919957549

   => Energetics <=

    Nuclear Repulsion Energy =            715.4733211984349737
    One-Electron Energy =               -2139.5116965152283228
    Two-Electron Energy =                 892.5880661172179771
    Total Energy =                       -531.4503091995754858
  Basis Set: (AUG-CC-PVTZ AUX)
    Blend: AUG-CC-PVTZ-RI
    Molecular point group: c1

    Geometry (in Angstrom), charge = 0, multiplicity = 1:

       Center              X                  Y                   Z               Mass
    ------------   -----------------  -----------------  -----------------  -----------------
         N            1.442325415797     0.921308734303    -0.555916473532    14.003074004430
         N           -0.867046584203     2.167002734303     0.507474526468    14.003074004430
         C           -0.645745584203    -0.209956265697    -0.051154473532    12.000000000000
         C            0.831922415797    -0.161882265697    -0.018787473532    12.000000000000
         C           -1.443844584203     0.937656734303     0.180365526468    12.000000000000
         C           -1.275326584203    -1.435229265697    -0.323177473532    12.000000000000
         C           -2.840517584203     0.789543734303     0.196000526468    12.000000000000
         C            1.541690015797    -1.179676865697     0.525107726468    12.000000000000
         C           -2.661746584203    -1.562828265697    -0.322892473532    12.000000000000
         C           -3.445412584203    -0.437352265697    -0.060499473532    12.000000000000
         C            2.958973415797    -1.176410265697     0.514261526468    12.000000000000
         C            3.586137415797    -0.070862265697    -0.059512473532    12.000000000000
         C            2.785859415797     0.952548734303    -0.565181473532    12.000000000000
         H           -0.656403584203    -2.299804265697    -0.555790473532     1.007825032230
         H           -3.456255584203     1.666352734303     0.392847526468     1.007825032230
         H            1.047367415797    -2.046555265697     1.015181526468     1.007825032230
         H           -3.124309584203    -2.520717265697    -0.545472473532     1.007825032230
         H           -4.530552584203    -0.512157265697    -0.052568473532     1.007825032230
         H            3.543461415797    -1.985670265697     0.945562526468     1.007825032230
         H            0.021155415797     2.312520734303     0.033952526468     1.007825032230
         H           -1.500420584203     2.948531734303     0.373162526468     1.007825032230
         H            4.668775415797     0.007161734303    -0.101952473532     1.007825032230
         H            3.233537415797     1.842465734303    -1.004859473532     1.007825032230

  Basis Set: AUG-CC-PVTZ
    Blend: AUG-CC-PVTZ
  Basis Set: (AUG-CC-PVTZ AUX)
    Blend: AUG-CC-PVTZ-JKFIT
	 Reference Energy          =    -531.4503091995754858 [Eh]
	 Singles Energy            =      -0.0000000000000000 [Eh]
	 Same-Spin Energy          =      -0.5965996450857114 [Eh]
	 Opposite-Spin Energy      =      -1.8209967178338016 [Eh]
	 Correlation Energy        =      -2.4175963629195127 [Eh]
	 Total Energy              =    -533.8679055624950252 [Eh]

	 ================> DF-SCS-MP2 Energies <==================
	-----------------------------------------------------------
	 SCS Same-Spin Scale       =       0.3333333333333333 [-]
	 SCS Opposite-Spin Scale   =       1.2000000000000000 [-]
	 SCS Same-Spin Energy      =      -0.1988665483619038 [Eh]
	 SCS Opposite-Spin Energy  =      -2.1851960614005619 [Eh]
	 SCS Correlation Energy    =      -2.3840626097624655 [Eh]
	 SCS Total Energy          =    -533.8343718093379948 [Eh]
	-----------------------------------------------------------

  Dipole Moment: [D]
     X:     1.6247      Y:    -0.4249      Z:     0.0116     Total:     1.6794

*** Psi4 exiting successfully. Buy a developer a beer!
