                               Psi4 1.4a3.dev225

  ==> Input File <==

--------------------------------------------------------------------------
#psi4
#
memory 32 gb

molecule  {
0 1
  N        1.4447430     0.9271060    -0.5600120
  N       -0.8646290     2.1728000     0.5033790
  C       -0.6433280    -0.2041590    -0.0552500
  C        0.8343400    -0.1560850    -0.0228830
  C       -1.4414270     0.9434540     0.1762700
  C       -1.2729090    -1.4294320    -0.3272730
  C       -2.8381000     0.7953410     0.1919050
  C        1.5703020    -1.2114420     0.5410850
  C       -2.6593290    -1.5570310    -0.3269880
  C       -3.4429950    -0.4315550    -0.0645950
  C        2.9613910    -1.1706130     0.5101660
  C        3.5885550    -0.0650650    -0.0636080
  C        2.7682829     0.9578811    -0.5691391
  H       -0.6539860    -2.2940070    -0.5598860
  H       -3.4538380     1.6721500     0.3887520
  H        1.0497850    -2.0407580     1.0110860
  H       -3.1218920    -2.5149200    -0.5495680
  H       -4.5281350    -0.5063600    -0.0566640
  H        3.5458790    -1.9798730     0.9414670
  H        0.0235730     2.3183180     0.0298570
  H       -1.4980030     2.9543290     0.3690670
  H        4.6711930     0.0129590    -0.1060480
  H        3.2359550     1.8482630    -1.0089550
units angstrom
no_reorient  #important for SAPT in psi4, default
symmetry c1  #important for SAPT in psi4, default
}

set PROPERTIES_ORIGIN ["COM"]
properties('MP2/aug-cc-pvtz', properties = ['dipole'])
--------------------------------------------------------------------------

    Molecular point group: c1
  Charge       = 0
  Multiplicity = 1
  Basis Set: AUG-CC-PVTZ
    Blend: AUG-CC-PVTZ
  Basis Set: (AUG-CC-PVTZ AUX)
    Blend: AUG-CC-PVTZ-JKFIT

    Orbital Energies [Eh]
    ---------------------

    Doubly Occupied:

       1A    -15.568012     2A    -15.551293     3A    -11.290078
       4A    -11.281857     5A    -11.280928     6A    -11.263053
       7A    -11.243377     8A    -11.241657     9A    -11.239113
      10A    -11.238192    11A    -11.234602    12A    -11.224013
      13A    -11.221245    14A     -1.267450    15A     -1.214624
      16A     -1.128105    17A     -1.089719    18A     -1.061331
      19A     -0.997151    20A     -0.980256    21A     -0.873074
      22A     -0.862815    23A     -0.817078    24A     -0.801187
      25A     -0.718561    26A     -0.691238    27A     -0.684952
      28A     -0.664469    29A     -0.653381    30A     -0.626253
      31A     -0.595055    32A     -0.591935    33A     -0.586234
      34A     -0.574463    35A     -0.552478    36A     -0.537180
      37A     -0.520828    38A     -0.501584    39A     -0.493401
      40A     -0.445354    41A     -0.420270    42A     -0.390244
      43A     -0.369076    44A     -0.318462    45A     -0.286337

  @DF-RHF Final Energy:  -531.45368148232728

   => Energetics <=

    Nuclear Repulsion Energy =            714.9593639529200573
    One-Electron Energy =               -2138.4421668287027387
    Two-Electron Energy =                 892.0291213934553980
    Total Energy =                       -531.4536814823272834
  Basis Set: (AUG-CC-PVTZ AUX)
    Blend: AUG-CC-PVTZ-RI
    Molecular point group: c1

    Geometry (in Angstrom), charge = 0, multiplicity = 1:

       Center              X                  Y                   Z               Mass
    ------------   -----------------  -----------------  -----------------  -----------------
         N            1.441887964739     0.923991682325    -0.557342403261    14.003074004430
         N           -0.867484035261     2.169685682325     0.506048596739    14.003074004430
         C           -0.646183035261    -0.207273317675    -0.052580403261    12.000000000000
         C            0.831484964739    -0.159199317675    -0.020213403261    12.000000000000
         C           -1.444282035261     0.940339682325     0.178939596739    12.000000000000
         C           -1.275764035261    -1.432546317675    -0.324603403261    12.000000000000
         C           -2.840955035261     0.792226682325     0.194574596739    12.000000000000
         C            1.567446964739    -1.214556317675     0.543754596739    12.000000000000
         C           -2.662184035261    -1.560145317675    -0.324318403261    12.000000000000
         C           -3.445850035261    -0.434669317675    -0.061925403261    12.000000000000
         C            2.958535964739    -1.173727317675     0.512835596739    12.000000000000
         C            3.585699964739    -0.068179317675    -0.060938403261    12.000000000000
         C            2.765427864739     0.954766782325    -0.566469503261    12.000000000000
         H           -0.656841035261    -2.297121317675    -0.557216403261     1.007825032230
         H           -3.456693035261     1.669035682325     0.391421596739     1.007825032230
         H            1.046929964739    -2.043872317675     1.013755596739     1.007825032230
         H           -3.124747035261    -2.518034317675    -0.546898403261     1.007825032230
         H           -4.530990035261    -0.509474317675    -0.053994403261     1.007825032230
         H            3.543023964739    -1.982987317675     0.944136596739     1.007825032230
         H            0.020717964739     2.315203682325     0.032526596739     1.007825032230
         H           -1.500858035261     2.951214682325     0.371736596739     1.007825032230
         H            4.668337964739     0.009844682325    -0.103378403261     1.007825032230
         H            3.233099964739     1.845148682325    -1.006285403261     1.007825032230

  Basis Set: AUG-CC-PVTZ
    Blend: AUG-CC-PVTZ
  Basis Set: (AUG-CC-PVTZ AUX)
    Blend: AUG-CC-PVTZ-JKFIT
	 Reference Energy          =    -531.4536814823272834 [Eh]
	 Singles Energy            =      -0.0000000000000000 [Eh]
	 Same-Spin Energy          =      -0.5963737160919489 [Eh]
	 Opposite-Spin Energy      =      -1.8203906283660434 [Eh]
	 Correlation Energy        =      -2.4167643444579925 [Eh]
	 Total Energy              =    -533.8704458267852715 [Eh]

	 ================> DF-SCS-MP2 Energies <==================
	-----------------------------------------------------------
	 SCS Same-Spin Scale       =       0.3333333333333333 [-]
	 SCS Opposite-Spin Scale   =       1.2000000000000000 [-]
	 SCS Same-Spin Energy      =      -0.1987912386973163 [Eh]
	 SCS Opposite-Spin Energy  =      -2.1844687540392518 [Eh]
	 SCS Correlation Energy    =      -2.3832599927365679 [Eh]
	 SCS Total Energy          =    -533.8369414750638953 [Eh]
	-----------------------------------------------------------

  Dipole Moment: [D]
     X:     1.5176      Y:    -0.4196      Z:     0.0126     Total:     1.5746

*** Psi4 exiting successfully. Buy a developer a beer!
