                               Psi4 1.3.2 release

  ==> Input File <==

--------------------------------------------------------------------------
#psi4
#
memory 32 gb

molecule  {
0 1
  N        1.4447430     0.9271060    -0.5600120
  N       -0.7774494     2.1295147     0.4978000
  C       -0.6433280    -0.2041590    -0.0552500
  C        0.8343400    -0.1560850    -0.0228830
  C       -1.4414270     0.9434540     0.1762700
  C       -1.2729090    -1.4294320    -0.3272730
  C       -2.8381000     0.7953410     0.1919050
  C        1.5703020    -1.2114420     0.5410850
  C       -2.6593290    -1.5570310    -0.3269880
  C       -3.4429950    -0.4315550    -0.0645950
  C        2.9613910    -1.1706130     0.5101660
  C        3.5885550    -0.0650650    -0.0636080
  C        2.7882770     0.9583460    -0.5692770
  H       -0.6539860    -2.2940070    -0.5598860
  H       -3.4538380     1.6721500     0.3887520
  H        1.0497850    -2.0407580     1.0110860
  H       -3.1218920    -2.5149200    -0.5495680
  H       -4.5281350    -0.5063600    -0.0566640
  H        3.5458790    -1.9798730     0.9414670
  H        0.0235730     2.3183180     0.0298570
  H       -1.4980030     2.9543290     0.3690670
  H        4.6711930     0.0129590    -0.1060480
  H        3.2359550     1.8482630    -1.0089550
units angstrom
no_reorient  #important for SAPT in psi4, default
symmetry c1  #important for SAPT in psi4, default
}

set PROPERTIES_ORIGIN ["COM"]
properties('MP2/aug-cc-pvtz', properties = ['dipole'])
--------------------------------------------------------------------------

    Molecular point group: c1
  Charge       = 0
  Multiplicity = 1
  Basis Set: AUG-CC-PVTZ
    Blend: AUG-CC-PVTZ
  Basis Set: (AUG-CC-PVTZ AUX)
    Blend: AUG-CC-PVTZ-JKFIT

    Orbital Energies [Eh]
    ---------------------

    Doubly Occupied:

       1A    -15.567615     2A    -15.553763     3A    -11.289222
       4A    -11.281481     5A    -11.280517     6A    -11.262796
       7A    -11.242296     8A    -11.241726     9A    -11.239466
      10A    -11.238763    11A    -11.233444    12A    -11.226759
      13A    -11.222099    14A     -1.262433    15A     -1.214696
      16A     -1.128502    17A     -1.088280    18A     -1.061167
      19A     -0.998763    20A     -0.981521    21A     -0.872163
      22A     -0.863465    23A     -0.815676    24A     -0.803547
      25A     -0.719866    26A     -0.699536    27A     -0.675807
      28A     -0.661422    29A     -0.654657    30A     -0.627568
      31A     -0.600432    32A     -0.590553    33A     -0.577759
      34A     -0.571223    35A     -0.550573    36A     -0.537270
      37A     -0.519878    38A     -0.502377    39A     -0.492105
      40A     -0.446625    41A     -0.420444    42A     -0.388085
      43A     -0.368216    44A     -0.319779    45A     -0.288093

  @DF-RHF Final Energy:  -531.43997020249435

   => Energetics <=

    Nuclear Repulsion Energy =            715.5983978642132115
    One-Electron Energy =               -2139.7118796146301065
    Two-Electron Energy =                 892.6735115479225442
    Total Energy =                       -531.4399702024943508
  Basis Set: (AUG-CC-PVTZ AUX)
    Blend: AUG-CC-PVTZ-RI
    Molecular point group: c1

    Geometry (in Angstrom), charge = 0, multiplicity = 1:

       Center              X                  Y                   Z               Mass
    ------------   -----------------  -----------------  -----------------  -----------------
         N            1.433299807302     0.927522567374    -0.556873354067    14.003074004430
         N           -0.788892592698     2.129931267374     0.500938645933    14.003074004430
         C           -0.654771192698    -0.203742432626    -0.052111354067    12.000000000000
         C            0.822896807302    -0.155668432626    -0.019744354067    12.000000000000
         C           -1.452870192698     0.943870567374     0.179408645933    12.000000000000
         C           -1.284352192698    -1.429015432626    -0.324134354067    12.000000000000
         C           -2.849543192698     0.795757567374     0.195043645933    12.000000000000
         C            1.558858807302    -1.211025432626     0.544223645933    12.000000000000
         C           -2.670772192698    -1.556614432626    -0.323849354067    12.000000000000
         C           -3.454438192698    -0.431138432626    -0.061456354067    12.000000000000
         C            2.949947807302    -1.170196432626     0.513304645933    12.000000000000
         C            3.577111807302    -0.064648432626    -0.060469354067    12.000000000000
         C            2.776833807302     0.958762567374    -0.566138354067    12.000000000000
         H           -0.665429192698    -2.293590432626    -0.556747354067     1.007825032230
         H           -3.465281192698     1.672566567374     0.391890645933     1.007825032230
         H            1.038341807302    -2.040341432626     1.014224645933     1.007825032230
         H           -3.133335192698    -2.514503432626    -0.546429354067     1.007825032230
         H           -4.539578192698    -0.505943432626    -0.053525354067     1.007825032230
         H            3.534435807302    -1.979456432626     0.944605645933     1.007825032230
         H            0.012129807302     2.318734567374     0.032995645933     1.007825032230
         H           -1.509446192698     2.954745567374     0.372205645933     1.007825032230
         H            4.659749807302     0.013375567374    -0.102909354067     1.007825032230
         H            3.224511807302     1.848679567374    -1.005816354067     1.007825032230

  Basis Set: AUG-CC-PVTZ
    Blend: AUG-CC-PVTZ
  Basis Set: (AUG-CC-PVTZ AUX)
    Blend: AUG-CC-PVTZ-JKFIT
	 Reference Energy          =    -531.4399702024943508 [Eh]
	 Singles Energy            =      -0.0000000000000000 [Eh]
	 Same-Spin Energy          =      -0.5968349308350820 [Eh]
	 Opposite-Spin Energy      =      -1.8218369555415055 [Eh]
	 Correlation Energy        =      -2.4186718863765875 [Eh]
	 Total Energy              =    -533.8586420888709654 [Eh]

	 ================> DF-SCS-MP2 Energies <==================
	-----------------------------------------------------------
	 SCS Same-Spin Scale       =       0.3333333333333333 [-]
	 SCS Opposite-Spin Scale   =       1.2000000000000000 [-]
	 SCS Same-Spin Energy      =      -0.1989449769450273 [Eh]
	 SCS Opposite-Spin Energy  =      -2.1862043466498067 [Eh]
	 SCS Correlation Energy    =      -2.3851493235948338 [Eh]
	 SCS Total Energy          =    -533.8251195260892246 [Eh]
	-----------------------------------------------------------

  Dipole Moment: [D]
     X:     1.3995      Y:    -0.4220      Z:     0.0064     Total:     1.4618

*** Psi4 exiting successfully. Buy a developer a beer!
