                               Psi4 1.4a3.dev225

  ==> Input File <==

--------------------------------------------------------------------------
#psi4
#
memory 32 gb

molecule  {
0 1
  N        1.4447430     0.9271060    -0.5600120
  N       -0.8646290     2.1728000     0.5033790
  C       -0.6433280    -0.2041590    -0.0552500
  C        0.8568741    -0.1160972    -0.0427120
  C       -1.4414270     0.9434540     0.1762700
  C       -1.2729090    -1.4294320    -0.3272730
  C       -2.8381000     0.7953410     0.1919050
  C        1.5703020    -1.2114420     0.5410850
  C       -2.6593290    -1.5570310    -0.3269880
  C       -3.4429950    -0.4315550    -0.0645950
  C        2.9613910    -1.1706130     0.5101660
  C        3.5885550    -0.0650650    -0.0636080
  C        2.7882770     0.9583460    -0.5692770
  H       -0.6539860    -2.2940070    -0.5598860
  H       -3.4538380     1.6721500     0.3887520
  H        1.0497850    -2.0407580     1.0110860
  H       -3.1218920    -2.5149200    -0.5495680
  H       -4.5281350    -0.5063600    -0.0566640
  H        3.5458790    -1.9798730     0.9414670
  H        0.0235730     2.3183180     0.0298570
  H       -1.4980030     2.9543290     0.3690670
  H        4.6711930     0.0129590    -0.1060480
  H        3.2359550     1.8482630    -1.0089550
units angstrom
no_reorient  #important for SAPT in psi4, default
symmetry c1  #important for SAPT in psi4, default
}

set PROPERTIES_ORIGIN ["COM"]
properties('MP2/aug-cc-pvtz', properties = ['dipole'])
--------------------------------------------------------------------------

    Molecular point group: c1
  Charge       = 0
  Multiplicity = 1
  Basis Set: AUG-CC-PVTZ
    Blend: AUG-CC-PVTZ
  Basis Set: (AUG-CC-PVTZ AUX)
    Blend: AUG-CC-PVTZ-JKFIT

    Orbital Energies [Eh]
    ---------------------

    Doubly Occupied:

       1A    -15.566617     2A    -15.551037     3A    -11.290533
       4A    -11.281550     5A    -11.279466     6A    -11.262462
       7A    -11.244487     8A    -11.243169     9A    -11.238996
      10A    -11.237418    11A    -11.234920    12A    -11.223339
      13A    -11.221043    14A     -1.275822    15A     -1.214393
      16A     -1.126668    17A     -1.091906    18A     -1.057065
      19A     -0.997380    20A     -0.979842    21A     -0.873166
      22A     -0.862922    23A     -0.818070    24A     -0.799871
      25A     -0.718617    26A     -0.692195    27A     -0.684217
      28A     -0.661566    29A     -0.657282    30A     -0.626479
      31A     -0.593898    32A     -0.590518    33A     -0.585728
      34A     -0.575263    35A     -0.555311    36A     -0.536378
      37A     -0.522069    38A     -0.502461    39A     -0.493359
      40A     -0.444870    41A     -0.418442    42A     -0.394497
      43A     -0.364048    44A     -0.319309    45A     -0.286933

  @DF-RHF Final Energy:  -531.45271965506709

   => Energetics <=

    Nuclear Repulsion Energy =            714.8162136171143857
    One-Electron Energy =               -2138.1467008638560401
    Two-Electron Energy =                 891.8777675916744556
    Total Energy =                       -531.4527196550670851
  Basis Set: (AUG-CC-PVTZ AUX)
    Blend: AUG-CC-PVTZ-RI
    Molecular point group: c1

    Geometry (in Angstrom), charge = 0, multiplicity = 1:

       Center              X                  Y                   Z               Mass
    ------------   -----------------  -----------------  -----------------  -----------------
         N            1.438887463782     0.921137614551    -0.555933674404    14.003074004430
         N           -0.870484536218     2.166831614551     0.507457325596    14.003074004430
         C           -0.649183536218    -0.210127385449    -0.051171674404    12.000000000000
         C            0.851018563782    -0.122065585449    -0.038633674404    12.000000000000
         C           -1.447282536218     0.937485614551     0.180348325596    12.000000000000
         C           -1.278764536218    -1.435400385449    -0.323194674404    12.000000000000
         C           -2.843955536218     0.789372614551     0.195983325596    12.000000000000
         C            1.564446463782    -1.217410385449     0.545163325596    12.000000000000
         C           -2.665184536218    -1.562999385449    -0.322909674404    12.000000000000
         C           -3.448850536218    -0.437523385449    -0.060516674404    12.000000000000
         C            2.955535463782    -1.176581385449     0.514244325596    12.000000000000
         C            3.582699463782    -0.071033385449    -0.059529674404    12.000000000000
         C            2.782421463782     0.952377614551    -0.565198674404    12.000000000000
         H           -0.659841536218    -2.299975385449    -0.555807674404     1.007825032230
         H           -3.459693536218     1.666181614551     0.392830325596     1.007825032230
         H            1.043929463782    -2.046726385449     1.015164325596     1.007825032230
         H           -3.127747536218    -2.520888385449    -0.545489674404     1.007825032230
         H           -4.533990536218    -0.512328385449    -0.052585674404     1.007825032230
         H            3.540023463782    -1.985841385449     0.945545325596     1.007825032230
         H            0.017717463782     2.312349614551     0.033935325596     1.007825032230
         H           -1.503858536218     2.948360614551     0.373145325596     1.007825032230
         H            4.665337463782     0.006990614551    -0.101969674404     1.007825032230
         H            3.230099463782     1.842294614551    -1.004876674404     1.007825032230

  Basis Set: AUG-CC-PVTZ
    Blend: AUG-CC-PVTZ
  Basis Set: (AUG-CC-PVTZ AUX)
    Blend: AUG-CC-PVTZ-JKFIT
	 Reference Energy          =    -531.4527196550670851 [Eh]
	 Singles Energy            =      -0.0000000000000000 [Eh]
	 Same-Spin Energy          =      -0.5957596116953425 [Eh]
	 Opposite-Spin Energy      =      -1.8195342869129476 [Eh]
	 Correlation Energy        =      -2.4152938986082901 [Eh]
	 Total Energy              =    -533.8680135536753824 [Eh]

	 ================> DF-SCS-MP2 Energies <==================
	-----------------------------------------------------------
	 SCS Same-Spin Scale       =       0.3333333333333333 [-]
	 SCS Opposite-Spin Scale   =       1.2000000000000000 [-]
	 SCS Same-Spin Energy      =      -0.1985865372317808 [Eh]
	 SCS Opposite-Spin Energy  =      -2.1834411442955370 [Eh]
	 SCS Correlation Energy    =      -2.3820276815273180 [Eh]
	 SCS Total Energy          =    -533.8347473365944325 [Eh]
	-----------------------------------------------------------

  Dipole Moment: [D]
     X:     1.5862      Y:    -0.4064      Z:    -0.0008     Total:     1.6374

*** Psi4 exiting successfully. Buy a developer a beer!
