                               Psi4 1.3.2 release

  ==> Input File <==

--------------------------------------------------------------------------
#psi4
#
memory 32 gb

molecule  {
0 1
  N        1.4235648     0.9360734    -0.5654751
  N       -0.8646290     2.1728000     0.5033790
  C       -0.6433280    -0.2041590    -0.0552500
  C        0.8343400    -0.1560850    -0.0228830
  C       -1.4414270     0.9434540     0.1762700
  C       -1.2729090    -1.4294320    -0.3272730
  C       -2.8381000     0.7953410     0.1919050
  C        1.5703020    -1.2114420     0.5410850
  C       -2.6593290    -1.5570310    -0.3269880
  C       -3.4429950    -0.4315550    -0.0645950
  C        2.9613910    -1.1706130     0.5101660
  C        3.5885550    -0.0650650    -0.0636080
  C        2.7882770     0.9583460    -0.5692770
  H       -0.6539860    -2.2940070    -0.5598860
  H       -3.4538380     1.6721500     0.3887520
  H        1.0497850    -2.0407580     1.0110860
  H       -3.1218920    -2.5149200    -0.5495680
  H       -4.5281350    -0.5063600    -0.0566640
  H        3.5458790    -1.9798730     0.9414670
  H        0.0235730     2.3183180     0.0298570
  H       -1.4980030     2.9543290     0.3690670
  H        4.6711930     0.0129590    -0.1060480
  H        3.2359550     1.8482630    -1.0089550
units angstrom
no_reorient  #important for SAPT in psi4, default
symmetry c1  #important for SAPT in psi4, default
}

set PROPERTIES_ORIGIN ["COM"]
properties('MP2/aug-cc-pvtz', properties = ['dipole'])
--------------------------------------------------------------------------

    Molecular point group: c1
  Charge       = 0
  Multiplicity = 1
  Basis Set: AUG-CC-PVTZ
    Blend: AUG-CC-PVTZ
  Basis Set: (AUG-CC-PVTZ AUX)
    Blend: AUG-CC-PVTZ-JKFIT

    Orbital Energies [Eh]
    ---------------------

    Doubly Occupied:

       1A    -15.571722     2A    -15.550334     3A    -11.290345
       4A    -11.283972     5A    -11.280552     6A    -11.264614
       7A    -11.243673     8A    -11.242488     9A    -11.238815
      10A    -11.237895    11A    -11.233953    12A    -11.223674
      13A    -11.220934    14A     -1.259001    15A     -1.212904
      16A     -1.127414    17A     -1.089897    18A     -1.060065
      19A     -0.997525    20A     -0.980426    21A     -0.870146
      22A     -0.865967    23A     -0.816365    24A     -0.799629
      25A     -0.718370    26A     -0.689848    27A     -0.684690
      28A     -0.663475    29A     -0.652636    30A     -0.626990
      31A     -0.594850    32A     -0.592313    33A     -0.586003
      34A     -0.574010    35A     -0.549164    36A     -0.536383
      37A     -0.518793    38A     -0.500610    39A     -0.493587
      40A     -0.444981    41A     -0.424417    42A     -0.389447
      43A     -0.367348    44A     -0.319336    45A     -0.286538

  @DF-RHF Final Energy:  -531.45162412613115

   => Energetics <=

    Nuclear Repulsion Energy =            714.4226259860203072
    One-Electron Energy =               -2137.3962991579924164
    Two-Electron Energy =                 891.5220490458410723
    Total Energy =                       -531.4516241261311507
  Basis Set: (AUG-CC-PVTZ AUX)
    Blend: AUG-CC-PVTZ-RI
    Molecular point group: c1

    Geometry (in Angstrom), charge = 0, multiplicity = 1:

       Center              X                  Y                   Z               Mass
    ------------   -----------------  -----------------  -----------------  -----------------
         N            1.421042721215     0.932187994752    -0.562345996132    14.003074004430
         N           -0.867151078785     2.168914594752     0.506508103868    14.003074004430
         C           -0.645850078785    -0.208044405248    -0.052120896132    12.000000000000
         C            0.831817921215    -0.159970405248    -0.019753896132    12.000000000000
         C           -1.443949078785     0.939568594752     0.179399103868    12.000000000000
         C           -1.275431078785    -1.433317405248    -0.324143896132    12.000000000000
         C           -2.840622078785     0.791455594752     0.195034103868    12.000000000000
         C            1.567779921215    -1.215327405248     0.544214103868    12.000000000000
         C           -2.661851078785    -1.560916405248    -0.323858896132    12.000000000000
         C           -3.445517078785    -0.435440405248    -0.061465896132    12.000000000000
         C            2.958868921215    -1.174498405248     0.513295103868    12.000000000000
         C            3.586032921215    -0.068950405248    -0.060478896132    12.000000000000
         C            2.785754921215     0.954460594752    -0.566147896132    12.000000000000
         H           -0.656508078785    -2.297892405248    -0.556756896132     1.007825032230
         H           -3.456360078785     1.668264594752     0.391881103868     1.007825032230
         H            1.047262921215    -2.044643405248     1.014215103868     1.007825032230
         H           -3.124414078785    -2.518805405248    -0.546438896132     1.007825032230
         H           -4.530657078785    -0.510245405248    -0.053534896132     1.007825032230
         H            3.543356921215    -1.983758405248     0.944596103868     1.007825032230
         H            0.021050921215     2.314432594752     0.032986103868     1.007825032230
         H           -1.500525078785     2.950443594752     0.372196103868     1.007825032230
         H            4.668670921215     0.009073594752    -0.102918896132     1.007825032230
         H            3.233432921215     1.844377594752    -1.005825896132     1.007825032230

  Basis Set: AUG-CC-PVTZ
    Blend: AUG-CC-PVTZ
  Basis Set: (AUG-CC-PVTZ AUX)
    Blend: AUG-CC-PVTZ-JKFIT
	 Reference Energy          =    -531.4516241261311507 [Eh]
	 Singles Energy            =      -0.0000000000000000 [Eh]
	 Same-Spin Energy          =      -0.5967531284208374 [Eh]
	 Opposite-Spin Energy      =      -1.8215717949271775 [Eh]
	 Correlation Energy        =      -2.4183249233480151 [Eh]
	 Total Energy              =    -533.8699490494791462 [Eh]

	 ================> DF-SCS-MP2 Energies <==================
	-----------------------------------------------------------
	 SCS Same-Spin Scale       =       0.3333333333333333 [-]
	 SCS Opposite-Spin Scale   =       1.2000000000000000 [-]
	 SCS Same-Spin Energy      =      -0.1989177094736125 [Eh]
	 SCS Opposite-Spin Energy  =      -2.1858861539126129 [Eh]
	 SCS Correlation Energy    =      -2.3848038633862254 [Eh]
	 SCS Total Energy          =    -533.8364279895173468 [Eh]
	-----------------------------------------------------------

  Dipole Moment: [D]
     X:     1.5843      Y:    -0.4431      Z:     0.0245     Total:     1.6452

*** Psi4 exiting successfully. Buy a developer a beer!
