                               Psi4 1.3.2 release

  ==> Input File <==

--------------------------------------------------------------------------
#psi4
#
memory 32 gb

molecule  {
0 1
  N        1.4447430     0.9271060    -0.5600120
  N       -0.8646290     2.1728000     0.5033790
  C       -0.6433280    -0.2041590    -0.0552500
  C        0.8769067    -0.1744112    -0.0135471
  C       -1.4414270     0.9434540     0.1762700
  C       -1.2729090    -1.4294320    -0.3272730
  C       -2.8381000     0.7953410     0.1919050
  C        1.5703020    -1.2114420     0.5410850
  C       -2.6593290    -1.5570310    -0.3269880
  C       -3.4429950    -0.4315550    -0.0645950
  C        2.9613910    -1.1706130     0.5101660
  C        3.5885550    -0.0650650    -0.0636080
  C        2.7882770     0.9583460    -0.5692770
  H       -0.6539860    -2.2940070    -0.5598860
  H       -3.4538380     1.6721500     0.3887520
  H        1.0497850    -2.0407580     1.0110860
  H       -3.1218920    -2.5149200    -0.5495680
  H       -4.5281350    -0.5063600    -0.0566640
  H        3.5458790    -1.9798730     0.9414670
  H        0.0235730     2.3183180     0.0298570
  H       -1.4980030     2.9543290     0.3690670
  H        4.6711930     0.0129590    -0.1060480
  H        3.2359550     1.8482630    -1.0089550
units angstrom
no_reorient  #important for SAPT in psi4, default
symmetry c1  #important for SAPT in psi4, default
}

set PROPERTIES_ORIGIN ["COM"]
properties('MP2/aug-cc-pvtz', properties = ['dipole'])
--------------------------------------------------------------------------

    Molecular point group: c1
  Charge       = 0
  Multiplicity = 1
  Basis Set: AUG-CC-PVTZ
    Blend: AUG-CC-PVTZ
  Basis Set: (AUG-CC-PVTZ AUX)
    Blend: AUG-CC-PVTZ-JKFIT

    Orbital Energies [Eh]
    ---------------------

    Doubly Occupied:

       1A    -15.570655     2A    -15.549465     3A    -11.287528
       4A    -11.283192     5A    -11.278819     6A    -11.265824
       7A    -11.244001     8A    -11.239001     9A    -11.236785
      10A    -11.235931    11A    -11.235168    12A    -11.222508
      13A    -11.219562    14A     -1.265601    15A     -1.212510
      16A     -1.125420    17A     -1.093007    18A     -1.060327
      19A     -0.997812    20A     -0.979010    21A     -0.869188
      22A     -0.867513    23A     -0.815457    24A     -0.800438
      25A     -0.718805    26A     -0.688602    27A     -0.683642
      28A     -0.663747    29A     -0.653864    30A     -0.627997
      31A     -0.595080    32A     -0.591199    33A     -0.585018
      34A     -0.573456    35A     -0.552995    36A     -0.535562
      37A     -0.519100    38A     -0.498513    39A     -0.489494
      40A     -0.443544    41A     -0.426334    42A     -0.388820
      43A     -0.370539    44A     -0.320344    45A     -0.286380

  @DF-RHF Final Energy:  -531.45182917642092

   => Energetics <=

    Nuclear Repulsion Energy =            714.5649603054978343
    One-Electron Energy =               -2137.6980663152080524
    Two-Electron Energy =                 891.6812768332893029
    Total Energy =                       -531.4518291764209152
  Basis Set: (AUG-CC-PVTZ AUX)
    Blend: AUG-CC-PVTZ-RI
    Molecular point group: c1

    Geometry (in Angstrom), charge = 0, multiplicity = 1:

       Center              X                  Y                   Z               Mass
    ------------   -----------------  -----------------  -----------------  -----------------
         N            1.437474099579     0.925251854346    -0.557991351671    14.003074004430
         N           -0.871897900421     2.170945854346     0.505399648329    14.003074004430
         C           -0.650596900421    -0.206013145654    -0.053229351671    12.000000000000
         C            0.869637799579    -0.176265345654    -0.011526451671    12.000000000000
         C           -1.448695900421     0.941599854346     0.178290648329    12.000000000000
         C           -1.280177900421    -1.431286145654    -0.325252351671    12.000000000000
         C           -2.845368900421     0.793486854346     0.193925648329    12.000000000000
         C            1.563033099579    -1.213296145654     0.543105648329    12.000000000000
         C           -2.666597900421    -1.558885145654    -0.324967351671    12.000000000000
         C           -3.450263900421    -0.433409145654    -0.062574351671    12.000000000000
         C            2.954122099579    -1.172467145654     0.512186648329    12.000000000000
         C            3.581286099579    -0.066919145654    -0.061587351671    12.000000000000
         C            2.781008099579     0.956491854346    -0.567256351671    12.000000000000
         H           -0.661254900421    -2.295861145654    -0.557865351671     1.007825032230
         H           -3.461106900421     1.670295854346     0.390772648329     1.007825032230
         H            1.042516099579    -2.042612145654     1.013106648329     1.007825032230
         H           -3.129160900421    -2.516774145654    -0.547547351671     1.007825032230
         H           -4.535403900421    -0.508214145654    -0.054643351671     1.007825032230
         H            3.538610099579    -1.981727145654     0.943487648329     1.007825032230
         H            0.016304099579     2.316463854346     0.031877648329     1.007825032230
         H           -1.505271900421     2.952474854346     0.371087648329     1.007825032230
         H            4.663924099579     0.011104854346    -0.104027351671     1.007825032230
         H            3.228686099579     1.846408854346    -1.006934351671     1.007825032230

  Basis Set: AUG-CC-PVTZ
    Blend: AUG-CC-PVTZ
  Basis Set: (AUG-CC-PVTZ AUX)
    Blend: AUG-CC-PVTZ-JKFIT
	 Reference Energy          =    -531.4518291764209152 [Eh]
	 Singles Energy            =      -0.0000000000000000 [Eh]
	 Same-Spin Energy          =      -0.5960429215899683 [Eh]
	 Opposite-Spin Energy      =      -1.8202370307366853 [Eh]
	 Correlation Energy        =      -2.4162799523266534 [Eh]
	 Total Energy              =    -533.8681091287476193 [Eh]

	 ================> DF-SCS-MP2 Energies <==================
	-----------------------------------------------------------
	 SCS Same-Spin Scale       =       0.3333333333333333 [-]
	 SCS Opposite-Spin Scale   =       1.2000000000000000 [-]
	 SCS Same-Spin Energy      =      -0.1986809738633228 [Eh]
	 SCS Opposite-Spin Energy  =      -2.1842844368840222 [Eh]
	 SCS Correlation Energy    =      -2.3829654107473450 [Eh]
	 SCS Total Energy          =    -533.8347945871682896 [Eh]
	-----------------------------------------------------------

  Dipole Moment: [D]
     X:     1.7443      Y:    -0.4310      Z:     0.0187     Total:     1.7968

*** Psi4 exiting successfully. Buy a developer a beer!
