                               Psi4 1.4a2.dev612

  ==> Input File <==

--------------------------------------------------------------------------
#psi4
#
memory 32 gb

molecule  {
0 1
  O        0.9417500     2.5148810    -0.6596880
  N        2.0463840     0.6978680     0.1749460
  C        0.7564320    -1.5550710    -0.8733250
  C        1.8157710    -1.7711630     0.2163790
  C       -0.4497480    -0.7926040    -0.3845090
  C        2.0266990    -0.4897580     1.0228720
  C       -0.3650830     0.5850230    -0.0943830
  C        0.9119250     1.3593610    -0.2260870
  C       -1.6331153    -1.4787803    -0.0032246
  C       -1.5035900     1.3035830     0.2885800
  C       -2.8212120    -0.7143780     0.1714760
  C       -2.7281430     0.6547360     0.4326570
  H        0.4383490    -2.5216720    -1.2799980
  H        1.2165960    -1.0011160    -1.6986390
  H        1.5065410    -2.5704870     0.9013410
  H        2.7543720    -2.0878480    -0.2534440
  H        1.2290340    -0.3883270     1.7666860
  H        2.9729880    -0.5259550     1.5704730
  H        2.8793190     1.2773810     0.1528780
  H       -1.7755450    -2.4842720    -0.4701710
  H       -1.4080790     2.3720960     0.4641940
  H       -3.7741480    -1.2278540     0.2772780
  H       -3.6082280     1.2145190     0.7397060
units angstrom
no_reorient  #important for SAPT in psi4, default
symmetry c1  #important for SAPT in psi4, default
}

set PROPERTIES_ORIGIN ["COM"]
properties('MP2/aug-cc-pvtz', properties = ['dipole'])
--------------------------------------------------------------------------

    Molecular point group: c1
  Charge       = 0
  Multiplicity = 1
  Basis Set: AUG-CC-PVTZ
    Blend: AUG-CC-PVTZ
  Basis Set: (AUG-CC-PVTZ AUX)
    Blend: AUG-CC-PVTZ-JKFIT

    Orbital Energies [Eh]
    ---------------------

    Doubly Occupied:

       1A    -20.515058     2A    -15.582871     3A    -11.351372
       4A    -11.275659     5A    -11.263774     6A    -11.255229
       7A    -11.249701     8A    -11.246893     9A    -11.246063
      10A    -11.239829    11A    -11.239458    12A    -11.238390
      13A     -1.369091    14A     -1.234915    15A     -1.162286
      16A     -1.082678    17A     -1.035394    18A     -1.018402
      19A     -0.938348    20A     -0.879788    21A     -0.841146
      22A     -0.796939    23A     -0.775485    24A     -0.694511
      25A     -0.685199    26A     -0.671714    27A     -0.652862
      28A     -0.621158    29A     -0.612403    30A     -0.594130
      31A     -0.587947    32A     -0.577407    33A     -0.554367
      34A     -0.535524    35A     -0.518400    36A     -0.507808
      37A     -0.492313    38A     -0.487562    39A     -0.478034
      40A     -0.422604    41A     -0.389428    42A     -0.343805
      43A     -0.335294

  @DF-RHF Final Energy:  -514.57679508986303

   => Energetics <=

    Nuclear Repulsion Energy =            684.7033698288241794
    One-Electron Energy =               -2057.3578484624704288
    Two-Electron Energy =                 858.0776835437832233
    Total Energy =                       -514.5767950898630261
  Basis Set: (AUG-CC-PVTZ AUX)
    Blend: AUG-CC-PVTZ-RI
    Molecular point group: c1

    Geometry (in Angstrom), charge = 0, multiplicity = 1:

       Center              X                  Y                   Z               Mass
    ------------   -----------------  -----------------  -----------------  -----------------
         O            0.952375948407     2.470163385312    -0.663975451104    15.994914619570
         N            2.057009948407     0.653150385312     0.170658548896    14.003074004430
         C            0.767057948407    -1.599788614688    -0.877612451104    12.000000000000
         C            1.826396948407    -1.815880614688     0.212091548896    12.000000000000
         C           -0.439122051593    -0.837321614688    -0.388796451104    12.000000000000
         C            2.037324948407    -0.534475614688     1.018584548896    12.000000000000
         C           -0.354457051593     0.540305385312    -0.098670451104    12.000000000000
         C            0.922550948407     1.314643385312    -0.230374451104    12.000000000000
         C           -1.622489351593    -1.523497914688    -0.007512051104    12.000000000000
         C           -1.492964051593     1.258865385312     0.284292548896    12.000000000000
         C           -2.810586051593    -0.759095614688     0.167188548896    12.000000000000
         C           -2.717517051593     0.610018385312     0.428369548896    12.000000000000
         H            0.448974948407    -2.566389614688    -1.284285451104     1.007825032230
         H            1.227221948407    -1.045833614688    -1.702926451104     1.007825032230
         H            1.517166948407    -2.615204614688     0.897053548896     1.007825032230
         H            2.764997948407    -2.132565614688    -0.257731451104     1.007825032230
         H            1.239659948407    -0.433044614688     1.762398548896     1.007825032230
         H            2.983613948407    -0.570672614688     1.566185548896     1.007825032230
         H            2.889944948407     1.232663385312     0.148590548896     1.007825032230
         H           -1.764919051593    -2.528989614688    -0.474458451104     1.007825032230
         H           -1.397453051593     2.327378385312     0.459906548896     1.007825032230
         H           -3.763522051593    -1.272571614688     0.272990548896     1.007825032230
         H           -3.597602051593     1.169801385312     0.735418548896     1.007825032230

  Basis Set: AUG-CC-PVTZ
    Blend: AUG-CC-PVTZ
  Basis Set: (AUG-CC-PVTZ AUX)
    Blend: AUG-CC-PVTZ-JKFIT
	 Reference Energy          =    -514.5767950898630261 [Eh]
	 Singles Energy            =      -0.0000000000000000 [Eh]
	 Same-Spin Energy          =      -0.5594904098892892 [Eh]
	 Opposite-Spin Energy      =      -1.7471055327287939 [Eh]
	 Correlation Energy        =      -2.3065959426180829 [Eh]
	 Total Energy              =    -516.8833910324810859 [Eh]

	 ================> DF-SCS-MP2 Energies <==================
	-----------------------------------------------------------
	 SCS Same-Spin Scale       =       0.3333333333333333 [-]
	 SCS Opposite-Spin Scale   =       1.2000000000000000 [-]
	 SCS Same-Spin Energy      =      -0.1864968032964297 [Eh]
	 SCS Opposite-Spin Energy  =      -2.0965266392745527 [Eh]
	 SCS Correlation Energy    =      -2.2830234425709826 [Eh]
	 SCS Total Energy          =    -516.8598185324340193 [Eh]
	-----------------------------------------------------------

  Dipole Moment: [D]
     X:     0.6356      Y:    -3.4610      Z:     1.6542     Total:     3.8883

*** Psi4 exiting successfully. Buy a developer a beer!
