                               Psi4 1.4a2.dev612

  ==> Input File <==

--------------------------------------------------------------------------
#psi4
#
memory 32 gb

molecule  {
0 1
  O        0.9417500     2.5148810    -0.6596880
  N        2.0463840     0.6978680     0.1749460
  C        0.7564320    -1.5550710    -0.8733250
  C        1.8157710    -1.7711630     0.2163790
  C       -0.4497480    -0.7926040    -0.3845090
  C        2.0266990    -0.4897580     1.0228720
  C       -0.3650830     0.5850230    -0.0943830
  C        0.9119250     1.3593610    -0.2260870
  C       -1.6680639    -1.4454093    -0.1452281
  C       -1.5035900     1.3035830     0.2885800
  C       -2.8212120    -0.7143780     0.1714760
  C       -2.7281430     0.6547360     0.4326570
  H        0.4383490    -2.5216720    -1.2799980
  H        1.2165960    -1.0011160    -1.6986390
  H        1.5065410    -2.5704870     0.9013410
  H        2.7543720    -2.0878480    -0.2534440
  H        1.2290340    -0.3883270     1.7666860
  H        2.9729880    -0.5259550     1.5704730
  H        2.8793190     1.2773810     0.1528780
  H       -1.7755450    -2.4842720    -0.4701710
  H       -1.4080790     2.3720960     0.4641940
  H       -3.7741480    -1.2278540     0.2772780
  H       -3.6082280     1.2145190     0.7397060
units angstrom
no_reorient  #important for SAPT in psi4, default
symmetry c1  #important for SAPT in psi4, default
}

set PROPERTIES_ORIGIN ["COM"]
properties('MP2/aug-cc-pvtz', properties = ['dipole'])
--------------------------------------------------------------------------

    Molecular point group: c1
  Charge       = 0
  Multiplicity = 1
  Basis Set: AUG-CC-PVTZ
    Blend: AUG-CC-PVTZ
  Basis Set: (AUG-CC-PVTZ AUX)
    Blend: AUG-CC-PVTZ-JKFIT

    Orbital Energies [Eh]
    ---------------------

    Doubly Occupied:

       1A    -20.515075     2A    -15.582747     3A    -11.351386
       4A    -11.275687     5A    -11.259170     6A    -11.250142
       7A    -11.247213     8A    -11.246008     9A    -11.242638
      10A    -11.239753    11A    -11.239449    12A    -11.238010
      13A     -1.369020    14A     -1.234826    15A     -1.163824
      16A     -1.082341    17A     -1.036382    18A     -1.020241
      19A     -0.938391    20A     -0.881150    21A     -0.841313
      22A     -0.798099    23A     -0.776301    24A     -0.696350
      25A     -0.685532    26A     -0.671724    27A     -0.652899
      28A     -0.622930    29A     -0.615126    30A     -0.598852
      31A     -0.587421    32A     -0.576588    33A     -0.556162
      34A     -0.535972    35A     -0.518730    36A     -0.509531
      37A     -0.492102    38A     -0.489987    39A     -0.478645
      40A     -0.423111    41A     -0.389392    42A     -0.343715
      43A     -0.336121

  @DF-RHF Final Energy:  -514.59341073217036

   => Energetics <=

    Nuclear Repulsion Energy =            685.1216948109345140
    One-Electron Energy =               -2058.2101013021906510
    Two-Electron Energy =                 858.4949957590857821
    Total Energy =                       -514.5934107321703550
  Basis Set: (AUG-CC-PVTZ AUX)
    Blend: AUG-CC-PVTZ-RI
    Molecular point group: c1

    Geometry (in Angstrom), charge = 0, multiplicity = 1:

       Center              X                  Y                   Z               Mass
    ------------   -----------------  -----------------  -----------------  -----------------
         O            0.954979453618     2.467677403831    -0.653396862770    15.994914619570
         N            2.059613453618     0.650664403831     0.181237137230    14.003074004430
         C            0.769661453618    -1.602274596169    -0.867033862770    12.000000000000
         C            1.829000453618    -1.818366596169     0.222670137230    12.000000000000
         C           -0.436518546382    -0.839807596169    -0.378217862770    12.000000000000
         C            2.039928453618    -0.536961596169     1.029163137230    12.000000000000
         C           -0.351853546382     0.537819403831    -0.088091862770    12.000000000000
         C            0.925154453618     1.312157403831    -0.219795862770    12.000000000000
         C           -1.654834446382    -1.492612896169    -0.138936962770    12.000000000000
         C           -1.490360546382     1.256379403831     0.294871137230    12.000000000000
         C           -2.807982546382    -0.761581596169     0.177767137230    12.000000000000
         C           -2.714913546382     0.607532403831     0.438948137230    12.000000000000
         H            0.451578453618    -2.568875596169    -1.273706862770     1.007825032230
         H            1.229825453618    -1.048319596169    -1.692347862770     1.007825032230
         H            1.519770453618    -2.617690596169     0.907632137230     1.007825032230
         H            2.767601453618    -2.135051596169    -0.247152862770     1.007825032230
         H            1.242263453618    -0.435530596169     1.772977137230     1.007825032230
         H            2.986217453618    -0.573158596169     1.576764137230     1.007825032230
         H            2.892548453618     1.230177403831     0.159169137230     1.007825032230
         H           -1.762315546382    -2.531475596169    -0.463879862770     1.007825032230
         H           -1.394849546382     2.324892403831     0.470485137230     1.007825032230
         H           -3.760918546382    -1.275057596169     0.283569137230     1.007825032230
         H           -3.594998546382     1.167315403831     0.745997137230     1.007825032230

  Basis Set: AUG-CC-PVTZ
    Blend: AUG-CC-PVTZ
  Basis Set: (AUG-CC-PVTZ AUX)
    Blend: AUG-CC-PVTZ-JKFIT
	 Reference Energy          =    -514.5934107321703550 [Eh]
	 Singles Energy            =      -0.0000000000000000 [Eh]
	 Same-Spin Energy          =      -0.5587983243955850 [Eh]
	 Opposite-Spin Energy      =      -1.7448137890667845 [Eh]
	 Correlation Energy        =      -2.3036121134623695 [Eh]
	 Total Energy              =    -516.8970228456327050 [Eh]

	 ================> DF-SCS-MP2 Energies <==================
	-----------------------------------------------------------
	 SCS Same-Spin Scale       =       0.3333333333333333 [-]
	 SCS Opposite-Spin Scale   =       1.2000000000000000 [-]
	 SCS Same-Spin Energy      =      -0.1862661081318616 [Eh]
	 SCS Opposite-Spin Energy  =      -2.0937765468801413 [Eh]
	 SCS Correlation Energy    =      -2.2800426550120028 [Eh]
	 SCS Total Energy          =    -516.8734533871823942 [Eh]
	-----------------------------------------------------------

  Dipole Moment: [D]
     X:     0.6252      Y:    -3.5830      Z:     1.7197     Total:     4.0232

*** Psi4 exiting successfully. Buy a developer a beer!
