                               Psi4 1.4a2.dev612

  ==> Input File <==

--------------------------------------------------------------------------
#psi4
#
memory 32 gb

molecule  {
0 1
  O        0.9417500     2.5148810    -0.6596880
  N        2.0463840     0.6978680     0.1749460
  C        0.7564320    -1.5550710    -0.8733250
  C        1.8157710    -1.7711630     0.2163790
  C       -0.4497480    -0.7926040    -0.3845090
  C        2.0266990    -0.4897580     1.0228720
  C       -0.3650830     0.5850230    -0.0943830
  C        0.9119250     1.3593610    -0.2260870
  C       -1.6214658    -1.4899040     0.0441098
  C       -1.5035900     1.3035830     0.2885800
  C       -2.8212120    -0.7143780     0.1714760
  C       -2.7281430     0.6547360     0.4326570
  H        0.4383490    -2.5216720    -1.2799980
  H        1.2165960    -1.0011160    -1.6986390
  H        1.5065410    -2.5704870     0.9013410
  H        2.7543720    -2.0878480    -0.2534440
  H        1.2290340    -0.3883270     1.7666860
  H        2.9729880    -0.5259550     1.5704730
  H        2.8793190     1.2773810     0.1528780
  H       -1.7755450    -2.4842720    -0.4701710
  H       -1.4080790     2.3720960     0.4641940
  H       -3.7741480    -1.2278540     0.2772780
  H       -3.6082280     1.2145190     0.7397060
units angstrom
no_reorient  #important for SAPT in psi4, default
symmetry c1  #important for SAPT in psi4, default
}

set PROPERTIES_ORIGIN ["COM"]
properties('MP2/aug-cc-pvtz', properties = ['dipole'])
--------------------------------------------------------------------------

    Molecular point group: c1
  Charge       = 0
  Multiplicity = 1
  Basis Set: AUG-CC-PVTZ
    Blend: AUG-CC-PVTZ
  Basis Set: (AUG-CC-PVTZ AUX)
    Blend: AUG-CC-PVTZ-JKFIT

    Orbital Energies [Eh]
    ---------------------

    Doubly Occupied:

       1A    -20.515100     2A    -15.582950     3A    -11.351417
       4A    -11.275682     5A    -11.266096     6A    -11.257641
       7A    -11.251247     8A    -11.248968     9A    -11.245901
      10A    -11.240024    11A    -11.239343    12A    -11.238585
      13A     -1.369171    14A     -1.234987    15A     -1.161573
      16A     -1.082859    17A     -1.035032    18A     -1.017390
      19A     -0.938290    20A     -0.879225    21A     -0.841038
      22A     -0.796381    23A     -0.775116    24A     -0.693735
      25A     -0.685095    26A     -0.671884    27A     -0.652730
      28A     -0.620616    29A     -0.611014    30A     -0.591897
      31A     -0.588171    32A     -0.577784    33A     -0.553592
      34A     -0.535214    35A     -0.518118    36A     -0.506904
      37A     -0.492505    38A     -0.486342    39A     -0.477369
      40A     -0.422404    41A     -0.389484    42A     -0.344049
      43A     -0.334790

  @DF-RHF Final Energy:  -514.56802531122048

   => Energetics <=

    Nuclear Repulsion Energy =            684.4593259910000143
    One-Electron Energy =               -2056.8592784120887700
    Two-Electron Energy =                 857.8319271098682748
    Total Energy =                       -514.5680253112204809
  Basis Set: (AUG-CC-PVTZ AUX)
    Blend: AUG-CC-PVTZ-RI
    Molecular point group: c1

    Geometry (in Angstrom), charge = 0, multiplicity = 1:

       Center              X                  Y                   Z               Mass
    ------------   -----------------  -----------------  -----------------  -----------------
         O            0.951508115820     2.470992048289    -0.667501639766    15.994914619570
         N            2.056142115820     0.653979048289     0.167132360234    14.003074004430
         C            0.766190115820    -1.598959951711    -0.881138639766    12.000000000000
         C            1.825529115820    -1.815051951711     0.208565360234    12.000000000000
         C           -0.439989884180    -0.836492951711    -0.392322639766    12.000000000000
         C            2.036457115820    -0.533646951711     1.015058360234    12.000000000000
         C           -0.355324884180     0.541134048289    -0.102196639766    12.000000000000
         C            0.921683115820     1.315472048289    -0.233900639766    12.000000000000
         C           -1.611707684180    -1.533792951711     0.036296160234    12.000000000000
         C           -1.493831884180     1.259694048289     0.280766360234    12.000000000000
         C           -2.811453884180    -0.758266951711     0.163662360234    12.000000000000
         C           -2.718384884180     0.610847048289     0.424843360234    12.000000000000
         H            0.448107115820    -2.565560951711    -1.287811639766     1.007825032230
         H            1.226354115820    -1.045004951711    -1.706452639766     1.007825032230
         H            1.516299115820    -2.614375951711     0.893527360234     1.007825032230
         H            2.764130115820    -2.131736951711    -0.261257639766     1.007825032230
         H            1.238792115820    -0.432215951711     1.758872360234     1.007825032230
         H            2.982746115820    -0.569843951711     1.562659360234     1.007825032230
         H            2.889077115820     1.233492048289     0.145064360234     1.007825032230
         H           -1.765786884180    -2.528160951711    -0.477984639766     1.007825032230
         H           -1.398320884180     2.328207048289     0.456380360234     1.007825032230
         H           -3.764389884180    -1.271742951711     0.269464360234     1.007825032230
         H           -3.598469884180     1.170630048289     0.731892360234     1.007825032230

  Basis Set: AUG-CC-PVTZ
    Blend: AUG-CC-PVTZ
  Basis Set: (AUG-CC-PVTZ AUX)
    Blend: AUG-CC-PVTZ-JKFIT
	 Reference Energy          =    -514.5680253112204809 [Eh]
	 Singles Energy            =      -0.0000000000000000 [Eh]
	 Same-Spin Energy          =      -0.5598247784671507 [Eh]
	 Opposite-Spin Energy      =      -1.7482717695868883 [Eh]
	 Correlation Energy        =      -2.3080965480540390 [Eh]
	 Total Energy              =    -516.8761218592745763 [Eh]

	 ================> DF-SCS-MP2 Energies <==================
	-----------------------------------------------------------
	 SCS Same-Spin Scale       =       0.3333333333333333 [-]
	 SCS Opposite-Spin Scale   =       1.2000000000000000 [-]
	 SCS Same-Spin Energy      =      -0.1866082594890502 [Eh]
	 SCS Opposite-Spin Energy  =      -2.0979261235042661 [Eh]
	 SCS Correlation Energy    =      -2.2845343829933165 [Eh]
	 SCS Total Energy          =    -516.8525596942138236 [Eh]
	-----------------------------------------------------------

  Dipole Moment: [D]
     X:     0.6436      Y:    -3.4017      Z:     1.6343     Total:     3.8284

*** Psi4 exiting successfully. Buy a developer a beer!
