                               Psi4 1.4a2.dev612

  ==> Input File <==

--------------------------------------------------------------------------
#psi4
#
memory 32 gb

molecule  {
0 1
  O        0.9417500     2.5148810    -0.6596880
  N        2.0463840     0.6978680     0.1749460
  C        0.7564320    -1.5550710    -0.8733250
  C        1.8157710    -1.7711630     0.2163790
  C       -0.4497480    -0.7926040    -0.3845090
  C        2.0266990    -0.4897580     1.0228720
  C       -0.3650830     0.5850230    -0.0943830
  C        0.9119250     1.3593610    -0.2260870
  C       -1.6564144    -1.4565330    -0.0978936
  C       -1.5035900     1.3035830     0.2885800
  C       -2.8212120    -0.7143780     0.1714760
  C       -2.7281430     0.6547360     0.4326570
  H        0.4383490    -2.5216720    -1.2799980
  H        1.2165960    -1.0011160    -1.6986390
  H        1.5065410    -2.5704870     0.9013410
  H        2.7543720    -2.0878480    -0.2534440
  H        1.2290340    -0.3883270     1.7666860
  H        2.9729880    -0.5259550     1.5704730
  H        2.8793190     1.2773810     0.1528780
  H       -1.7755450    -2.4842720    -0.4701710
  H       -1.4080790     2.3720960     0.4641940
  H       -3.7741480    -1.2278540     0.2772780
  H       -3.6082280     1.2145190     0.7397060
units angstrom
no_reorient  #important for SAPT in psi4, default
symmetry c1  #important for SAPT in psi4, default
}

set PROPERTIES_ORIGIN ["COM"]
properties('MP2/aug-cc-pvtz', properties = ['dipole'])
--------------------------------------------------------------------------

    Molecular point group: c1
  Charge       = 0
  Multiplicity = 1
  Basis Set: AUG-CC-PVTZ
    Blend: AUG-CC-PVTZ
  Basis Set: (AUG-CC-PVTZ AUX)
    Blend: AUG-CC-PVTZ-JKFIT

    Orbital Energies [Eh]
    ---------------------

    Doubly Occupied:

       1A    -20.515051     2A    -15.582772     3A    -11.351362
       4A    -11.275661     5A    -11.260284     6A    -11.251448
       7A    -11.247608     8A    -11.246211     9A    -11.243693
      10A    -11.239674    11A    -11.239541    12A    -11.238102
      13A     -1.369021    14A     -1.234837    15A     -1.163429
      16A     -1.082421    17A     -1.036092    18A     -1.019808
      19A     -0.938392    20A     -0.880774    21A     -0.841282
      22A     -0.797819    23A     -0.776103    24A     -0.695857
      25A     -0.685429    26A     -0.671640    27A     -0.652960
      28A     -0.622402    29A     -0.614426    30A     -0.597677
      31A     -0.587569    32A     -0.576805    33A     -0.555642
      34A     -0.535904    35A     -0.518693    36A     -0.509116
      37A     -0.492040    38A     -0.489464    39A     -0.478606
      40A     -0.422956    41A     -0.389385    42A     -0.343671
      43A     -0.335962

  @DF-RHF Final Energy:  -514.58946220537700

   => Energetics <=

    Nuclear Repulsion Energy =            685.0366304607528036
    One-Electron Energy =               -2058.0370047139012968
    Two-Electron Energy =                 858.4109120477714896
    Total Energy =                       -514.5894622053770036
  Basis Set: (AUG-CC-PVTZ AUX)
    Blend: AUG-CC-PVTZ-RI
    Molecular point group: c1

    Geometry (in Angstrom), charge = 0, multiplicity = 1:

       Center              X                  Y                   Z               Mass
    ------------   -----------------  -----------------  -----------------  -----------------
         O            0.954111621031     2.468506066808    -0.656923058882    15.994914619570
         N            2.058745621031     0.651493066808     0.177710941118    14.003074004430
         C            0.768793621031    -1.601445933192    -0.870560058882    12.000000000000
         C            1.828132621031    -1.817537933192     0.219143941118    12.000000000000
         C           -0.437386378969    -0.838978933192    -0.381744058882    12.000000000000
         C            2.039060621031    -0.536132933192     1.025636941118    12.000000000000
         C           -0.352721378969     0.538648066808    -0.091618058882    12.000000000000
         C            0.924286621031     1.312986066808    -0.223322058882    12.000000000000
         C           -1.644052778969    -1.502907933192    -0.095128658882    12.000000000000
         C           -1.491228378969     1.257208066808     0.291344941118    12.000000000000
         C           -2.808850378969    -0.760752933192     0.174240941118    12.000000000000
         C           -2.715781378969     0.608361066808     0.435421941118    12.000000000000
         H            0.450710621031    -2.568046933192    -1.277233058882     1.007825032230
         H            1.228957621031    -1.047490933192    -1.695874058882     1.007825032230
         H            1.518902621031    -2.616861933192     0.904105941118     1.007825032230
         H            2.766733621031    -2.134222933192    -0.250679058882     1.007825032230
         H            1.241395621031    -0.434701933192     1.769450941118     1.007825032230
         H            2.985349621031    -0.572329933192     1.573237941118     1.007825032230
         H            2.891680621031     1.231006066808     0.155642941118     1.007825032230
         H           -1.763183378969    -2.530646933192    -0.467406058882     1.007825032230
         H           -1.395717378969     2.325721066808     0.466958941118     1.007825032230
         H           -3.761786378969    -1.274228933192     0.280042941118     1.007825032230
         H           -3.595866378969     1.168144066808     0.742470941118     1.007825032230

  Basis Set: AUG-CC-PVTZ
    Blend: AUG-CC-PVTZ
  Basis Set: (AUG-CC-PVTZ AUX)
    Blend: AUG-CC-PVTZ-JKFIT
	 Reference Energy          =    -514.5894622053770036 [Eh]
	 Singles Energy            =      -0.0000000000000000 [Eh]
	 Same-Spin Energy          =      -0.5589710553715164 [Eh]
	 Opposite-Spin Energy      =      -1.7453634919695156 [Eh]
	 Correlation Energy        =      -2.3043345473410319 [Eh]
	 Total Energy              =    -516.8937967527180035 [Eh]

	 ================> DF-SCS-MP2 Energies <==================
	-----------------------------------------------------------
	 SCS Same-Spin Scale       =       0.3333333333333333 [-]
	 SCS Opposite-Spin Scale   =       1.2000000000000000 [-]
	 SCS Same-Spin Energy      =      -0.1863236851238388 [Eh]
	 SCS Opposite-Spin Energy  =      -2.0944361903634188 [Eh]
	 SCS Correlation Energy    =      -2.2807598754872576 [Eh]
	 SCS Total Energy          =    -516.8702220808642096 [Eh]
	-----------------------------------------------------------

  Dipole Moment: [D]
     X:     0.6264      Y:    -3.5519      Z:     1.6969     Total:     3.9860

*** Psi4 exiting successfully. Buy a developer a beer!
