                               Psi4 1.4a2.dev612

  ==> Input File <==

--------------------------------------------------------------------------
#psi4
#
memory 32 gb

molecule  {
0 1
  O        0.9417500     2.5148810    -0.6596880
  N        2.0463840     0.6978680     0.1749460
  C        0.7564320    -1.5550710    -0.8733250
  C        1.8157710    -1.7711630     0.2163790
  C       -0.4497480    -0.7926040    -0.3845090
  C        2.0266990    -0.4897580     1.0228720
  C       -0.3530679     0.5497085    -0.1871651
  C        0.9119250     1.3593610    -0.2260870
  C       -1.6913630    -1.4231620    -0.2398970
  C       -1.5035900     1.3035830     0.2885800
  C       -2.8212120    -0.7143780     0.1714760
  C       -2.7281430     0.6547360     0.4326570
  H        0.4383490    -2.5216720    -1.2799980
  H        1.2165960    -1.0011160    -1.6986390
  H        1.5065410    -2.5704870     0.9013410
  H        2.7543720    -2.0878480    -0.2534440
  H        1.2290340    -0.3883270     1.7666860
  H        2.9729880    -0.5259550     1.5704730
  H        2.8793190     1.2773810     0.1528780
  H       -1.7755450    -2.4842720    -0.4701710
  H       -1.4080790     2.3720960     0.4641940
  H       -3.7741480    -1.2278540     0.2772780
  H       -3.6082280     1.2145190     0.7397060
units angstrom
no_reorient  #important for SAPT in psi4, default
symmetry c1  #important for SAPT in psi4, default
}

set PROPERTIES_ORIGIN ["COM"]
properties('MP2/aug-cc-pvtz', properties = ['dipole'])
--------------------------------------------------------------------------

    Molecular point group: c1
  Charge       = 0
  Multiplicity = 1
  Basis Set: AUG-CC-PVTZ
    Blend: AUG-CC-PVTZ
  Basis Set: (AUG-CC-PVTZ AUX)
    Blend: AUG-CC-PVTZ-JKFIT

    Orbital Energies [Eh]
    ---------------------

    Doubly Occupied:

       1A    -20.515473     2A    -15.582778     3A    -11.352200
       4A    -11.275882     5A    -11.252577     6A    -11.251133
       7A    -11.249323     8A    -11.247103     9A    -11.242210
      10A    -11.240030    11A    -11.238037    12A    -11.237407
      13A     -1.369246    14A     -1.235102    15A     -1.165480
      16A     -1.082194    17A     -1.037496    18A     -1.017399
      19A     -0.938223    20A     -0.881275    21A     -0.842089
      22A     -0.800552    23A     -0.774738    24A     -0.696173
      25A     -0.685317    26A     -0.674150    27A     -0.653418
      28A     -0.623753    29A     -0.616171    30A     -0.593775
      31A     -0.589508    32A     -0.575439    33A     -0.556952
      34A     -0.535966    35A     -0.519004    36A     -0.512164
      37A     -0.492299    38A     -0.489000    39A     -0.474360
      40A     -0.422920    41A     -0.389909    42A     -0.344917
      43A     -0.336079

  @DF-RHF Final Energy:  -514.59056173641466

   => Energetics <=

    Nuclear Repulsion Energy =            685.2102176145434669
    One-Electron Energy =               -2058.3831148111453331
    Two-Electron Energy =                 858.5823354601870960
    Total Energy =                       -514.5905617364146565
  Basis Set: (AUG-CC-PVTZ AUX)
    Blend: AUG-CC-PVTZ-RI
    Molecular point group: c1

    Geometry (in Angstrom), charge = 0, multiplicity = 1:

       Center              X                  Y                   Z               Mass
    ------------   -----------------  -----------------  -----------------  -----------------
         O            0.955820058186     2.468650848355    -0.639432650889    15.994914619570
         N            2.060454058186     0.651637848355     0.195201349111    14.003074004430
         C            0.770502058186    -1.601301151645    -0.853069650889    12.000000000000
         C            1.829841058186    -1.817393151645     0.236634349111    12.000000000000
         C           -0.435677941814    -0.838834151645    -0.364253650889    12.000000000000
         C            2.040769058186    -0.535988151645     1.043127349111    12.000000000000
         C           -0.338997841814     0.503478348355    -0.166909750889    12.000000000000
         C            0.925995058186     1.313130848355    -0.205831650889    12.000000000000
         C           -1.677292941814    -1.469392151645    -0.219641650889    12.000000000000
         C           -1.489519941814     1.257352848355     0.308835349111    12.000000000000
         C           -2.807141941814    -0.760608151645     0.191731349111    12.000000000000
         C           -2.714072941814     0.608505848355     0.452912349111    12.000000000000
         H            0.452419058186    -2.567902151645    -1.259742650889     1.007825032230
         H            1.230666058186    -1.047346151645    -1.678383650889     1.007825032230
         H            1.520611058186    -2.616717151645     0.921596349111     1.007825032230
         H            2.768442058186    -2.134078151645    -0.233188650889     1.007825032230
         H            1.243104058186    -0.434557151645     1.786941349111     1.007825032230
         H            2.987058058186    -0.572185151645     1.590728349111     1.007825032230
         H            2.893389058186     1.231150848355     0.173133349111     1.007825032230
         H           -1.761474941814    -2.530502151645    -0.449915650889     1.007825032230
         H           -1.394008941814     2.325865848355     0.484449349111     1.007825032230
         H           -3.760077941814    -1.274084151645     0.297533349111     1.007825032230
         H           -3.594157941814     1.168288848355     0.759961349111     1.007825032230

  Basis Set: AUG-CC-PVTZ
    Blend: AUG-CC-PVTZ
  Basis Set: (AUG-CC-PVTZ AUX)
    Blend: AUG-CC-PVTZ-JKFIT
	 Reference Energy          =    -514.5905617364146565 [Eh]
	 Singles Energy            =      -0.0000000000000000 [Eh]
	 Same-Spin Energy          =      -0.5585692395985706 [Eh]
	 Opposite-Spin Energy      =      -1.7447433367037757 [Eh]
	 Correlation Energy        =      -2.3033125763023463 [Eh]
	 Total Energy              =    -516.8938743127170028 [Eh]

	 ================> DF-SCS-MP2 Energies <==================
	-----------------------------------------------------------
	 SCS Same-Spin Scale       =       0.3333333333333333 [-]
	 SCS Opposite-Spin Scale   =       1.2000000000000000 [-]
	 SCS Same-Spin Energy      =      -0.1861897465328569 [Eh]
	 SCS Opposite-Spin Energy  =      -2.0936920040445308 [Eh]
	 SCS Correlation Energy    =      -2.2798817505773878 [Eh]
	 SCS Total Energy          =    -516.8704434869920306 [Eh]
	-----------------------------------------------------------

  Dipole Moment: [D]
     X:     0.6054      Y:    -3.6150      Z:     1.7724     Total:     4.0714

*** Psi4 exiting successfully. Buy a developer a beer!
