                               Psi4 1.4a2.dev612

  ==> Input File <==

--------------------------------------------------------------------------
#psi4
#
memory 32 gb

molecule  {
0 1
  O        0.9417500     2.5148810    -0.6596880
  N        2.0463840     0.6978680     0.1749460
  C        0.7564320    -1.5550710    -0.8733250
  C        1.8157710    -1.7711630     0.2163790
  C       -0.4497480    -0.7926040    -0.3845090
  C        2.0266990    -0.4897580     1.0228720
  C       -0.3650830     0.5850230    -0.0943830
  C        0.9119250     1.3593610    -0.2260870
  C       -1.6913630    -1.4231620    -0.2398970
  C       -1.4618810     1.2631033     0.4799481
  C       -2.8212120    -0.7143780     0.1714760
  C       -2.7281430     0.6547360     0.4326570
  H        0.4383490    -2.5216720    -1.2799980
  H        1.2165960    -1.0011160    -1.6986390
  H        1.5065410    -2.5704870     0.9013410
  H        2.7543720    -2.0878480    -0.2534440
  H        1.2290340    -0.3883270     1.7666860
  H        2.9729880    -0.5259550     1.5704730
  H        2.8793190     1.2773810     0.1528780
  H       -1.7755450    -2.4842720    -0.4701710
  H       -1.4080790     2.3720960     0.4641940
  H       -3.7741480    -1.2278540     0.2772780
  H       -3.6082280     1.2145190     0.7397060
units angstrom
no_reorient  #important for SAPT in psi4, default
symmetry c1  #important for SAPT in psi4, default
}

set PROPERTIES_ORIGIN ["COM"]
properties('MP2/aug-cc-pvtz', properties = ['dipole'])
--------------------------------------------------------------------------

    Molecular point group: c1
  Charge       = 0
  Multiplicity = 1
  Basis Set: AUG-CC-PVTZ
    Blend: AUG-CC-PVTZ
  Basis Set: (AUG-CC-PVTZ AUX)
    Blend: AUG-CC-PVTZ-JKFIT

    Orbital Energies [Eh]
    ---------------------

    Doubly Occupied:

       1A    -20.516692     2A    -15.583349     3A    -11.352477
       4A    -11.275827     5A    -11.257283     6A    -11.251012
       7A    -11.248183     8A    -11.247792     9A    -11.244073
      10A    -11.243502    11A    -11.239353    12A    -11.238022
      13A     -1.370039    14A     -1.235437    15A     -1.163307
      16A     -1.081875    17A     -1.036664    18A     -1.019484
      19A     -0.938170    20A     -0.881321    21A     -0.840910
      22A     -0.797375    23A     -0.774873    24A     -0.697379
      25A     -0.685841    26A     -0.670321    27A     -0.652885
      28A     -0.622384    29A     -0.615827    30A     -0.596335
      31A     -0.587695    32A     -0.575008    33A     -0.556875
      34A     -0.535688    35A     -0.519288    36A     -0.508528
      37A     -0.491418    38A     -0.487197    39A     -0.477869
      40A     -0.423831    41A     -0.389709    42A     -0.344339
      43A     -0.335308

  @DF-RHF Final Energy:  -514.58360620898895

   => Energetics <=

    Nuclear Repulsion Energy =            684.8331796385350572
    One-Electron Energy =               -2057.6120756567024728
    Two-Electron Energy =                 858.1952898091784618
    Total Energy =                       -514.5836062089889538
  Basis Set: (AUG-CC-PVTZ AUX)
    Blend: AUG-CC-PVTZ-RI
    Molecular point group: c1

    Geometry (in Angstrom), charge = 0, multiplicity = 1:

       Center              X                  Y                   Z               Mass
    ------------   -----------------  -----------------  -----------------  -----------------
         O            0.953608003243     2.469035631297    -0.660600495279    15.994914619570
         N            2.058242003243     0.652022631297     0.174033504721    14.003074004430
         C            0.768290003243    -1.600916368703    -0.874237495279    12.000000000000
         C            1.827629003243    -1.817008368703     0.215466504721    12.000000000000
         C           -0.437889996757    -0.838449368703    -0.385421495279    12.000000000000
         C            2.038557003243    -0.535603368703     1.021959504721    12.000000000000
         C           -0.353224996757     0.539177631297    -0.095295495279    12.000000000000
         C            0.923783003243     1.313515631297    -0.226999495279    12.000000000000
         C           -1.679504996757    -1.469007368703    -0.240809495279    12.000000000000
         C           -1.450022996757     1.217257931297     0.479035604721    12.000000000000
         C           -2.809353996757    -0.760223368703     0.170563504721    12.000000000000
         C           -2.716284996757     0.608890631297     0.431744504721    12.000000000000
         H            0.450207003243    -2.567517368703    -1.280910495279     1.007825032230
         H            1.228454003243    -1.046961368703    -1.699551495279     1.007825032230
         H            1.518399003243    -2.616332368703     0.900428504721     1.007825032230
         H            2.766230003243    -2.133693368703    -0.254356495279     1.007825032230
         H            1.240892003243    -0.434172368703     1.765773504721     1.007825032230
         H            2.984846003243    -0.571800368703     1.569560504721     1.007825032230
         H            2.891177003243     1.231535631297     0.151965504721     1.007825032230
         H           -1.763686996757    -2.530117368703    -0.471083495279     1.007825032230
         H           -1.396220996757     2.326250631297     0.463281504721     1.007825032230
         H           -3.762289996757    -1.273699368703     0.276365504721     1.007825032230
         H           -3.596369996757     1.168673631297     0.738793504721     1.007825032230

  Basis Set: AUG-CC-PVTZ
    Blend: AUG-CC-PVTZ
  Basis Set: (AUG-CC-PVTZ AUX)
    Blend: AUG-CC-PVTZ-JKFIT
	 Reference Energy          =    -514.5836062089889538 [Eh]
	 Singles Energy            =      -0.0000000000000000 [Eh]
	 Same-Spin Energy          =      -0.5594584306351071 [Eh]
	 Opposite-Spin Energy      =      -1.7465413159471621 [Eh]
	 Correlation Energy        =      -2.3059997465822692 [Eh]
	 Total Energy              =    -516.8896059555712554 [Eh]

	 ================> DF-SCS-MP2 Energies <==================
	-----------------------------------------------------------
	 SCS Same-Spin Scale       =       0.3333333333333333 [-]
	 SCS Opposite-Spin Scale   =       1.2000000000000000 [-]
	 SCS Same-Spin Energy      =      -0.1864861435450357 [Eh]
	 SCS Opposite-Spin Energy  =      -2.0958495791365945 [Eh]
	 SCS Correlation Energy    =      -2.2823357226816303 [Eh]
	 SCS Total Energy          =    -516.8659419316705907 [Eh]
	-----------------------------------------------------------

  Dipole Moment: [D]
     X:     0.6432      Y:    -3.6696      Z:     1.6419     Total:     4.0713

*** Psi4 exiting successfully. Buy a developer a beer!
