                               Psi4 1.4a2.dev612

  ==> Input File <==

--------------------------------------------------------------------------
#psi4
#
memory 32 gb

molecule  {
0 1
  O        0.9417500     2.5148810    -0.6596880
  N        2.0463840     0.6978680     0.1749460
  C        0.7564320    -1.5550710    -0.8733250
  C        1.8157710    -1.7711630     0.2163790
  C       -0.4497480    -0.7926040    -0.3845090
  C        2.0266990    -0.4897580     1.0228720
  C       -0.3410528     0.5143941    -0.2799473
  C        0.9119250     1.3593610    -0.2260870
  C       -1.6913630    -1.4231620    -0.2398970
  C       -1.5035900     1.3035830     0.2885800
  C       -2.8212120    -0.7143780     0.1714760
  C       -2.7281430     0.6547360     0.4326570
  H        0.4383490    -2.5216720    -1.2799980
  H        1.2165960    -1.0011160    -1.6986390
  H        1.5065410    -2.5704870     0.9013410
  H        2.7543720    -2.0878480    -0.2534440
  H        1.2290340    -0.3883270     1.7666860
  H        2.9729880    -0.5259550     1.5704730
  H        2.8793190     1.2773810     0.1528780
  H       -1.7755450    -2.4842720    -0.4701710
  H       -1.4080790     2.3720960     0.4641940
  H       -3.7741480    -1.2278540     0.2772780
  H       -3.6082280     1.2145190     0.7397060
units angstrom
no_reorient  #important for SAPT in psi4, default
symmetry c1  #important for SAPT in psi4, default
}

set PROPERTIES_ORIGIN ["COM"]
properties('MP2/aug-cc-pvtz', properties = ['dipole'])
--------------------------------------------------------------------------

    Molecular point group: c1
  Charge       = 0
  Multiplicity = 1
  Basis Set: AUG-CC-PVTZ
    Blend: AUG-CC-PVTZ
  Basis Set: (AUG-CC-PVTZ AUX)
    Blend: AUG-CC-PVTZ-JKFIT

    Orbital Energies [Eh]
    ---------------------

    Doubly Occupied:

       1A    -20.516038     2A    -15.582858     3A    -11.353693
       4A    -11.276035     5A    -11.255776     6A    -11.250192
       7A    -11.248247     8A    -11.246336     9A    -11.242441
      10A    -11.240009    11A    -11.237361    12A    -11.236345
      13A     -1.369415    14A     -1.235356    15A     -1.167327
      16A     -1.082658    17A     -1.039348    18A     -1.012506
      19A     -0.938022    20A     -0.880092    21A     -0.843193
      22A     -0.802605    23A     -0.771759    24A     -0.695214
      25A     -0.684878    26A     -0.676302    27A     -0.653864
      28A     -0.623807    29A     -0.616762    30A     -0.593075
      31A     -0.585246    32A     -0.574545    33A     -0.556861
      34A     -0.536325    35A     -0.520550    36A     -0.513015
      37A     -0.490853    38A     -0.488110    39A     -0.467912
      40A     -0.421102    41A     -0.390444    42A     -0.352186
      43A     -0.330746

  @DF-RHF Final Energy:  -514.57214754924462

   => Energetics <=

    Nuclear Repulsion Energy =            685.1450608990460296
    One-Electron Energy =               -2058.2355978957170919
    Two-Electron Energy =                 858.5183894474264434
    Total Energy =                       -514.5721475492446189
  Basis Set: (AUG-CC-PVTZ AUX)
    Blend: AUG-CC-PVTZ-RI
    Molecular point group: c1

    Geometry (in Angstrom), charge = 0, multiplicity = 1:

       Center              X                  Y                   Z               Mass
    ------------   -----------------  -----------------  -----------------  -----------------
         O            0.954924990130     2.471281603934    -0.632520816332    15.994914619570
         N            2.059558990130     0.654268603934     0.202113183668    14.003074004430
         C            0.769606990130    -1.598670396066    -0.846157816332    12.000000000000
         C            1.828945990130    -1.814762396066     0.243546183668    12.000000000000
         C           -0.436573009870    -0.836203396066    -0.357341816332    12.000000000000
         C            2.039873990130    -0.533357396066     1.050039183668    12.000000000000
         C           -0.327877809870     0.470794703934    -0.252780116332    12.000000000000
         C            0.925099990130     1.315761603934    -0.198919816332    12.000000000000
         C           -1.678188009870    -1.466761396066    -0.212729816332    12.000000000000
         C           -1.490415009870     1.259983603934     0.315747183668    12.000000000000
         C           -2.808037009870    -0.757977396066     0.198643183668    12.000000000000
         C           -2.714968009870     0.611136603934     0.459824183668    12.000000000000
         H            0.451523990130    -2.565271396066    -1.252830816332     1.007825032230
         H            1.229770990130    -1.044715396066    -1.671471816332     1.007825032230
         H            1.519715990130    -2.614086396066     0.928508183668     1.007825032230
         H            2.767546990130    -2.131447396066    -0.226276816332     1.007825032230
         H            1.242208990130    -0.431926396066     1.793853183668     1.007825032230
         H            2.986162990130    -0.569554396066     1.597640183668     1.007825032230
         H            2.892493990130     1.233781603934     0.180045183668     1.007825032230
         H           -1.762370009870    -2.527871396066    -0.443003816332     1.007825032230
         H           -1.394904009870     2.328496603934     0.491361183668     1.007825032230
         H           -3.760973009870    -1.271453396066     0.304445183668     1.007825032230
         H           -3.595053009870     1.170919603934     0.766873183668     1.007825032230

  Basis Set: AUG-CC-PVTZ
    Blend: AUG-CC-PVTZ
  Basis Set: (AUG-CC-PVTZ AUX)
    Blend: AUG-CC-PVTZ-JKFIT
	 Reference Energy          =    -514.5721475492446189 [Eh]
	 Singles Energy            =      -0.0000000000000000 [Eh]
	 Same-Spin Energy          =      -0.5585112042716378 [Eh]
	 Opposite-Spin Energy      =      -1.7459502346113980 [Eh]
	 Correlation Energy        =      -2.3044614388830356 [Eh]
	 Total Energy              =    -516.8766089881276002 [Eh]

	 ================> DF-SCS-MP2 Energies <==================
	-----------------------------------------------------------
	 SCS Same-Spin Scale       =       0.3333333333333333 [-]
	 SCS Opposite-Spin Scale   =       1.2000000000000000 [-]
	 SCS Same-Spin Energy      =      -0.1861704014238793 [Eh]
	 SCS Opposite-Spin Energy  =      -2.0951402815336775 [Eh]
	 SCS Correlation Energy    =      -2.2813106829575567 [Eh]
	 SCS Total Energy          =    -516.8534582322022288 [Eh]
	-----------------------------------------------------------

  Dipole Moment: [D]
     X:     0.5792      Y:    -3.6175      Z:     1.7749     Total:     4.0709

*** Psi4 exiting successfully. Buy a developer a beer!
