                               Psi4 1.4a2.dev612

  ==> Input File <==

--------------------------------------------------------------------------
#psi4
#
memory 32 gb

molecule  {
0 1
  O        0.9417500     2.5148810    -0.6596880
  N        2.0463840     0.6978680     0.1749460
  C        0.7564320    -1.5550710    -0.8733250
  C        1.8157710    -1.7711630     0.2163790
  C       -0.4497480    -0.7926040    -0.3845090
  C        2.0266990    -0.4897580     1.0228720
  C       -0.3650830     0.5850230    -0.0943830
  C        0.9119250     1.3593610    -0.2260870
  C       -1.6913630    -1.4231620    -0.2398970
  C       -1.4931627     1.2934631     0.3364220
  C       -2.8212120    -0.7143780     0.1714760
  C       -2.7281430     0.6547360     0.4326570
  H        0.4383490    -2.5216720    -1.2799980
  H        1.2165960    -1.0011160    -1.6986390
  H        1.5065410    -2.5704870     0.9013410
  H        2.7543720    -2.0878480    -0.2534440
  H        1.2290340    -0.3883270     1.7666860
  H        2.9729880    -0.5259550     1.5704730
  H        2.8793190     1.2773810     0.1528780
  H       -1.7755450    -2.4842720    -0.4701710
  H       -1.4080790     2.3720960     0.4641940
  H       -3.7741480    -1.2278540     0.2772780
  H       -3.6082280     1.2145190     0.7397060
units angstrom
no_reorient  #important for SAPT in psi4, default
symmetry c1  #important for SAPT in psi4, default
}

set PROPERTIES_ORIGIN ["COM"]
properties('MP2/aug-cc-pvtz', properties = ['dipole'])
--------------------------------------------------------------------------

    Molecular point group: c1
  Charge       = 0
  Multiplicity = 1
  Basis Set: AUG-CC-PVTZ
    Blend: AUG-CC-PVTZ
  Basis Set: (AUG-CC-PVTZ AUX)
    Blend: AUG-CC-PVTZ-JKFIT

    Orbital Energies [Eh]
    ---------------------

    Doubly Occupied:

       1A    -20.515501     2A    -15.582862     3A    -11.351691
       4A    -11.275788     5A    -11.258106     6A    -11.248625
       7A    -11.247526     8A    -11.245575     9A    -11.241988
      10A    -11.240105    11A    -11.239353    12A    -11.237956
      13A     -1.369286    14A     -1.234970    15A     -1.164182
      16A     -1.082264    17A     -1.036829    18A     -1.020592
      19A     -0.938367    20A     -0.881606    21A     -0.841280
      22A     -0.798199    23A     -0.776231    24A     -0.696989
      25A     -0.685775    26A     -0.671887    27A     -0.652795
      28A     -0.623274    29A     -0.616193    30A     -0.599587
      31A     -0.587298    32A     -0.576280    33A     -0.557031
      34A     -0.535825    35A     -0.518828    36A     -0.509833
      37A     -0.491985    38A     -0.490298    39A     -0.478401
      40A     -0.423452    41A     -0.389519    42A     -0.344052
      43A     -0.336115

  @DF-RHF Final Energy:  -514.59585529037417

   => Energetics <=

    Nuclear Repulsion Energy =            685.1373708472273165
    One-Electron Energy =               -2058.2378551800343303
    Two-Electron Energy =                 858.5046290424327253
    Total Energy =                       -514.5958552903741747
  Basis Set: (AUG-CC-PVTZ AUX)
    Blend: AUG-CC-PVTZ-RI
    Molecular point group: c1

    Geometry (in Angstrom), charge = 0, multiplicity = 1:

       Center              X                  Y                   Z               Mass
    ------------   -----------------  -----------------  -----------------  -----------------
         O            0.955938341767     2.466773969957    -0.649908480455    15.994914619570
         N            2.060572341767     0.649760969957     0.184725519545    14.003074004430
         C            0.770620341767    -1.603178030043    -0.863545480455    12.000000000000
         C            1.829959341767    -1.819270030043     0.226158519545    12.000000000000
         C           -0.435559658233    -0.840711030043    -0.374729480455    12.000000000000
         C            2.040887341767    -0.537865030043     1.032651519545    12.000000000000
         C           -0.350894658233     0.536915969957    -0.084603480455    12.000000000000
         C            0.926113341767     1.311253969957    -0.216307480455    12.000000000000
         C           -1.677174658233    -1.471269030043    -0.230117480455    12.000000000000
         C           -1.478974358233     1.245356069957     0.346201519545    12.000000000000
         C           -2.807023658233    -0.762485030043     0.181255519545    12.000000000000
         C           -2.713954658233     0.606628969957     0.442436519545    12.000000000000
         H            0.452537341767    -2.569779030043    -1.270218480455     1.007825032230
         H            1.230784341767    -1.049223030043    -1.688859480455     1.007825032230
         H            1.520729341767    -2.618594030043     0.911120519545     1.007825032230
         H            2.768560341767    -2.135955030043    -0.243664480455     1.007825032230
         H            1.243222341767    -0.436434030043     1.776465519545     1.007825032230
         H            2.987176341767    -0.574062030043     1.580252519545     1.007825032230
         H            2.893507341767     1.229273969957     0.162657519545     1.007825032230
         H           -1.761356658233    -2.532379030043    -0.460391480455     1.007825032230
         H           -1.393890658233     2.323988969957     0.473973519545     1.007825032230
         H           -3.759959658233    -1.275961030043     0.287057519545     1.007825032230
         H           -3.594039658233     1.166411969957     0.749485519545     1.007825032230

  Basis Set: AUG-CC-PVTZ
    Blend: AUG-CC-PVTZ
  Basis Set: (AUG-CC-PVTZ AUX)
    Blend: AUG-CC-PVTZ-JKFIT
	 Reference Energy          =    -514.5958552903741747 [Eh]
	 Singles Energy            =      -0.0000000000000000 [Eh]
	 Same-Spin Energy          =      -0.5587141467126531 [Eh]
	 Opposite-Spin Energy      =      -1.7445368720008423 [Eh]
	 Correlation Energy        =      -2.3032510187134951 [Eh]
	 Total Energy              =    -516.8991063090876423 [Eh]

	 ================> DF-SCS-MP2 Energies <==================
	-----------------------------------------------------------
	 SCS Same-Spin Scale       =       0.3333333333333333 [-]
	 SCS Opposite-Spin Scale   =       1.2000000000000000 [-]
	 SCS Same-Spin Energy      =      -0.1862380489042177 [Eh]
	 SCS Opposite-Spin Energy  =      -2.0934442464010106 [Eh]
	 SCS Correlation Energy    =      -2.2796822953052285 [Eh]
	 SCS Total Energy          =    -516.8755375856793535 [Eh]
	-----------------------------------------------------------

  Dipole Moment: [D]
     X:     0.6325      Y:    -3.6163      Z:     1.7420     Total:     4.0635

*** Psi4 exiting successfully. Buy a developer a beer!
