                               Psi4 1.4a2.dev612

  ==> Input File <==

--------------------------------------------------------------------------
#psi4
#
memory 32 gb

molecule  {
0 1
  O        0.9417500     2.5148810    -0.6596880
  N        2.0463840     0.6978680     0.1749460
  C        0.7564320    -1.5550710    -0.8733250
  C        1.8157710    -1.7711630     0.2163790
  C       -0.4497480    -0.7926040    -0.3845090
  C        2.0266990    -0.4897580     1.0228720
  C       -0.3650830     0.5850230    -0.0943830
  C        0.9119250     1.3593610    -0.2260870
  C       -1.6797135    -1.4342857    -0.1925625
  C       -1.5035900     1.3035830     0.2885800
  C       -2.8212120    -0.7143780     0.1714760
  C       -2.7281430     0.6547360     0.4326570
  H        0.4383490    -2.5216720    -1.2799980
  H        1.2165960    -1.0011160    -1.6986390
  H        1.5065410    -2.5704870     0.9013410
  H        2.7543720    -2.0878480    -0.2534440
  H        1.2290340    -0.3883270     1.7666860
  H        2.9729880    -0.5259550     1.5704730
  H        2.8793190     1.2773810     0.1528780
  H       -1.7755450    -2.4842720    -0.4701710
  H       -1.4080790     2.3720960     0.4641940
  H       -3.7741480    -1.2278540     0.2772780
  H       -3.6082280     1.2145190     0.7397060
units angstrom
no_reorient  #important for SAPT in psi4, default
symmetry c1  #important for SAPT in psi4, default
}

set PROPERTIES_ORIGIN ["COM"]
properties('MP2/aug-cc-pvtz', properties = ['dipole'])
--------------------------------------------------------------------------

    Molecular point group: c1
  Charge       = 0
  Multiplicity = 1
  Basis Set: AUG-CC-PVTZ
    Blend: AUG-CC-PVTZ
  Basis Set: (AUG-CC-PVTZ AUX)
    Blend: AUG-CC-PVTZ-JKFIT

    Orbital Energies [Eh]
    ---------------------

    Doubly Occupied:

       1A    -20.515111     2A    -15.582736     3A    -11.351423
       4A    -11.275730     5A    -11.258502     6A    -11.249258
       7A    -11.247151     8A    -11.245708     9A    -11.241985
      10A    -11.239803    11A    -11.239392    12A    -11.237957
      13A     -1.369037    14A     -1.234830    15A     -1.164085
      16A     -1.082291    17A     -1.036608    18A     -1.020516
      19A     -0.938379    20A     -0.881424    21A     -0.841320
      22A     -0.798255    23A     -0.776396    24A     -0.696684
      25A     -0.685614    26A     -0.671876    27A     -0.652757
      28A     -0.623279    29A     -0.615671    30A     -0.599594
      31A     -0.587298    32A     -0.576429    33A     -0.556616
      34A     -0.535958    35A     -0.518708    36A     -0.509786
      37A     -0.492393    38A     -0.490129    39A     -0.478565
      40A     -0.423255    41A     -0.389416    42A     -0.343790
      43A     -0.336170

  @DF-RHF Final Energy:  -514.59580466300361

   => Energetics <=

    Nuclear Repulsion Energy =            685.1503581223885249
    One-Electron Energy =               -2058.2685608833407969
    Two-Electron Energy =                 858.5223980979486669
    Total Energy =                       -514.5958046630036051
  Basis Set: (AUG-CC-PVTZ AUX)
    Blend: AUG-CC-PVTZ-RI
    Molecular point group: c1

    Geometry (in Angstrom), charge = 0, multiplicity = 1:

       Center              X                  Y                   Z               Mass
    ------------   -----------------  -----------------  -----------------  -----------------
         O            0.955847293655     2.466848748304    -0.649870674108    15.994914619570
         N            2.060481293655     0.649835748304     0.184763325892    14.003074004430
         C            0.770529293655    -1.603103251696    -0.863507674108    12.000000000000
         C            1.829868293655    -1.819195251696     0.226196325892    12.000000000000
         C           -0.435650706345    -0.840636251696    -0.374691674108    12.000000000000
         C            2.040796293655    -0.537790251696     1.032689325892    12.000000000000
         C           -0.350985706345     0.536990748304    -0.084565674108    12.000000000000
         C            0.926022293655     1.311328748304    -0.216269674108    12.000000000000
         C           -1.665616206345    -1.482317951696    -0.182745174108    12.000000000000
         C           -1.489492706345     1.255550748304     0.298397325892    12.000000000000
         C           -2.807114706345    -0.762410251696     0.181293325892    12.000000000000
         C           -2.714045706345     0.606703748304     0.442474325892    12.000000000000
         H            0.452446293655    -2.569704251696    -1.270180674108     1.007825032230
         H            1.230693293655    -1.049148251696    -1.688821674108     1.007825032230
         H            1.520638293655    -2.618519251696     0.911158325892     1.007825032230
         H            2.768469293655    -2.135880251696    -0.243626674108     1.007825032230
         H            1.243131293655    -0.436359251696     1.776503325892     1.007825032230
         H            2.987085293655    -0.573987251696     1.580290325892     1.007825032230
         H            2.893416293655     1.229348748304     0.162695325892     1.007825032230
         H           -1.761447706345    -2.532304251696    -0.460353674108     1.007825032230
         H           -1.393981706345     2.324063748304     0.474011325892     1.007825032230
         H           -3.760050706345    -1.275886251696     0.287095325892     1.007825032230
         H           -3.594130706345     1.166486748304     0.749523325892     1.007825032230

  Basis Set: AUG-CC-PVTZ
    Blend: AUG-CC-PVTZ
  Basis Set: (AUG-CC-PVTZ AUX)
    Blend: AUG-CC-PVTZ-JKFIT
	 Reference Energy          =    -514.5958046630036051 [Eh]
	 Singles Energy            =      -0.0000000000000000 [Eh]
	 Same-Spin Energy          =      -0.5586891358292361 [Eh]
	 Opposite-Spin Energy      =      -1.7444899498360369 [Eh]
	 Correlation Energy        =      -2.3031790856652732 [Eh]
	 Total Energy              =    -516.8989837486689112 [Eh]

	 ================> DF-SCS-MP2 Energies <==================
	-----------------------------------------------------------
	 SCS Same-Spin Scale       =       0.3333333333333333 [-]
	 SCS Opposite-Spin Scale   =       1.2000000000000000 [-]
	 SCS Same-Spin Energy      =      -0.1862297119430787 [Eh]
	 SCS Opposite-Spin Energy  =      -2.0933879398032440 [Eh]
	 SCS Correlation Energy    =      -2.2796176517463227 [Eh]
	 SCS Total Energy          =    -516.8754223147499260 [Eh]
	-----------------------------------------------------------

  Dipole Moment: [D]
     X:     0.6263      Y:    -3.6042      Z:     1.7435     Total:     4.0525

*** Psi4 exiting successfully. Buy a developer a beer!
