                               Psi4 1.4a2.dev612

  ==> Input File <==

--------------------------------------------------------------------------
#psi4
#
memory 32 gb

molecule  {
0 1
  O        0.9417500     2.5148810    -0.6596880
  N        2.0463840     0.6978680     0.1749460
  C        0.7564320    -1.5550710    -0.8733250
  C        1.8157710    -1.7711630     0.2163790
  C       -0.4497480    -0.7926040    -0.3845090
  C        2.0266990    -0.4897580     1.0228720
  C       -0.3650830     0.5850230    -0.0943830
  C        0.9119250     1.3593610    -0.2260870
  C       -1.6447649    -1.4676567    -0.0505591
  C       -1.5035900     1.3035830     0.2885800
  C       -2.8212120    -0.7143780     0.1714760
  C       -2.7281430     0.6547360     0.4326570
  H        0.4383490    -2.5216720    -1.2799980
  H        1.2165960    -1.0011160    -1.6986390
  H        1.5065410    -2.5704870     0.9013410
  H        2.7543720    -2.0878480    -0.2534440
  H        1.2290340    -0.3883270     1.7666860
  H        2.9729880    -0.5259550     1.5704730
  H        2.8793190     1.2773810     0.1528780
  H       -1.7755450    -2.4842720    -0.4701710
  H       -1.4080790     2.3720960     0.4641940
  H       -3.7741480    -1.2278540     0.2772780
  H       -3.6082280     1.2145190     0.7397060
units angstrom
no_reorient  #important for SAPT in psi4, default
symmetry c1  #important for SAPT in psi4, default
}

set PROPERTIES_ORIGIN ["COM"]
properties('MP2/aug-cc-pvtz', properties = ['dipole'])
--------------------------------------------------------------------------

    Molecular point group: c1
  Charge       = 0
  Multiplicity = 1
  Basis Set: AUG-CC-PVTZ
    Blend: AUG-CC-PVTZ
  Basis Set: (AUG-CC-PVTZ AUX)
    Blend: AUG-CC-PVTZ-JKFIT

    Orbital Energies [Eh]
    ---------------------

    Doubly Occupied:

       1A    -20.515044     2A    -15.582812     3A    -11.351356
       4A    -11.275652     5A    -11.261827     6A    -11.253153
       7A    -11.248469     8A    -11.246192     9A    -11.245122
      10A    -11.239668    11A    -11.239573    12A    -11.238229
      13A     -1.369043    14A     -1.234866    15A     -1.162911
      16A     -1.082533    17A     -1.035756    18A     -1.019201
      19A     -0.938380    20A     -0.880313    21A     -0.841227
      22A     -0.797426    23A     -0.775823    24A     -0.695232
      25A     -0.685315    26A     -0.671634    27A     -0.652944
      28A     -0.621780    29A     -0.613532    30A     -0.596088
      31A     -0.587744    32A     -0.577079    33A     -0.555047
      34A     -0.535754    35A     -0.518587    36A     -0.508543
      37A     -0.492142    38A     -0.488624    39A     -0.478419
      40A     -0.422787    41A     -0.389396    42A     -0.343690
      43A     -0.335687

  @DF-RHF Final Energy:  -514.58393295059579

   => Energetics <=

    Nuclear Repulsion Energy =            684.8965644381707989
    One-Electron Energy =               -2057.7517965512711271
    Two-Electron Energy =                 858.2712991625045333
    Total Energy =                       -514.5839329505957949
  Basis Set: (AUG-CC-PVTZ AUX)
    Blend: AUG-CC-PVTZ-RI
    Molecular point group: c1

    Geometry (in Angstrom), charge = 0, multiplicity = 1:

       Center              X                  Y                   Z               Mass
    ------------   -----------------  -----------------  -----------------  -----------------
         O            0.953243788444     2.469334729785    -0.660449254993    15.994914619570
         N            2.057877788444     0.652321729785     0.174184745007    14.003074004430
         C            0.767925788444    -1.600617270215    -0.874086254993    12.000000000000
         C            1.827264788444    -1.816709270215     0.215617745007    12.000000000000
         C           -0.438254211556    -0.838150270215    -0.385270254993    12.000000000000
         C            2.038192788444    -0.535304270215     1.022110745007    12.000000000000
         C           -0.353589211556     0.539476729785    -0.095144254993    12.000000000000
         C            0.923418788444     1.313814729785    -0.226848254993    12.000000000000
         C           -1.633271111556    -1.513202970215    -0.051320354993    12.000000000000
         C           -1.492096211556     1.258036729785     0.287818745007    12.000000000000
         C           -2.809718211556    -0.759924270215     0.170714745007    12.000000000000
         C           -2.716649211556     0.609189729785     0.431895745007    12.000000000000
         H            0.449842788444    -2.567218270215    -1.280759254993     1.007825032230
         H            1.228089788444    -1.046662270215    -1.699400254993     1.007825032230
         H            1.518034788444    -2.616033270215     0.900579745007     1.007825032230
         H            2.765865788444    -2.133394270215    -0.254205254993     1.007825032230
         H            1.240527788444    -0.433873270215     1.765924745007     1.007825032230
         H            2.984481788444    -0.571501270215     1.569711745007     1.007825032230
         H            2.890812788444     1.231834729785     0.152116745007     1.007825032230
         H           -1.764051211556    -2.529818270215    -0.470932254993     1.007825032230
         H           -1.396585211556     2.326549729785     0.463432745007     1.007825032230
         H           -3.762654211556    -1.273400270215     0.276516745007     1.007825032230
         H           -3.596734211556     1.168972729785     0.738944745007     1.007825032230

  Basis Set: AUG-CC-PVTZ
    Blend: AUG-CC-PVTZ
  Basis Set: (AUG-CC-PVTZ AUX)
    Blend: AUG-CC-PVTZ-JKFIT
	 Reference Energy          =    -514.5839329505957949 [Eh]
	 Singles Energy            =      -0.0000000000000000 [Eh]
	 Same-Spin Energy          =      -0.5592035890874563 [Eh]
	 Opposite-Spin Energy      =      -1.7461315263358865 [Eh]
	 Correlation Energy        =      -2.3053351154233428 [Eh]
	 Total Energy              =    -516.8892680660190990 [Eh]

	 ================> DF-SCS-MP2 Energies <==================
	-----------------------------------------------------------
	 SCS Same-Spin Scale       =       0.3333333333333333 [-]
	 SCS Opposite-Spin Scale   =       1.2000000000000000 [-]
	 SCS Same-Spin Energy      =      -0.1864011963624854 [Eh]
	 SCS Opposite-Spin Energy  =      -2.0953578316030637 [Eh]
	 SCS Correlation Energy    =      -2.2817590279655491 [Eh]
	 SCS Total Energy          =    -516.8656919785613582 [Eh]
	-----------------------------------------------------------

  Dipole Moment: [D]
     X:     0.6299      Y:    -3.5112      Z:     1.6751     Total:     3.9410

*** Psi4 exiting successfully. Buy a developer a beer!
