                               Psi4 1.4a2.dev612

  ==> Input File <==

--------------------------------------------------------------------------
#psi4
#
memory 32 gb

molecule  {
0 1
  O        0.9417500     2.5148810    -0.6596880
  N        2.0463840     0.6978680     0.1749460
  C        0.7564320    -1.5550710    -0.8733250
  C        1.8157710    -1.7711630     0.2163790
  C       -0.4497480    -0.7926040    -0.3845090
  C        2.0266990    -0.4897580     1.0228720
  C       -0.3650830     0.5850230    -0.0943830
  C        0.9119250     1.3593610    -0.2260870
  C       -1.6913630    -1.4231620    -0.2398970
  C       -1.4410265     1.2428634     0.5756322
  C       -2.8212120    -0.7143780     0.1714760
  C       -2.7281430     0.6547360     0.4326570
  H        0.4383490    -2.5216720    -1.2799980
  H        1.2165960    -1.0011160    -1.6986390
  H        1.5065410    -2.5704870     0.9013410
  H        2.7543720    -2.0878480    -0.2534440
  H        1.2290340    -0.3883270     1.7666860
  H        2.9729880    -0.5259550     1.5704730
  H        2.8793190     1.2773810     0.1528780
  H       -1.7755450    -2.4842720    -0.4701710
  H       -1.4080790     2.3720960     0.4641940
  H       -3.7741480    -1.2278540     0.2772780
  H       -3.6082280     1.2145190     0.7397060
units angstrom
no_reorient  #important for SAPT in psi4, default
symmetry c1  #important for SAPT in psi4, default
}

set PROPERTIES_ORIGIN ["COM"]
properties('MP2/aug-cc-pvtz', properties = ['dipole'])
--------------------------------------------------------------------------

    Molecular point group: c1
  Charge       = 0
  Multiplicity = 1
  Basis Set: AUG-CC-PVTZ
    Blend: AUG-CC-PVTZ
  Basis Set: (AUG-CC-PVTZ AUX)
    Blend: AUG-CC-PVTZ-JKFIT

    Orbital Energies [Eh]
    ---------------------

    Doubly Occupied:

       1A    -20.517626     2A    -15.583758     3A    -11.353117
       4A    -11.275882     5A    -11.256748     6A    -11.255065
       7A    -11.251721     8A    -11.248233     9A    -11.247213
      10A    -11.246111    11A    -11.239431    12A    -11.238101
      13A     -1.370637    14A     -1.235829    15A     -1.162188
      16A     -1.081359    17A     -1.036340    18A     -1.017889
      19A     -0.937926    20A     -0.880849    21A     -0.840450
      22A     -0.796525    23A     -0.773400    24A     -0.697758
      25A     -0.685769    26A     -0.668948    27A     -0.652386
      28A     -0.621810    29A     -0.614924    30A     -0.592403
      31A     -0.588053    32A     -0.573178    33A     -0.556583
      34A     -0.535612    35A     -0.519476    36A     -0.506652
      37A     -0.491404    38A     -0.483285    39A     -0.476454
      40A     -0.424230    41A     -0.389839    42A     -0.344593
      43A     -0.334121

  @DF-RHF Final Energy:  -514.56706252913432

   => Energetics <=

    Nuclear Repulsion Energy =            684.3521887341426009
    One-Electron Energy =               -2056.6307541410692465
    Two-Electron Energy =                 857.7115028777923271
    Total Energy =                       -514.5670625291343185
  Basis Set: (AUG-CC-PVTZ AUX)
    Blend: AUG-CC-PVTZ-RI
    Molecular point group: c1

    Geometry (in Angstrom), charge = 0, multiplicity = 1:

       Center              X                  Y                   Z               Mass
    ------------   -----------------  -----------------  -----------------  -----------------
         O            0.952054441743     2.470543408007    -0.667728507645    15.994914619570
         N            2.056688441743     0.653530408007     0.166905492355    14.003074004430
         C            0.766736441743    -1.599408591993    -0.881365507645    12.000000000000
         C            1.826075441743    -1.815500591993     0.208338492355    12.000000000000
         C           -0.439443558257    -0.836941591993    -0.392549507645    12.000000000000
         C            2.037003441743    -0.534095591993     1.014831492355    12.000000000000
         C           -0.354778558257     0.540685408007    -0.102423507645    12.000000000000
         C            0.922229441743     1.315023408007    -0.234127507645    12.000000000000
         C           -1.681058558257    -1.467499591993    -0.247937507645    12.000000000000
         C           -1.430722058257     1.198525808007     0.567591692355    12.000000000000
         C           -2.810907558257    -0.758715591993     0.163435492355    12.000000000000
         C           -2.717838558257     0.610398408007     0.424616492355    12.000000000000
         H            0.448653441743    -2.566009591993    -1.288038507645     1.007825032230
         H            1.226900441743    -1.045453591993    -1.706679507645     1.007825032230
         H            1.516845441743    -2.614824591993     0.893300492355     1.007825032230
         H            2.764676441743    -2.132185591993    -0.261484507645     1.007825032230
         H            1.239338441743    -0.432664591993     1.758645492355     1.007825032230
         H            2.983292441743    -0.570292591993     1.562432492355     1.007825032230
         H            2.889623441743     1.233043408007     0.144837492355     1.007825032230
         H           -1.765240558257    -2.528609591993    -0.478211507645     1.007825032230
         H           -1.397774558257     2.327758408007     0.456153492355     1.007825032230
         H           -3.763843558257    -1.272191591993     0.269237492355     1.007825032230
         H           -3.597923558257     1.170181408007     0.731665492355     1.007825032230

  Basis Set: AUG-CC-PVTZ
    Blend: AUG-CC-PVTZ
  Basis Set: (AUG-CC-PVTZ AUX)
    Blend: AUG-CC-PVTZ-JKFIT
	 Reference Energy          =    -514.5670625291343185 [Eh]
	 Singles Energy            =      -0.0000000000000000 [Eh]
	 Same-Spin Energy          =      -0.5603556504127206 [Eh]
	 Opposite-Spin Energy      =      -1.7491442330516513 [Eh]
	 Correlation Energy        =      -2.3094998834643721 [Eh]
	 Total Energy              =    -516.8765624125986733 [Eh]

	 ================> DF-SCS-MP2 Energies <==================
	-----------------------------------------------------------
	 SCS Same-Spin Scale       =       0.3333333333333333 [-]
	 SCS Opposite-Spin Scale   =       1.2000000000000000 [-]
	 SCS Same-Spin Energy      =      -0.1867852168042402 [Eh]
	 SCS Opposite-Spin Energy  =      -2.0989730796619814 [Eh]
	 SCS Correlation Energy    =      -2.2857582964662218 [Eh]
	 SCS Total Energy          =    -516.8528208256005883 [Eh]
	-----------------------------------------------------------

  Dipole Moment: [D]
     X:     0.6510      Y:    -3.7458      Z:     1.5575     Total:     4.1086

*** Psi4 exiting successfully. Buy a developer a beer!
