                               Psi4 1.4a2.dev612

  ==> Input File <==

--------------------------------------------------------------------------
#psi4
#
memory 32 gb

molecule  {
0 1
  O        0.9417500     2.5148810    -0.6596880
  N        2.0463840     0.6978680     0.1749460
  C        0.7564320    -1.5550710    -0.8733250
  C        1.8157710    -1.7711630     0.2163790
  C       -0.4497480    -0.7926040    -0.3845090
  C        2.0266990    -0.4897580     1.0228720
  C       -0.3350453     0.4967368    -0.3263384
  C        0.9119250     1.3593610    -0.2260870
  C       -1.6913630    -1.4231620    -0.2398970
  C       -1.5035900     1.3035830     0.2885800
  C       -2.8212120    -0.7143780     0.1714760
  C       -2.7281430     0.6547360     0.4326570
  H        0.4383490    -2.5216720    -1.2799980
  H        1.2165960    -1.0011160    -1.6986390
  H        1.5065410    -2.5704870     0.9013410
  H        2.7543720    -2.0878480    -0.2534440
  H        1.2290340    -0.3883270     1.7666860
  H        2.9729880    -0.5259550     1.5704730
  H        2.8793190     1.2773810     0.1528780
  H       -1.7755450    -2.4842720    -0.4701710
  H       -1.4080790     2.3720960     0.4641940
  H       -3.7741480    -1.2278540     0.2772780
  H       -3.6082280     1.2145190     0.7397060
units angstrom
no_reorient  #important for SAPT in psi4, default
symmetry c1  #important for SAPT in psi4, default
}

set PROPERTIES_ORIGIN ["COM"]
properties('MP2/aug-cc-pvtz', properties = ['dipole'])
--------------------------------------------------------------------------

    Molecular point group: c1
  Charge       = 0
  Multiplicity = 1
  Basis Set: AUG-CC-PVTZ
    Blend: AUG-CC-PVTZ
  Basis Set: (AUG-CC-PVTZ AUX)
    Blend: AUG-CC-PVTZ-JKFIT

    Orbital Energies [Eh]
    ---------------------

    Doubly Occupied:

       1A    -20.516400     2A    -15.582926     3A    -11.354719
       4A    -11.276147     5A    -11.257758     6A    -11.250746
       7A    -11.248113     8A    -11.244339     9A    -11.242407
      10A    -11.239909    11A    -11.237190    12A    -11.235773
      13A     -1.369492    14A     -1.235495    15A     -1.168441
      16A     -1.083093    17A     -1.040335    18A     -1.009852
      19A     -0.937912    20A     -0.879185    21A     -0.843811
      22A     -0.803266    23A     -0.770098    24A     -0.694619
      25A     -0.684648    26A     -0.677303    27A     -0.653966
      28A     -0.623757    29A     -0.617183    30A     -0.593935
      31A     -0.581838    32A     -0.574027    33A     -0.556824
      34A     -0.536655    35A     -0.521556    36A     -0.512818
      37A     -0.490087    38A     -0.487743    39A     -0.463881
      40A     -0.419499    41A     -0.390750    42A     -0.355867
      43A     -0.328241

  @DF-RHF Final Energy:  -514.55862766902192

   => Energetics <=

    Nuclear Repulsion Energy =            685.0537745069932498
    One-Electron Energy =               -2058.0395972142196115
    Two-Electron Energy =                 858.4271950382044452
    Total Energy =                       -514.5586276690219165
  Basis Set: (AUG-CC-PVTZ AUX)
    Blend: AUG-CC-PVTZ-RI
    Molecular point group: c1

    Geometry (in Angstrom), charge = 0, multiplicity = 1:

       Center              X                  Y                   Z               Mass
    ------------   -----------------  -----------------  -----------------  -----------------
         O            0.954477459827     2.472596989173    -0.629064899054    15.994914619570
         N            2.059111459827     0.655583989173     0.205569100946    14.003074004430
         C            0.769159459827    -1.597355010827    -0.842701899054    12.000000000000
         C            1.828498459827    -1.813447010827     0.247002100946    12.000000000000
         C           -0.437020540173    -0.834888010827    -0.353885899054    12.000000000000
         C            2.039426459827    -0.532042010827     1.053495100946    12.000000000000
         C           -0.322317840173     0.454452789173    -0.295715299054    12.000000000000
         C            0.924652459827     1.317076989173    -0.195463899054    12.000000000000
         C           -1.678635540173    -1.465446010827    -0.209273899054    12.000000000000
         C           -1.490862540173     1.261298989173     0.319203100946    12.000000000000
         C           -2.808484540173    -0.756662010827     0.202099100946    12.000000000000
         C           -2.715415540173     0.612451989173     0.463280100946    12.000000000000
         H            0.451076459827    -2.563956010827    -1.249374899054     1.007825032230
         H            1.229323459827    -1.043400010827    -1.668015899054     1.007825032230
         H            1.519268459827    -2.612771010827     0.931964100946     1.007825032230
         H            2.767099459827    -2.130132010827    -0.222820899054     1.007825032230
         H            1.241761459827    -0.430611010827     1.797309100946     1.007825032230
         H            2.985715459827    -0.568239010827     1.601096100946     1.007825032230
         H            2.892046459827     1.235096989173     0.183501100946     1.007825032230
         H           -1.762817540173    -2.526556010827    -0.439547899054     1.007825032230
         H           -1.395351540173     2.329811989173     0.494817100946     1.007825032230
         H           -3.761420540173    -1.270138010827     0.307901100946     1.007825032230
         H           -3.595500540173     1.172234989173     0.770329100946     1.007825032230

  Basis Set: AUG-CC-PVTZ
    Blend: AUG-CC-PVTZ
  Basis Set: (AUG-CC-PVTZ AUX)
    Blend: AUG-CC-PVTZ-JKFIT
	 Reference Energy          =    -514.5586276690219165 [Eh]
	 Singles Energy            =      -0.0000000000000000 [Eh]
	 Same-Spin Energy          =      -0.5585410606587652 [Eh]
	 Opposite-Spin Energy      =      -1.7468823833243583 [Eh]
	 Correlation Energy        =      -2.3054234439831234 [Eh]
	 Total Energy              =    -516.8640511130050754 [Eh]

	 ================> DF-SCS-MP2 Energies <==================
	-----------------------------------------------------------
	 SCS Same-Spin Scale       =       0.3333333333333333 [-]
	 SCS Opposite-Spin Scale   =       1.2000000000000000 [-]
	 SCS Same-Spin Energy      =      -0.1861803535529217 [Eh]
	 SCS Opposite-Spin Energy  =      -2.0962588599892298 [Eh]
	 SCS Correlation Energy    =      -2.2824392135421516 [Eh]
	 SCS Total Energy          =    -516.8410668825640641 [Eh]
	-----------------------------------------------------------

  Dipole Moment: [D]
     X:     0.5675      Y:    -3.6210      Z:     1.7757     Total:     4.0727

*** Psi4 exiting successfully. Buy a developer a beer!
