                               Psi4 1.4a2.dev612

  ==> Input File <==

--------------------------------------------------------------------------
#psi4
#
memory 32 gb

molecule  {
0 1
  O        0.9417500     2.5148810    -0.6596880
  N        2.0463840     0.6978680     0.1749460
  C        0.7564320    -1.5550710    -0.8733250
  C        1.8157710    -1.7711630     0.2163790
  C       -0.4497480    -0.7926040    -0.3845090
  C        2.0266990    -0.4897580     1.0228720
  C       -0.3290377     0.4790796    -0.3727294
  C        0.9119250     1.3593610    -0.2260870
  C       -1.6913630    -1.4231620    -0.2398970
  C       -1.5035900     1.3035830     0.2885800
  C       -2.8212120    -0.7143780     0.1714760
  C       -2.7281430     0.6547360     0.4326570
  H        0.4383490    -2.5216720    -1.2799980
  H        1.2165960    -1.0011160    -1.6986390
  H        1.5065410    -2.5704870     0.9013410
  H        2.7543720    -2.0878480    -0.2534440
  H        1.2290340    -0.3883270     1.7666860
  H        2.9729880    -0.5259550     1.5704730
  H        2.8793190     1.2773810     0.1528780
  H       -1.7755450    -2.4842720    -0.4701710
  H       -1.4080790     2.3720960     0.4641940
  H       -3.7741480    -1.2278540     0.2772780
  H       -3.6082280     1.2145190     0.7397060
units angstrom
no_reorient  #important for SAPT in psi4, default
symmetry c1  #important for SAPT in psi4, default
}

set PROPERTIES_ORIGIN ["COM"]
properties('MP2/aug-cc-pvtz', properties = ['dipole'])
--------------------------------------------------------------------------

    Molecular point group: c1
  Charge       = 0
  Multiplicity = 1
  Basis Set: AUG-CC-PVTZ
    Blend: AUG-CC-PVTZ
  Basis Set: (AUG-CC-PVTZ AUX)
    Blend: AUG-CC-PVTZ-JKFIT

    Orbital Energies [Eh]
    ---------------------

    Doubly Occupied:

       1A    -20.516812     2A    -15.583023     3A    -11.355929
       4A    -11.276289     5A    -11.259455     6A    -11.251373
       7A    -11.248362     8A    -11.242966     9A    -11.241680
      10A    -11.239745    11A    -11.237070    12A    -11.235274
      13A     -1.369566    14A     -1.235649    15A     -1.169662
      16A     -1.083652    17A     -1.041276    18A     -1.007182
      19A     -0.937802    20A     -0.878084    21A     -0.844426
      22A     -0.803624    23A     -0.768434    24A     -0.693940
      25A     -0.684420    26A     -0.678211    27A     -0.654015
      28A     -0.623679    29A     -0.617658    30A     -0.594742
      31A     -0.578759    32A     -0.573285    33A     -0.556801
      34A     -0.537109    35A     -0.522495    36A     -0.512373
      37A     -0.489364    38A     -0.487420    39A     -0.459513
      40A     -0.417266    41A     -0.391084    42A     -0.359420
      43A     -0.325903

  @DF-RHF Final Energy:  -514.54249224161242

   => Energetics <=

    Nuclear Repulsion Energy =            684.9225101754066145
    One-Electron Energy =               -2057.7604240347686755
    Two-Electron Energy =                 858.2954216177496392
    Total Energy =                       -514.5424922416124218
  Basis Set: (AUG-CC-PVTZ AUX)
    Blend: AUG-CC-PVTZ-RI
    Molecular point group: c1

    Geometry (in Angstrom), charge = 0, multiplicity = 1:

       Center              X                  Y                   Z               Mass
    ------------   -----------------  -----------------  -----------------  -----------------
         O            0.954029922074     2.473912366963    -0.625608989225    15.994914619570
         N            2.058663922074     0.656899366963     0.209025010775    14.003074004430
         C            0.768711922074    -1.596039633037    -0.839245989225    12.000000000000
         C            1.828050922074    -1.812131633037     0.250458010775    12.000000000000
         C           -0.437468077926    -0.833572633037    -0.350429989225    12.000000000000
         C            2.038978922074    -0.530726633037     1.056951010775    12.000000000000
         C           -0.316757777926     0.438110966963    -0.338650389225    12.000000000000
         C            0.924204922074     1.318392366963    -0.192007989225    12.000000000000
         C           -1.679083077926    -1.464130633037    -0.205817989225    12.000000000000
         C           -1.491310077926     1.262614366963     0.322659010775    12.000000000000
         C           -2.808932077926    -0.755346633037     0.205555010775    12.000000000000
         C           -2.715863077926     0.613767366963     0.466736010775    12.000000000000
         H            0.450628922074    -2.562640633037    -1.245918989225     1.007825032230
         H            1.228875922074    -1.042084633037    -1.664559989225     1.007825032230
         H            1.518820922074    -2.611455633037     0.935420010775     1.007825032230
         H            2.766651922074    -2.128816633037    -0.219364989225     1.007825032230
         H            1.241313922074    -0.429295633037     1.800765010775     1.007825032230
         H            2.985267922074    -0.566923633037     1.604552010775     1.007825032230
         H            2.891598922074     1.236412366963     0.186957010775     1.007825032230
         H           -1.763265077926    -2.525240633037    -0.436091989225     1.007825032230
         H           -1.395799077926     2.331127366963     0.498273010775     1.007825032230
         H           -3.761868077926    -1.268822633037     0.311357010775     1.007825032230
         H           -3.595948077926     1.173550366963     0.773785010775     1.007825032230

  Basis Set: AUG-CC-PVTZ
    Blend: AUG-CC-PVTZ
  Basis Set: (AUG-CC-PVTZ AUX)
    Blend: AUG-CC-PVTZ-JKFIT
	 Reference Energy          =    -514.5424922416124218 [Eh]
	 Singles Energy            =      -0.0000000000000000 [Eh]
	 Same-Spin Energy          =      -0.5586423990203427 [Eh]
	 Opposite-Spin Energy      =      -1.7480461753213246 [Eh]
	 Correlation Energy        =      -2.3066885743416674 [Eh]
	 Total Energy              =    -516.8491808159541279 [Eh]

	 ================> DF-SCS-MP2 Energies <==================
	-----------------------------------------------------------
	 SCS Same-Spin Scale       =       0.3333333333333333 [-]
	 SCS Opposite-Spin Scale   =       1.2000000000000000 [-]
	 SCS Same-Spin Energy      =      -0.1862141330067809 [Eh]
	 SCS Opposite-Spin Energy  =      -2.0976554103855896 [Eh]
	 SCS Correlation Energy    =      -2.2838695433923704 [Eh]
	 SCS Total Energy          =    -516.8263617850047922 [Eh]
	-----------------------------------------------------------

  Dipole Moment: [D]
     X:     0.5578      Y:    -3.6266      Z:     1.7760     Total:     4.0764

*** Psi4 exiting successfully. Buy a developer a beer!
