                               Psi4 1.4a2.dev612

  ==> Input File <==

--------------------------------------------------------------------------
#psi4
#
memory 32 gb

molecule  {
0 1
  O        0.9417500     2.5148810    -0.6596880
  N        2.0463840     0.6978680     0.1749460
  C        0.7564320    -1.5550710    -0.8733250
  C        1.8157710    -1.7711630     0.2163790
  C       -0.4497480    -0.7926040    -0.3845090
  C        2.0266990    -0.4897580     1.0228720
  C       -0.3470604     0.5320513    -0.2335562
  C        0.9119250     1.3593610    -0.2260870
  C       -1.6913630    -1.4231620    -0.2398970
  C       -1.5035900     1.3035830     0.2885800
  C       -2.8212120    -0.7143780     0.1714760
  C       -2.7281430     0.6547360     0.4326570
  H        0.4383490    -2.5216720    -1.2799980
  H        1.2165960    -1.0011160    -1.6986390
  H        1.5065410    -2.5704870     0.9013410
  H        2.7543720    -2.0878480    -0.2534440
  H        1.2290340    -0.3883270     1.7666860
  H        2.9729880    -0.5259550     1.5704730
  H        2.8793190     1.2773810     0.1528780
  H       -1.7755450    -2.4842720    -0.4701710
  H       -1.4080790     2.3720960     0.4641940
  H       -3.7741480    -1.2278540     0.2772780
  H       -3.6082280     1.2145190     0.7397060
units angstrom
no_reorient  #important for SAPT in psi4, default
symmetry c1  #important for SAPT in psi4, default
}

set PROPERTIES_ORIGIN ["COM"]
properties('MP2/aug-cc-pvtz', properties = ['dipole'])
--------------------------------------------------------------------------

    Molecular point group: c1
  Charge       = 0
  Multiplicity = 1
  Basis Set: AUG-CC-PVTZ
    Blend: AUG-CC-PVTZ
  Basis Set: (AUG-CC-PVTZ AUX)
    Blend: AUG-CC-PVTZ-JKFIT

    Orbital Energies [Eh]
    ---------------------

    Doubly Occupied:

       1A    -20.515727     2A    -15.582810     3A    -11.352853
       4A    -11.275948     5A    -11.253552     6A    -11.249929
       7A    -11.249710     8A    -11.247122     9A    -11.242358
      10A    -11.240049    11A    -11.237609    12A    -11.236935
      13A     -1.369333    14A     -1.235227    15A     -1.166336
      16A     -1.082357    17A     -1.038370    18A     -1.015062
      19A     -0.938127    20A     -0.880792    21A     -0.842609
      22A     -0.801676    23A     -0.773340    24A     -0.695730
      25A     -0.685103    26A     -0.675238    27A     -0.653688
      28A     -0.623811    29A     -0.616417    30A     -0.592451
      31A     -0.588429    32A     -0.574999    33A     -0.556906
      34A     -0.536102    35A     -0.519638    36A     -0.512834
      37A     -0.491616    38A     -0.488530    39A     -0.471436
      40A     -0.422210    41A     -0.390165    42A     -0.348475
      43A     -0.333397

  @DF-RHF Final Energy:  -514.58284489726191

   => Energetics <=

    Nuclear Repulsion Energy =            685.1970264958358712
    One-Electron Energy =               -2058.3497315099707521
    Two-Electron Energy =                 858.5698601168729738
    Total Energy =                       -514.5828448972619071
  Basis Set: (AUG-CC-PVTZ AUX)
    Blend: AUG-CC-PVTZ-RI
    Molecular point group: c1

    Geometry (in Angstrom), charge = 0, multiplicity = 1:

       Center              X                  Y                   Z               Mass
    ------------   -----------------  -----------------  -----------------  -----------------
         O            0.955372527883     2.469966226145    -0.635976733611    15.994914619570
         N            2.060006527883     0.652953226145     0.198657266389    14.003074004430
         C            0.770054527883    -1.599985773855    -0.849613733611    12.000000000000
         C            1.829393527883    -1.816077773855     0.240090266389    12.000000000000
         C           -0.436125472117    -0.837518773855    -0.360797733611    12.000000000000
         C            2.040321527883    -0.534672773855     1.046583266389    12.000000000000
         C           -0.333437872117     0.487136526145    -0.209844933611    12.000000000000
         C            0.925547527883     1.314446226145    -0.202375733611    12.000000000000
         C           -1.677740472117    -1.468076773855    -0.216185733611    12.000000000000
         C           -1.489967472117     1.258668226145     0.312291266389    12.000000000000
         C           -2.807589472117    -0.759292773855     0.195187266389    12.000000000000
         C           -2.714520472117     0.609821226145     0.456368266389    12.000000000000
         H            0.451971527883    -2.566586773855    -1.256286733611     1.007825032230
         H            1.230218527883    -1.046030773855    -1.674927733611     1.007825032230
         H            1.520163527883    -2.615401773855     0.925052266389     1.007825032230
         H            2.767994527883    -2.132762773855    -0.229732733611     1.007825032230
         H            1.242656527883    -0.433241773855     1.790397266389     1.007825032230
         H            2.986610527883    -0.570869773855     1.594184266389     1.007825032230
         H            2.892941527883     1.232466226145     0.176589266389     1.007825032230
         H           -1.761922472117    -2.529186773855    -0.446459733611     1.007825032230
         H           -1.394456472117     2.327181226145     0.487905266389     1.007825032230
         H           -3.760525472117    -1.272768773855     0.300989266389     1.007825032230
         H           -3.594605472117     1.169604226145     0.763417266389     1.007825032230

  Basis Set: AUG-CC-PVTZ
    Blend: AUG-CC-PVTZ
  Basis Set: (AUG-CC-PVTZ AUX)
    Blend: AUG-CC-PVTZ-JKFIT
	 Reference Energy          =    -514.5828448972619071 [Eh]
	 Singles Energy            =      -0.0000000000000000 [Eh]
	 Same-Spin Energy          =      -0.5585284851109747 [Eh]
	 Opposite-Spin Energy      =      -1.7452397178599863 [Eh]
	 Correlation Energy        =      -2.3037682029709612 [Eh]
	 Total Energy              =    -516.8866131002329212 [Eh]

	 ================> DF-SCS-MP2 Energies <==================
	-----------------------------------------------------------
	 SCS Same-Spin Scale       =       0.3333333333333333 [-]
	 SCS Opposite-Spin Scale   =       1.2000000000000000 [-]
	 SCS Same-Spin Energy      =      -0.1861761617036582 [Eh]
	 SCS Opposite-Spin Energy  =      -2.0942876614319834 [Eh]
	 SCS Correlation Energy    =      -2.2804638231356416 [Eh]
	 SCS Total Energy          =    -516.8633087203975265 [Eh]
	-----------------------------------------------------------

  Dipole Moment: [D]
     X:     0.5922      Y:    -3.6156      Z:     1.7738     Total:     4.0706

*** Psi4 exiting successfully. Buy a developer a beer!
