                               Psi4 1.4a2.dev612

  ==> Input File <==

--------------------------------------------------------------------------
#psi4
#
memory 32 gb

molecule  {
0 1
  O        0.9417500     2.5148810    -0.6596880
  N        2.0463840     0.6978680     0.1749460
  C        0.7564320    -1.5550710    -0.8733250
  C        1.8157710    -1.7711630     0.2163790
  C       -0.4497480    -0.7926040    -0.3845090
  C        2.0266990    -0.4897580     1.0228720
  C       -0.3590755     0.5673658    -0.1407741
  C        0.9119250     1.3593610    -0.2260870
  C       -1.6913630    -1.4231620    -0.2398970
  C       -1.5035900     1.3035830     0.2885800
  C       -2.8212120    -0.7143780     0.1714760
  C       -2.7281430     0.6547360     0.4326570
  H        0.4383490    -2.5216720    -1.2799980
  H        1.2165960    -1.0011160    -1.6986390
  H        1.5065410    -2.5704870     0.9013410
  H        2.7543720    -2.0878480    -0.2534440
  H        1.2290340    -0.3883270     1.7666860
  H        2.9729880    -0.5259550     1.5704730
  H        2.8793190     1.2773810     0.1528780
  H       -1.7755450    -2.4842720    -0.4701710
  H       -1.4080790     2.3720960     0.4641940
  H       -3.7741480    -1.2278540     0.2772780
  H       -3.6082280     1.2145190     0.7397060
units angstrom
no_reorient  #important for SAPT in psi4, default
symmetry c1  #important for SAPT in psi4, default
}

set PROPERTIES_ORIGIN ["COM"]
properties('MP2/aug-cc-pvtz', properties = ['dipole'])
--------------------------------------------------------------------------

    Molecular point group: c1
  Charge       = 0
  Multiplicity = 1
  Basis Set: AUG-CC-PVTZ
    Blend: AUG-CC-PVTZ
  Basis Set: (AUG-CC-PVTZ AUX)
    Blend: AUG-CC-PVTZ-JKFIT

    Orbital Energies [Eh]
    ---------------------

    Doubly Occupied:

       1A    -20.515282     2A    -15.582755     3A    -11.351739
       4A    -11.275833     5A    -11.255415     6A    -11.249023
       7A    -11.248652     8A    -11.246887     9A    -11.242006
      10A    -11.239954    11A    -11.238668    12A    -11.237709
      13A     -1.369157    14A     -1.234978    15A     -1.164767
      16A     -1.082167    17A     -1.036886    18A     -1.019338
      19A     -0.938301    20A     -0.881538    21A     -0.841652
      22A     -0.799359    23A     -0.775808    24A     -0.696543
      25A     -0.685509    26A     -0.673084    27A     -0.653037
      28A     -0.623616    29A     -0.616050    30A     -0.596830
      31A     -0.588566    32A     -0.575883    33A     -0.556991
      34A     -0.535893    35A     -0.518703    36A     -0.511078
      37A     -0.492763    38A     -0.489503    39A     -0.476665
      40A     -0.423300    41A     -0.389674    42A     -0.342453
      43A     -0.337904

  @DF-RHF Final Energy:  -514.59518886512444

   => Energetics <=

    Nuclear Repulsion Energy =            685.1850409146641141
    One-Electron Energy =               -2058.3366286954214956
    Two-Electron Energy =                 858.5563989156329399
    Total Energy =                       -514.5951888651244417
  Basis Set: (AUG-CC-PVTZ AUX)
    Blend: AUG-CC-PVTZ-RI
    Molecular point group: c1

    Geometry (in Angstrom), charge = 0, multiplicity = 1:

       Center              X                  Y                   Z               Mass
    ------------   -----------------  -----------------  -----------------  -----------------
         O            0.956267595939     2.467335463116    -0.642888560718    15.994914619570
         N            2.060901595939     0.650322463116     0.191745439282    14.003074004430
         C            0.770949595939    -1.602616536884    -0.856525560718    12.000000000000
         C            1.830288595939    -1.818708536884     0.233178439282    12.000000000000
         C           -0.435230404061    -0.840149536884    -0.367709560718    12.000000000000
         C            2.041216595939    -0.537303536884     1.039671439282    12.000000000000
         C           -0.344557904061     0.519820263116    -0.123974660718    12.000000000000
         C            0.926442595939     1.311815463116    -0.209287560718    12.000000000000
         C           -1.676845404061    -1.470707536884    -0.223097560718    12.000000000000
         C           -1.489072404061     1.256037463116     0.305379439282    12.000000000000
         C           -2.806694404061    -0.761923536884     0.188275439282    12.000000000000
         C           -2.713625404061     0.607190463116     0.449456439282    12.000000000000
         H            0.452866595939    -2.569217536884    -1.263198560718     1.007825032230
         H            1.231113595939    -1.048661536884    -1.681839560718     1.007825032230
         H            1.521058595939    -2.618032536884     0.918140439282     1.007825032230
         H            2.768889595939    -2.135393536884    -0.236644560718     1.007825032230
         H            1.243551595939    -0.435872536884     1.783485439282     1.007825032230
         H            2.987505595939    -0.573500536884     1.587272439282     1.007825032230
         H            2.893836595939     1.229835463116     0.169677439282     1.007825032230
         H           -1.761027404061    -2.531817536884    -0.453371560718     1.007825032230
         H           -1.393561404061     2.324550463116     0.480993439282     1.007825032230
         H           -3.759630404061    -1.275399536884     0.294077439282     1.007825032230
         H           -3.593710404061     1.166973463116     0.756505439282     1.007825032230

  Basis Set: AUG-CC-PVTZ
    Blend: AUG-CC-PVTZ
  Basis Set: (AUG-CC-PVTZ AUX)
    Blend: AUG-CC-PVTZ-JKFIT
	 Reference Energy          =    -514.5951888651244417 [Eh]
	 Singles Energy            =      -0.0000000000000000 [Eh]
	 Same-Spin Energy          =      -0.5586131540963505 [Eh]
	 Opposite-Spin Energy      =      -1.7444565897276609 [Eh]
	 Correlation Energy        =      -2.3030697438240115 [Eh]
	 Total Energy              =    -516.8982586089484812 [Eh]

	 ================> DF-SCS-MP2 Energies <==================
	-----------------------------------------------------------
	 SCS Same-Spin Scale       =       0.3333333333333333 [-]
	 SCS Opposite-Spin Scale   =       1.2000000000000000 [-]
	 SCS Same-Spin Energy      =      -0.1862043846987835 [Eh]
	 SCS Opposite-Spin Energy  =      -2.0933479076731931 [Eh]
	 SCS Correlation Energy    =      -2.2795522923719767 [Eh]
	 SCS Total Energy          =    -516.8747411574963735 [Eh]
	-----------------------------------------------------------

  Dipole Moment: [D]
     X:     0.6182      Y:    -3.6152      Z:     1.7707     Total:     4.0728

*** Psi4 exiting successfully. Buy a developer a beer!
