                               Psi4 1.4a2.dev612

  ==> Input File <==

--------------------------------------------------------------------------
#psi4
#
memory 32 gb

molecule  {
0 1
  O        0.9417500     2.5148810    -0.6596880
  N        2.0463840     0.6978680     0.1749460
  C        0.7564320    -1.5550710    -0.8733250
  C        1.8157710    -1.7711630     0.2163790
  C       -0.4497480    -0.7926040    -0.3845090
  C        2.0266990    -0.4897580     1.0228720
  C       -0.3650830     0.5850230    -0.0943830
  C        0.9119250     1.3593610    -0.2260870
  C       -1.6913630    -1.4231620    -0.2398970
  C       -1.4723082     1.2732232     0.4321061
  C       -2.8212120    -0.7143780     0.1714760
  C       -2.7281430     0.6547360     0.4326570
  H        0.4383490    -2.5216720    -1.2799980
  H        1.2165960    -1.0011160    -1.6986390
  H        1.5065410    -2.5704870     0.9013410
  H        2.7543720    -2.0878480    -0.2534440
  H        1.2290340    -0.3883270     1.7666860
  H        2.9729880    -0.5259550     1.5704730
  H        2.8793190     1.2773810     0.1528780
  H       -1.7755450    -2.4842720    -0.4701710
  H       -1.4080790     2.3720960     0.4641940
  H       -3.7741480    -1.2278540     0.2772780
  H       -3.6082280     1.2145190     0.7397060
units angstrom
no_reorient  #important for SAPT in psi4, default
symmetry c1  #important for SAPT in psi4, default
}

set PROPERTIES_ORIGIN ["COM"]
properties('MP2/aug-cc-pvtz', properties = ['dipole'])
--------------------------------------------------------------------------

    Molecular point group: c1
  Charge       = 0
  Multiplicity = 1
  Basis Set: AUG-CC-PVTZ
    Blend: AUG-CC-PVTZ
  Basis Set: (AUG-CC-PVTZ AUX)
    Blend: AUG-CC-PVTZ-JKFIT

    Orbital Energies [Eh]
    ---------------------

    Doubly Occupied:

       1A    -20.516267     2A    -15.583169     3A    -11.352192
       4A    -11.275807     5A    -11.257592     6A    -11.249456
       7A    -11.248105     8A    -11.246905     9A    -11.243144
      10A    -11.241967    11A    -11.239342    12A    -11.237994
      13A     -1.369769    14A     -1.235264    15A     -1.163722
      16A     -1.082063    17A     -1.036774    18A     -1.020016
      19A     -0.938267    20A     -0.881474    21A     -0.841080
      22A     -0.797732    23A     -0.775464    24A     -0.697243
      25A     -0.685852    26A     -0.670964    27A     -0.652973
      28A     -0.622729    29A     -0.616075    30A     -0.597797
      31A     -0.587543    32A     -0.575623    33A     -0.556964
      34A     -0.535733    35A     -0.519154    36A     -0.509162
      37A     -0.491362    38A     -0.488824    39A     -0.478168
      40A     -0.423674    41A     -0.389645    42A     -0.344263
      43A     -0.335710

  @DF-RHF Final Energy:  -514.58934402927412

   => Energetics <=

    Nuclear Repulsion Energy =            684.9920236863072205
    One-Electron Energy =               -2057.9366915882064859
    Two-Electron Energy =                 858.3553238726251493
    Total Energy =                       -514.5893440292741161
  Basis Set: (AUG-CC-PVTZ AUX)
    Blend: AUG-CC-PVTZ-RI
    Molecular point group: c1

    Geometry (in Angstrom), charge = 0, multiplicity = 1:

       Center              X                  Y                   Z               Mass
    ------------   -----------------  -----------------  -----------------  -----------------
         O            0.954384780268     2.468281746667    -0.657036492821    15.994914619570
         N            2.059018780268     0.651268746667     0.177597507179    14.003074004430
         C            0.769066780268    -1.601670253333    -0.870673492821    12.000000000000
         C            1.828405780268    -1.817762253333     0.219030507179    12.000000000000
         C           -0.437113219732    -0.839203253333    -0.381857492821    12.000000000000
         C            2.039333780268    -0.536357253333     1.025523507179    12.000000000000
         C           -0.352448219732     0.538423746667    -0.091731492821    12.000000000000
         C            0.924559780268     1.312761746667    -0.223435492821    12.000000000000
         C           -1.678728219732    -1.469761253333    -0.237245492821    12.000000000000
         C           -1.459673419732     1.226623946667     0.434757607179    12.000000000000
         C           -2.808577219732    -0.760977253333     0.174127507179    12.000000000000
         C           -2.715508219732     0.608136746667     0.435308507179    12.000000000000
         H            0.450983780268    -2.568271253333    -1.277346492821     1.007825032230
         H            1.229230780268    -1.047715253333    -1.695987492821     1.007825032230
         H            1.519175780268    -2.617086253333     0.903992507179     1.007825032230
         H            2.767006780268    -2.134447253333    -0.250792492821     1.007825032230
         H            1.241668780268    -0.434926253333     1.769337507179     1.007825032230
         H            2.985622780268    -0.572554253333     1.573124507179     1.007825032230
         H            2.891953780268     1.230781746667     0.155529507179     1.007825032230
         H           -1.762910219732    -2.530871253333    -0.467519492821     1.007825032230
         H           -1.395444219732     2.325496746667     0.466845507179     1.007825032230
         H           -3.761513219732    -1.274453253333     0.279929507179     1.007825032230
         H           -3.595593219732     1.167919746667     0.742357507179     1.007825032230

  Basis Set: AUG-CC-PVTZ
    Blend: AUG-CC-PVTZ
  Basis Set: (AUG-CC-PVTZ AUX)
    Blend: AUG-CC-PVTZ-JKFIT
	 Reference Energy          =    -514.5893440292741161 [Eh]
	 Singles Energy            =      -0.0000000000000000 [Eh]
	 Same-Spin Energy          =      -0.5591243686922480 [Eh]
	 Opposite-Spin Energy      =      -1.7456104575660918 [Eh]
	 Correlation Energy        =      -2.3047348262583398 [Eh]
	 Total Energy              =    -516.8940788555324843 [Eh]

	 ================> DF-SCS-MP2 Energies <==================
	-----------------------------------------------------------
	 SCS Same-Spin Scale       =       0.3333333333333333 [-]
	 SCS Opposite-Spin Scale   =       1.2000000000000000 [-]
	 SCS Same-Spin Energy      =      -0.1863747895640827 [Eh]
	 SCS Opposite-Spin Energy  =      -2.0947325490793101 [Eh]
	 SCS Correlation Energy    =      -2.2811073386433929 [Eh]
	 SCS Total Energy          =    -516.8704513679175534 [Eh]
	-----------------------------------------------------------

  Dipole Moment: [D]
     X:     0.6395      Y:    -3.6435      Z:     1.6788     Total:     4.0623

*** Psi4 exiting successfully. Buy a developer a beer!
