                               Psi4 1.4a2.dev612

  ==> Input File <==

--------------------------------------------------------------------------
#psi4
#
memory 32 gb

molecule  {
0 1
  O        0.9417500     2.5148810    -0.6596880
  N        2.0463840     0.6978680     0.1749460
  C        0.7564320    -1.5550710    -0.8733250
  C        1.8157710    -1.7711630     0.2163790
  C       -0.4497480    -0.7926040    -0.3845090
  C        2.0266990    -0.4897580     1.0228720
  C       -0.3650830     0.5850230    -0.0943830
  C        0.9119250     1.3593610    -0.2260870
  C       -1.6913630    -1.4231620    -0.2398970
  C       -1.4514537     1.2529833     0.5277901
  C       -2.8212120    -0.7143780     0.1714760
  C       -2.7281430     0.6547360     0.4326570
  H        0.4383490    -2.5216720    -1.2799980
  H        1.2165960    -1.0011160    -1.6986390
  H        1.5065410    -2.5704870     0.9013410
  H        2.7543720    -2.0878480    -0.2534440
  H        1.2290340    -0.3883270     1.7666860
  H        2.9729880    -0.5259550     1.5704730
  H        2.8793190     1.2773810     0.1528780
  H       -1.7755450    -2.4842720    -0.4701710
  H       -1.4080790     2.3720960     0.4641940
  H       -3.7741480    -1.2278540     0.2772780
  H       -3.6082280     1.2145190     0.7397060
units angstrom
no_reorient  #important for SAPT in psi4, default
symmetry c1  #important for SAPT in psi4, default
}

set PROPERTIES_ORIGIN ["COM"]
properties('MP2/aug-cc-pvtz', properties = ['dipole'])
--------------------------------------------------------------------------

    Molecular point group: c1
  Charge       = 0
  Multiplicity = 1
  Basis Set: AUG-CC-PVTZ
    Blend: AUG-CC-PVTZ
  Basis Set: (AUG-CC-PVTZ AUX)
    Blend: AUG-CC-PVTZ-JKFIT

    Orbital Energies [Eh]
    ---------------------

    Doubly Occupied:

       1A    -20.517146     2A    -15.583546     3A    -11.352785
       4A    -11.275852     5A    -11.256967     6A    -11.252920
       7A    -11.249789     8A    -11.247583     9A    -11.245495
      10A    -11.245084    11A    -11.239381    12A    -11.238056
      13A     -1.370329    14A     -1.235626    15A     -1.162788
      16A     -1.081638    17A     -1.036515    18A     -1.018779
      19A     -0.938053    20A     -0.881112    21A     -0.840700
      22A     -0.796965    23A     -0.774176    24A     -0.697546
      25A     -0.685810    26A     -0.669629    27A     -0.652684
      28A     -0.622063    29A     -0.615441    30A     -0.594519
      31A     -0.587869    32A     -0.574193    33A     -0.556748
      34A     -0.535646    35A     -0.519397    36A     -0.507693
      37A     -0.491438    38A     -0.485303    39A     -0.477357
      40A     -0.424018    41A     -0.389774    42A     -0.344437
      43A     -0.334776

  @DF-RHF Final Energy:  -514.57618483205954

   => Energetics <=

    Nuclear Repulsion Energy =            684.6191532326735114
    One-Electron Energy =               -2057.1754250137746567
    Two-Electron Energy =                 857.9800869490417199
    Total Energy =                       -514.5761848320595391
  Basis Set: (AUG-CC-PVTZ AUX)
    Blend: AUG-CC-PVTZ-RI
    Molecular point group: c1

    Geometry (in Angstrom), charge = 0, multiplicity = 1:

       Center              X                  Y                   Z               Mass
    ------------   -----------------  -----------------  -----------------  -----------------
         O            0.952831218768     2.469789523376    -0.664164497738    15.994914619570
         N            2.057465218768     0.652776523376     0.170469502262    14.003074004430
         C            0.767513218768    -1.600162476624    -0.877801497738    12.000000000000
         C            1.826852218768    -1.816254476624     0.211902502262    12.000000000000
         C           -0.438666781232    -0.837695476624    -0.388985497738    12.000000000000
         C            2.037780218768    -0.534849476624     1.018395502262    12.000000000000
         C           -0.354001781232     0.539931523376    -0.098859497738    12.000000000000
         C            0.923006218768     1.314269523376    -0.230563497738    12.000000000000
         C           -1.680281781232    -1.468253476624    -0.244373497738    12.000000000000
         C           -1.440372481232     1.207891823376     0.523313602262    12.000000000000
         C           -2.810130781232    -0.759469476624     0.166999502262    12.000000000000
         C           -2.717061781232     0.609644523376     0.428180502262    12.000000000000
         H            0.449430218768    -2.566763476624    -1.284474497738     1.007825032230
         H            1.227677218768    -1.046207476624    -1.703115497738     1.007825032230
         H            1.517622218768    -2.615578476624     0.896864502262     1.007825032230
         H            2.765453218768    -2.132939476624    -0.257920497738     1.007825032230
         H            1.240115218768    -0.433418476624     1.762209502262     1.007825032230
         H            2.984069218768    -0.571046476624     1.565996502262     1.007825032230
         H            2.890400218768     1.232289523376     0.148401502262     1.007825032230
         H           -1.764463781232    -2.529363476624    -0.474647497738     1.007825032230
         H           -1.396997781232     2.327004523376     0.459717502262     1.007825032230
         H           -3.763066781232    -1.272945476624     0.272801502262     1.007825032230
         H           -3.597146781232     1.169427523376     0.735229502262     1.007825032230

  Basis Set: AUG-CC-PVTZ
    Blend: AUG-CC-PVTZ
  Basis Set: (AUG-CC-PVTZ AUX)
    Blend: AUG-CC-PVTZ-JKFIT
	 Reference Energy          =    -514.5761848320595391 [Eh]
	 Singles Energy            =      -0.0000000000000000 [Eh]
	 Same-Spin Energy          =      -0.5598711252841163 [Eh]
	 Opposite-Spin Energy      =      -1.7477241026914312 [Eh]
	 Correlation Energy        =      -2.3075952279755474 [Eh]
	 Total Energy              =    -516.8837800600350647 [Eh]

	 ================> DF-SCS-MP2 Energies <==================
	-----------------------------------------------------------
	 SCS Same-Spin Scale       =       0.3333333333333333 [-]
	 SCS Opposite-Spin Scale   =       1.2000000000000000 [-]
	 SCS Same-Spin Energy      =      -0.1866237084280388 [Eh]
	 SCS Opposite-Spin Energy  =      -2.0972689232297173 [Eh]
	 SCS Correlation Energy    =      -2.2838926316577561 [Eh]
	 SCS Total Energy          =    -516.8600774637172890 [Eh]
	-----------------------------------------------------------

  Dipole Moment: [D]
     X:     0.6471      Y:    -3.7038      Z:     1.6013     Total:     4.0867

*** Psi4 exiting successfully. Buy a developer a beer!
