                               Psi4 1.4a2.dev612

  ==> Input File <==

--------------------------------------------------------------------------
#psi4
#
memory 32 gb

molecule  {
0 1
  O        0.9417500     2.5148810    -0.6596880
  N        2.0463840     0.6978680     0.1749460
  C        0.7564320    -1.5550710    -0.8733250
  C        1.8157710    -1.7711630     0.2163790
  C       -0.4497480    -0.7926040    -0.3845090
  C        2.0266990    -0.4897580     1.0228720
  C       -0.3650830     0.5850230    -0.0943830
  C        0.9119250     1.3593610    -0.2260870
  C       -1.6913630    -1.4231620    -0.2398970
  C       -1.4827355     1.2833431     0.3842641
  C       -2.8212120    -0.7143780     0.1714760
  C       -2.7281430     0.6547360     0.4326570
  H        0.4383490    -2.5216720    -1.2799980
  H        1.2165960    -1.0011160    -1.6986390
  H        1.5065410    -2.5704870     0.9013410
  H        2.7543720    -2.0878480    -0.2534440
  H        1.2290340    -0.3883270     1.7666860
  H        2.9729880    -0.5259550     1.5704730
  H        2.8793190     1.2773810     0.1528780
  H       -1.7755450    -2.4842720    -0.4701710
  H       -1.4080790     2.3720960     0.4641940
  H       -3.7741480    -1.2278540     0.2772780
  H       -3.6082280     1.2145190     0.7397060
units angstrom
no_reorient  #important for SAPT in psi4, default
symmetry c1  #important for SAPT in psi4, default
}

set PROPERTIES_ORIGIN ["COM"]
properties('MP2/aug-cc-pvtz', properties = ['dipole'])
--------------------------------------------------------------------------

    Molecular point group: c1
  Charge       = 0
  Multiplicity = 1
  Basis Set: AUG-CC-PVTZ
    Blend: AUG-CC-PVTZ
  Basis Set: (AUG-CC-PVTZ AUX)
    Blend: AUG-CC-PVTZ-JKFIT

    Orbital Energies [Eh]
    ---------------------

    Doubly Occupied:

       1A    -20.515870     2A    -15.583006     3A    -11.351930
       4A    -11.275794     5A    -11.257871     6A    -11.248385
       7A    -11.248288     8A    -11.246035     9A    -11.242452
      10A    -11.240823    11A    -11.239343    12A    -11.237973
      13A     -1.369518    14A     -1.235108    15A     -1.164018
      16A     -1.082194    17A     -1.036832    18A     -1.020383
      19A     -0.938335    20A     -0.881569    21A     -0.841205
      22A     -0.798012    23A     -0.775923    24A     -0.697118
      25A     -0.685833    26A     -0.671502    27A     -0.652943
      28A     -0.623043    29A     -0.616191    30A     -0.598884
      31A     -0.587412    32A     -0.576045    33A     -0.557015
      34A     -0.535781    35A     -0.519000    36A     -0.509596
      37A     -0.491405    38A     -0.490006    39A     -0.478334
      40A     -0.423547    41A     -0.389582    42A     -0.344177
      43A     -0.335979

  @DF-RHF Final Energy:  -514.59342034809004

   => Energetics <=

    Nuclear Repulsion Energy =            685.0938637575716257
    One-Electron Energy =               -2058.1460519061506602
    Two-Electron Energy =                 858.4587678004889995
    Total Energy =                       -514.5934203480900351
  Basis Set: (AUG-CC-PVTZ AUX)
    Blend: AUG-CC-PVTZ-RI
    Molecular point group: c1

    Geometry (in Angstrom), charge = 0, multiplicity = 1:

       Center              X                  Y                   Z               Mass
    ------------   -----------------  -----------------  -----------------  -----------------
         O            0.955161564742     2.467527862036    -0.653472490363    15.994914619570
         N            2.059795564742     0.650514862036     0.181161509637    14.003074004430
         C            0.769843564742    -1.602424137964    -0.867109490363    12.000000000000
         C            1.829182564742    -1.818516137964     0.222594509637    12.000000000000
         C           -0.436336435258    -0.839957137964    -0.378293490363    12.000000000000
         C            2.040110564742    -0.537111137964     1.029087509637    12.000000000000
         C           -0.351671435258     0.537669862036    -0.088167490363    12.000000000000
         C            0.925336564742     1.312007862036    -0.219871490363    12.000000000000
         C           -1.677951435258    -1.470515137964    -0.233681490363    12.000000000000
         C           -1.469323935258     1.235989962036     0.390479609637    12.000000000000
         C           -2.807800435258    -0.761731137964     0.177691509637    12.000000000000
         C           -2.714731435258     0.607382862036     0.438872509637    12.000000000000
         H            0.451760564742    -2.569025137964    -1.273782490363     1.007825032230
         H            1.230007564742    -1.048469137964    -1.692423490363     1.007825032230
         H            1.519952564742    -2.617840137964     0.907556509637     1.007825032230
         H            2.767783564742    -2.135201137964    -0.247228490363     1.007825032230
         H            1.242445564742    -0.435680137964     1.772901509637     1.007825032230
         H            2.986399564742    -0.573308137964     1.576688509637     1.007825032230
         H            2.892730564742     1.230027862036     0.159093509637     1.007825032230
         H           -1.762133435258    -2.531625137964    -0.463955490363     1.007825032230
         H           -1.394667435258     2.324742862036     0.470409509637     1.007825032230
         H           -3.760736435258    -1.275207137964     0.283493509637     1.007825032230
         H           -3.594816435258     1.167165862036     0.745921509637     1.007825032230

  Basis Set: AUG-CC-PVTZ
    Blend: AUG-CC-PVTZ
  Basis Set: (AUG-CC-PVTZ AUX)
    Blend: AUG-CC-PVTZ-JKFIT
	 Reference Energy          =    -514.5934203480900351 [Eh]
	 Singles Energy            =      -0.0000000000000000 [Eh]
	 Same-Spin Energy          =      -0.5588748594269617 [Eh]
	 Opposite-Spin Energy      =      -1.7449416037021068 [Eh]
	 Correlation Energy        =      -2.3038164631290687 [Eh]
	 Total Energy              =    -516.8972368112191589 [Eh]

	 ================> DF-SCS-MP2 Energies <==================
	-----------------------------------------------------------
	 SCS Same-Spin Scale       =       0.3333333333333333 [-]
	 SCS Opposite-Spin Scale   =       1.2000000000000000 [-]
	 SCS Same-Spin Energy      =      -0.1862916198089872 [Eh]
	 SCS Opposite-Spin Energy  =      -2.0939299244425280 [Eh]
	 SCS Correlation Energy    =      -2.2802215442515150 [Eh]
	 SCS Total Energy          =    -516.8736418923415386 [Eh]
	-----------------------------------------------------------

  Dipole Moment: [D]
     X:     0.6358      Y:    -3.6256      Z:     1.7121     Total:     4.0597

*** Psi4 exiting successfully. Buy a developer a beer!
