                               Psi4 1.3.2 release

  ==> Input File <==

--------------------------------------------------------------------------
#psi4
#
memory 32 gb

molecule  {
0 1
  S        1.7618360    -1.1877300    -0.0001100
  N       -1.1892720    -1.1162850     0.0000840
  N        1.4363420     1.3812950    -0.0000570
  C       -0.6888070     0.1366280     0.0000400
  C        0.7702180     0.2369850    -0.0000350
  C       -1.4868030     1.2893490     0.0000580
  C       -2.8690220     1.1312400     0.0001290
  C       -3.4040470    -0.1590480     0.0001760
  C       -2.5262420    -1.2439110     0.0001500
  C        3.1506810    -0.1849920    -0.0001670
  C        2.9236165     1.1737802    -0.0001314
  H       -1.0124600     2.2659460     0.0000190
  H       -3.5213850     2.0011240     0.0001460
  H       -4.4778440    -0.3237170     0.0002310
  H       -2.9027010    -2.2653680     0.0001840
  H        4.1496320    -0.6018500    -0.0002240
  H        3.4730500     1.9793660    -0.0001460
units angstrom
no_reorient  #important for SAPT in psi4, default
symmetry c1  #important for SAPT in psi4, default
}

set PROPERTIES_ORIGIN ["COM"]
properties('MP2/aug-cc-pvtz', properties = ['dipole'])
--------------------------------------------------------------------------

    Molecular point group: c1
  Charge       = 0
  Multiplicity = 1
  Basis Set: AUG-CC-PVTZ
    Blend: AUG-CC-PVTZ
  Basis Set: (AUG-CC-PVTZ AUX)
    Blend: AUG-CC-PVTZ-JKFIT

    Orbital Energies [Eh]
    ---------------------

    Doubly Occupied:

       1A    -91.994169     2A    -15.579836     3A    -15.577699
       4A    -11.312898     5A    -11.297795     6A    -11.285484
       7A    -11.273347     8A    -11.271827     9A    -11.267408
      10A    -11.251779    11A    -11.249896    12A     -8.994464
      13A     -6.675347    14A     -6.674620    15A     -6.673894
      16A     -1.276618    17A     -1.241216    18A     -1.096416
      19A     -1.068807    20A     -1.050870    21A     -0.991640
      22A     -0.880485    23A     -0.868865    24A     -0.795510
      25A     -0.769663    26A     -0.700523    27A     -0.688159
      28A     -0.667203    29A     -0.640132    30A     -0.596422
      31A     -0.587635    32A     -0.575136    33A     -0.547223
      34A     -0.529390    35A     -0.528366    36A     -0.521960
      37A     -0.439339    38A     -0.414940    39A     -0.400836
      40A     -0.389083    41A     -0.363405    42A     -0.315415

  @DF-RHF Final Energy:  -812.98410482157544

   => Energetics <=

    Nuclear Repulsion Energy =            623.9198729753709358
    One-Electron Energy =               -2351.1565117497880237
    Two-Electron Energy =                 914.2525339528416453
    Total Energy =                       -812.9841048215754427
  Basis Set: (AUG-CC-PVTZ AUX)
    Blend: AUG-CC-PVTZ-RI
    Molecular point group: c1

    Geometry (in Angstrom), charge = 0, multiplicity = 1:

       Center              X                  Y                   Z               Mass
    ------------   -----------------  -----------------  -----------------  -----------------
         S            1.725427281816    -1.171538388102    -0.000108197801    31.972071174400
         N           -1.225680718184    -1.100093388102     0.000085802199    14.003074004430
         N            1.399933281816     1.397486611898    -0.000055197801    14.003074004430
         C           -0.725215718184     0.152819611898     0.000041802199    12.000000000000
         C            0.733809281816     0.253176611898    -0.000033197801    12.000000000000
         C           -1.523211718184     1.305540611898     0.000059802199    12.000000000000
         C           -2.905430718184     1.147431611898     0.000130802199    12.000000000000
         C           -3.440455718184    -0.142856388102     0.000177802199    12.000000000000
         C           -2.562650718184    -1.227719388102     0.000151802199    12.000000000000
         C            3.114272281816    -0.168800388102    -0.000165197801    12.000000000000
         C            2.887207781816     1.189971811898    -0.000129597801    12.000000000000
         H           -1.048868718184     2.282137611898     0.000020802199     1.007825032230
         H           -3.557793718184     2.017315611898     0.000147802199     1.007825032230
         H           -4.514252718184    -0.307525388102     0.000232802199     1.007825032230
         H           -2.939109718184    -2.249176388102     0.000185802199     1.007825032230
         H            4.113223281816    -0.585658388102    -0.000222197801     1.007825032230
         H            3.436641281816     1.995557611898    -0.000144197801     1.007825032230

  Basis Set: AUG-CC-PVTZ
    Blend: AUG-CC-PVTZ
  Basis Set: (AUG-CC-PVTZ AUX)
    Blend: AUG-CC-PVTZ-JKFIT
	 Reference Energy          =    -812.9841048215754427 [Eh]
	 Singles Energy            =      -0.0000000000000000 [Eh]
	 Same-Spin Energy          =      -0.5239295361009695 [Eh]
	 Opposite-Spin Energy      =      -1.5556694535999200 [Eh]
	 Correlation Energy        =      -2.0795989897008895 [Eh]
	 Total Energy              =    -815.0637038112763548 [Eh]

	 ================> DF-SCS-MP2 Energies <==================
	-----------------------------------------------------------
	 SCS Same-Spin Scale       =       0.3333333333333333 [-]
	 SCS Opposite-Spin Scale   =       1.2000000000000000 [-]
	 SCS Same-Spin Energy      =      -0.1746431787003231 [Eh]
	 SCS Opposite-Spin Energy  =      -1.8668033443199039 [Eh]
	 SCS Correlation Energy    =      -2.0414465230202272 [Eh]
	 SCS Total Energy          =    -815.0255513445956694 [Eh]
	-----------------------------------------------------------

  Dipole Moment: [D]
     X:    -0.9215      Y:     0.2749      Z:    -0.0000     Total:     0.9616

*** Psi4 exiting successfully. Buy a developer a beer!
