                               Psi4 1.3.2 release

  ==> Input File <==

--------------------------------------------------------------------------
#psi4
#
memory 32 gb

molecule  {
0 1
  S        1.7618360    -1.1877300    -0.0001100
  N       -1.1892720    -1.1162850     0.0000840
  N        1.4363420     1.3812950    -0.0000570
  C       -0.6888070     0.1366280     0.0000400
  C        0.7702180     0.2369850    -0.0000350
  C       -1.4868030     1.2893490     0.0000580
  C       -2.8690220     1.1312400     0.0001290
  C       -3.4040470    -0.1590480     0.0001760
  C       -2.6257895    -1.2534137     0.0001549
  C        3.1506810    -0.1849920    -0.0001670
  C        2.7828300     1.1426020    -0.0001250
  H       -1.0124600     2.2659460     0.0000190
  H       -3.5213850     2.0011240     0.0001460
  H       -4.4778440    -0.3237170     0.0002310
  H       -2.9027010    -2.2653680     0.0001840
  H        4.1496320    -0.6018500    -0.0002240
  H        3.4730500     1.9793660    -0.0001460
units angstrom
no_reorient  #important for SAPT in psi4, default
symmetry c1  #important for SAPT in psi4, default
}

set PROPERTIES_ORIGIN ["COM"]
properties('MP2/aug-cc-pvtz', properties = ['dipole'])
--------------------------------------------------------------------------

    Molecular point group: c1
  Charge       = 0
  Multiplicity = 1
  Basis Set: AUG-CC-PVTZ
    Blend: AUG-CC-PVTZ
  Basis Set: (AUG-CC-PVTZ AUX)
    Blend: AUG-CC-PVTZ-JKFIT

    Orbital Energies [Eh]
    ---------------------

    Doubly Occupied:

       1A    -91.995628     2A    -15.583004     3A    -15.575472
       4A    -11.313988     5A    -11.297880     6A    -11.283042
       7A    -11.270122     8A    -11.268823     9A    -11.265610
      10A    -11.250732    11A    -11.247229    12A     -8.995640
      13A     -6.676404    14A     -6.675851    15A     -6.675186
      16A     -1.284610    17A     -1.242594    18A     -1.096249
      19A     -1.068851    20A     -1.059493    21A     -0.990714
      22A     -0.880887    23A     -0.865567    24A     -0.790287
      25A     -0.767640    26A     -0.707590    27A     -0.679642
      28A     -0.663684    29A     -0.645781    30A     -0.598303
      31A     -0.587566    32A     -0.578741    33A     -0.555679
      34A     -0.530703    35A     -0.524720    36A     -0.503499
      37A     -0.444977    38A     -0.424623    39A     -0.403321
      40A     -0.388461    41A     -0.365504    42A     -0.312101

  @DF-RHF Final Energy:  -812.99553618649452

   => Energetics <=

    Nuclear Repulsion Energy =            625.4877966292089013
    One-Electron Energy =               -2354.2938655065504463
    Two-Electron Energy =                 915.8105326908471397
    Total Energy =                       -812.9955361864945189
  Basis Set: (AUG-CC-PVTZ AUX)
    Blend: AUG-CC-PVTZ-RI
    Molecular point group: c1

    Geometry (in Angstrom), charge = 0, multiplicity = 1:

       Center              X                  Y                   Z               Mass
    ------------   -----------------  -----------------  -----------------  -----------------
         S            1.743227034849    -1.168525456211    -0.000109034708    31.972071174400
         N           -1.207880965151    -1.097080456211     0.000084965292    14.003074004430
         N            1.417733034849     1.400499543789    -0.000056034708    14.003074004430
         C           -0.707415965151     0.155832543789     0.000040965292    12.000000000000
         C            0.751609034849     0.256189543789    -0.000034034708    12.000000000000
         C           -1.505411965151     1.308553543789     0.000058965292    12.000000000000
         C           -2.887630965151     1.150444543789     0.000129965292    12.000000000000
         C           -3.422655965151    -0.139843456211     0.000176965292    12.000000000000
         C           -2.644398465151    -1.234209156211     0.000155865292    12.000000000000
         C            3.132072034849    -0.165787456211    -0.000166034708    12.000000000000
         C            2.764221034849     1.161806543789    -0.000124034708    12.000000000000
         H           -1.031068965151     2.285150543789     0.000019965292     1.007825032230
         H           -3.539993965151     2.020328543789     0.000146965292     1.007825032230
         H           -4.496452965151    -0.304512456211     0.000231965292     1.007825032230
         H           -2.921309965151    -2.246163456211     0.000184965292     1.007825032230
         H            4.131023034849    -0.582645456211    -0.000223034708     1.007825032230
         H            3.454441034849     1.998570543789    -0.000145034708     1.007825032230

  Basis Set: AUG-CC-PVTZ
    Blend: AUG-CC-PVTZ
  Basis Set: (AUG-CC-PVTZ AUX)
    Blend: AUG-CC-PVTZ-JKFIT
	 Reference Energy          =    -812.9955361864945189 [Eh]
	 Singles Energy            =      -0.0000000000000000 [Eh]
	 Same-Spin Energy          =      -0.5256934337047208 [Eh]
	 Opposite-Spin Energy      =      -1.5560729958814694 [Eh]
	 Correlation Energy        =      -2.0817664295861902 [Eh]
	 Total Energy              =    -815.0773026160807149 [Eh]

	 ================> DF-SCS-MP2 Energies <==================
	-----------------------------------------------------------
	 SCS Same-Spin Scale       =       0.3333333333333333 [-]
	 SCS Opposite-Spin Scale   =       1.2000000000000000 [-]
	 SCS Same-Spin Energy      =      -0.1752311445682402 [Eh]
	 SCS Opposite-Spin Energy  =      -1.8672875950577632 [Eh]
	 SCS Correlation Energy    =      -2.0425187396260034 [Eh]
	 SCS Total Energy          =    -815.0380549261204806 [Eh]
	-----------------------------------------------------------

  Dipole Moment: [D]
     X:    -0.8179      Y:     0.2002      Z:    -0.0000     Total:     0.8421

*** Psi4 exiting successfully. Buy a developer a beer!
