                               Psi4 1.3.2 release

  ==> Input File <==

--------------------------------------------------------------------------
#psi4
#
memory 32 gb

molecule  {
0 1
  S        1.7618360    -1.1877300    -0.0001100
  N       -1.2326932    -1.0980558     0.0000859
  N        1.4363420     1.3812950    -0.0000570
  C       -0.6888070     0.1366280     0.0000400
  C        0.7702180     0.2369850    -0.0000350
  C       -1.4868030     1.2893490     0.0000580
  C       -2.8690220     1.1312400     0.0001290
  C       -3.4040470    -0.1590480     0.0001760
  C       -2.5262420    -1.2439110     0.0001500
  C        3.1506810    -0.1849920    -0.0001670
  C        2.7828300     1.1426020    -0.0001250
  H       -1.0124600     2.2659460     0.0000190
  H       -3.5213850     2.0011240     0.0001460
  H       -4.4778440    -0.3237170     0.0002310
  H       -2.9027010    -2.2653680     0.0001840
  H        4.1496320    -0.6018500    -0.0002240
  H        3.4730500     1.9793660    -0.0001460
units angstrom
no_reorient  #important for SAPT in psi4, default
symmetry c1  #important for SAPT in psi4, default
}

set PROPERTIES_ORIGIN ["COM"]
properties('MP2/aug-cc-pvtz', properties = ['dipole'])
--------------------------------------------------------------------------

    Molecular point group: c1
  Charge       = 0
  Multiplicity = 1
  Basis Set: AUG-CC-PVTZ
    Blend: AUG-CC-PVTZ
  Basis Set: (AUG-CC-PVTZ AUX)
    Blend: AUG-CC-PVTZ-JKFIT

    Orbital Energies [Eh]
    ---------------------

    Doubly Occupied:

       1A    -91.996388     2A    -15.574790     3A    -15.572652
       4A    -11.315228     5A    -11.296875     6A    -11.280189
       7A    -11.270855     8A    -11.265618     9A    -11.265589
      10A    -11.249964    11A    -11.249643    12A     -8.996432
      13A     -6.677203    14A     -6.676659    15A     -6.675993
      16A     -1.290277    17A     -1.266979    18A     -1.095227
      19A     -1.070871    20A     -1.063838    21A     -0.986859
      22A     -0.879302    23A     -0.867576    24A     -0.791878
      25A     -0.769325    26A     -0.707651    27A     -0.682172
      28A     -0.670285    29A     -0.639584    30A     -0.595133
      31A     -0.588303    32A     -0.583081    33A     -0.559478
      34A     -0.539427    35A     -0.531799    36A     -0.503096
      37A     -0.441893    38A     -0.418730    39A     -0.397654
      40A     -0.394235    41A     -0.374258    42A     -0.306169

  @DF-RHF Final Energy:  -813.01010432405701

   => Energetics <=

    Nuclear Repulsion Energy =            627.4063512022737541
    One-Electron Energy =               -2358.0745920740178008
    Two-Electron Energy =                 917.6581365476870360
    Total Energy =                       -813.0101043240570107
  Basis Set: (AUG-CC-PVTZ AUX)
    Blend: AUG-CC-PVTZ-RI
    Molecular point group: c1

    Geometry (in Angstrom), charge = 0, multiplicity = 1:

       Center              X                  Y                   Z               Mass
    ------------   -----------------  -----------------  -----------------  -----------------
         S            1.739606981710    -1.170804714662    -0.000108836010    31.972071174400
         N           -1.254922218290    -1.081130514662     0.000087063990    14.003074004430
         N            1.414112981710     1.398220285338    -0.000055836010    14.003074004430
         C           -0.711036018290     0.153553285338     0.000041163990    12.000000000000
         C            0.747988981710     0.253910285338    -0.000033836010    12.000000000000
         C           -1.509032018290     1.306274285338     0.000059163990    12.000000000000
         C           -2.891251018290     1.148165285338     0.000130163990    12.000000000000
         C           -3.426276018290    -0.142122714662     0.000177163990    12.000000000000
         C           -2.548471018290    -1.226985714662     0.000151163990    12.000000000000
         C            3.128451981710    -0.168066714662    -0.000165836010    12.000000000000
         C            2.760600981710     1.159527285338    -0.000123836010    12.000000000000
         H           -1.034689018290     2.282871285338     0.000020163990     1.007825032230
         H           -3.543614018290     2.018049285338     0.000147163990     1.007825032230
         H           -4.500073018290    -0.306791714662     0.000232163990     1.007825032230
         H           -2.924930018290    -2.248442714662     0.000185163990     1.007825032230
         H            4.127402981710    -0.584924714662    -0.000222836010     1.007825032230
         H            3.450820981710     1.996291285338    -0.000144836010     1.007825032230

  Basis Set: AUG-CC-PVTZ
    Blend: AUG-CC-PVTZ
  Basis Set: (AUG-CC-PVTZ AUX)
    Blend: AUG-CC-PVTZ-JKFIT
	 Reference Energy          =    -813.0101043240570107 [Eh]
	 Singles Energy            =      -0.0000000000000000 [Eh]
	 Same-Spin Energy          =      -0.5249507284926075 [Eh]
	 Opposite-Spin Energy      =      -1.5522466548714426 [Eh]
	 Correlation Energy        =      -2.0771973833640502 [Eh]
	 Total Energy              =    -815.0873017074210338 [Eh]

	 ================> DF-SCS-MP2 Energies <==================
	-----------------------------------------------------------
	 SCS Same-Spin Scale       =       0.3333333333333333 [-]
	 SCS Opposite-Spin Scale   =       1.2000000000000000 [-]
	 SCS Same-Spin Energy      =      -0.1749835761642025 [Eh]
	 SCS Opposite-Spin Energy  =      -1.8626959858457310 [Eh]
	 SCS Correlation Energy    =      -2.0376795620099335 [Eh]
	 SCS Total Energy          =    -815.0477838860668953 [Eh]
	-----------------------------------------------------------

  Dipole Moment: [D]
     X:    -0.6706      Y:     0.1560      Z:    -0.0000     Total:     0.6885

*** Psi4 exiting successfully. Buy a developer a beer!
