                               Psi4 1.3.2 release

  ==> Input File <==

--------------------------------------------------------------------------
#psi4
#
memory 32 gb

molecule  {
0 1
  S        1.7618360    -1.1877300    -0.0001100
  N       -1.1892720    -1.1162850     0.0000840
  N        1.3960004     1.4038453    -0.0000546
  C       -0.6888070     0.1366280     0.0000400
  C        0.7702180     0.2369850    -0.0000350
  C       -1.4868030     1.2893490     0.0000580
  C       -2.8690220     1.1312400     0.0001290
  C       -3.4040470    -0.1590480     0.0001760
  C       -2.5262420    -1.2439110     0.0001500
  C        3.1506810    -0.1849920    -0.0001670
  C        2.7828300     1.1426020    -0.0001250
  H       -1.0124600     2.2659460     0.0000190
  H       -3.5213850     2.0011240     0.0001460
  H       -4.4778440    -0.3237170     0.0002310
  H       -2.9027010    -2.2653680     0.0001840
  H        4.1496320    -0.6018500    -0.0002240
  H        3.4730500     1.9793660    -0.0001460
units angstrom
no_reorient  #important for SAPT in psi4, default
symmetry c1  #important for SAPT in psi4, default
}

set PROPERTIES_ORIGIN ["COM"]
properties('MP2/aug-cc-pvtz', properties = ['dipole'])
--------------------------------------------------------------------------

    Molecular point group: c1
  Charge       = 0
  Multiplicity = 1
  Basis Set: AUG-CC-PVTZ
    Blend: AUG-CC-PVTZ
  Basis Set: (AUG-CC-PVTZ AUX)
    Blend: AUG-CC-PVTZ-JKFIT

    Orbital Energies [Eh]
    ---------------------

    Doubly Occupied:

       1A    -91.995656     2A    -15.579223     3A    -15.578728
       4A    -11.314778     5A    -11.296231     6A    -11.285032
       7A    -11.274310     8A    -11.267204     9A    -11.266809
      10A    -11.251298    11A    -11.249573    12A     -8.995805
      13A     -6.676610    14A     -6.676012    15A     -6.675310
      16A     -1.283144    17A     -1.255859    18A     -1.096331
      19A     -1.070220    20A     -1.060291    21A     -0.984309
      22A     -0.876738    23A     -0.868773    24A     -0.786793
      25A     -0.767185    26A     -0.706165    27A     -0.678432
      28A     -0.668851    29A     -0.637396    30A     -0.592463
      31A     -0.583198    32A     -0.579577    33A     -0.558951
      34A     -0.533648    35A     -0.528319    36A     -0.504280
      37A     -0.448411    38A     -0.425700    39A     -0.400152
      40A     -0.392018    41A     -0.368675    42A     -0.309618

  @DF-RHF Final Energy:  -813.00675592368771

   => Energetics <=

    Nuclear Repulsion Energy =            626.3332366402790967
    One-Electron Energy =               -2355.9838294330616009
    Two-Electron Energy =                 916.6438368690946845
    Total Energy =                       -813.0067559236877059
  Basis Set: (AUG-CC-PVTZ AUX)
    Blend: AUG-CC-PVTZ-RI
    Molecular point group: c1

    Geometry (in Angstrom), charge = 0, multiplicity = 1:

       Center              X                  Y                   Z               Mass
    ------------   -----------------  -----------------  -----------------  -----------------
         S            1.739340826354    -1.171178167030    -0.000108879222    31.972071174400
         N           -1.211767173646    -1.099733167030     0.000085120778    14.003074004430
         N            1.373505226354     1.420397132970    -0.000053479222    14.003074004430
         C           -0.711302173646     0.153179832970     0.000041120778    12.000000000000
         C            0.747722826354     0.253536832970    -0.000033879222    12.000000000000
         C           -1.509298173646     1.305900832970     0.000059120778    12.000000000000
         C           -2.891517173646     1.147791832970     0.000130120778    12.000000000000
         C           -3.426542173646    -0.142496167030     0.000177120778    12.000000000000
         C           -2.548737173646    -1.227359167030     0.000151120778    12.000000000000
         C            3.128185826354    -0.168440167030    -0.000165879222    12.000000000000
         C            2.760334826354     1.159153832970    -0.000123879222    12.000000000000
         H           -1.034955173646     2.282497832970     0.000020120778     1.007825032230
         H           -3.543880173646     2.017675832970     0.000147120778     1.007825032230
         H           -4.500339173646    -0.307165167030     0.000232120778     1.007825032230
         H           -2.925196173646    -2.248816167030     0.000185120778     1.007825032230
         H            4.127136826354    -0.585298167030    -0.000222879222     1.007825032230
         H            3.450554826354     1.995917832970    -0.000144879222     1.007825032230

  Basis Set: AUG-CC-PVTZ
    Blend: AUG-CC-PVTZ
  Basis Set: (AUG-CC-PVTZ AUX)
    Blend: AUG-CC-PVTZ-JKFIT
	 Reference Energy          =    -813.0067559236877059 [Eh]
	 Singles Energy            =      -0.0000000000000000 [Eh]
	 Same-Spin Energy          =      -0.5248179571443586 [Eh]
	 Opposite-Spin Energy      =      -1.5542656511946604 [Eh]
	 Correlation Energy        =      -2.0790836083390190 [Eh]
	 Total Energy              =    -815.0858395320267391 [Eh]

	 ================> DF-SCS-MP2 Energies <==================
	-----------------------------------------------------------
	 SCS Same-Spin Scale       =       0.3333333333333333 [-]
	 SCS Opposite-Spin Scale   =       1.2000000000000000 [-]
	 SCS Same-Spin Energy      =      -0.1749393190481195 [Eh]
	 SCS Opposite-Spin Energy  =      -1.8651187814335923 [Eh]
	 SCS Correlation Energy    =      -2.0400581004817120 [Eh]
	 SCS Total Energy          =    -815.0468140241694073 [Eh]
	-----------------------------------------------------------

  Dipole Moment: [D]
     X:    -0.7599      Y:     0.1458      Z:    -0.0000     Total:     0.7738

*** Psi4 exiting successfully. Buy a developer a beer!
