                               Psi4 1.3.2 release

  ==> Input File <==

--------------------------------------------------------------------------
#psi4
#
memory 32 gb

molecule  {
0 1
  S        1.7618360    -1.1877300    -0.0001100
  N       -1.1892720    -1.1162850     0.0000840
  N        1.4363420     1.3812950    -0.0000570
  C       -0.6888070     0.1366280     0.0000400
  C        0.7455043     0.2194619    -0.0000340
  C       -1.4868030     1.2893490     0.0000580
  C       -2.8690220     1.1312400     0.0001290
  C       -3.4040470    -0.1590480     0.0001760
  C       -2.5262420    -1.2439110     0.0001500
  C        3.1506810    -0.1849920    -0.0001670
  C        2.7828300     1.1426020    -0.0001250
  H       -1.0124600     2.2659460     0.0000190
  H       -3.5213850     2.0011240     0.0001460
  H       -4.4778440    -0.3237170     0.0002310
  H       -2.9027010    -2.2653680     0.0001840
  H        4.1496320    -0.6018500    -0.0002240
  H        3.4730500     1.9793660    -0.0001460
units angstrom
no_reorient  #important for SAPT in psi4, default
symmetry c1  #important for SAPT in psi4, default
}

set PROPERTIES_ORIGIN ["COM"]
properties('MP2/aug-cc-pvtz', properties = ['dipole'])
--------------------------------------------------------------------------

    Molecular point group: c1
  Charge       = 0
  Multiplicity = 1
  Basis Set: AUG-CC-PVTZ
    Blend: AUG-CC-PVTZ
  Basis Set: (AUG-CC-PVTZ AUX)
    Blend: AUG-CC-PVTZ-JKFIT

    Orbital Energies [Eh]
    ---------------------

    Doubly Occupied:

       1A    -91.997419     2A    -15.578840     3A    -15.575710
       4A    -11.314565     5A    -11.295954     6A    -11.285558
       7A    -11.270375     8A    -11.267833     9A    -11.265215
      10A    -11.251752    11A    -11.250581    12A     -8.997192
      13A     -6.677947    14A     -6.677436    15A     -6.676793
      16A     -1.283627    17A     -1.256764    18A     -1.097030
      19A     -1.071104    20A     -1.060578    21A     -0.986307
      22A     -0.879999    23A     -0.870056    24A     -0.788224
      25A     -0.768027    26A     -0.706523    27A     -0.679773
      28A     -0.669683    29A     -0.640185    30A     -0.594827
      31A     -0.587462    32A     -0.580726    33A     -0.557783
      34A     -0.534269    35A     -0.531534    36A     -0.502587
      37A     -0.442225    38A     -0.425224    39A     -0.399698
      40A     -0.391034    41A     -0.372638    42A     -0.304263

  @DF-RHF Final Energy:  -813.00574177814133

   => Energetics <=

    Nuclear Repulsion Energy =            626.9240010442006223
    One-Electron Energy =               -2357.1288502504562530
    Two-Electron Energy =                 917.1991074281143028
    Total Energy =                       -813.0057417781413278
  Basis Set: (AUG-CC-PVTZ AUX)
    Blend: AUG-CC-PVTZ-RI
    Molecular point group: c1

    Geometry (in Angstrom), charge = 0, multiplicity = 1:

       Center              X                  Y                   Z               Mass
    ------------   -----------------  -----------------  -----------------  -----------------
         S            1.737684651506    -1.167931444797    -0.000108745864    31.972071174400
         N           -1.213423348494    -1.096486444797     0.000085254136    14.003074004430
         N            1.412190651506     1.401093555203    -0.000055745864    14.003074004430
         C           -0.712958348494     0.156426555203     0.000041254136    12.000000000000
         C            0.721352951506     0.239260455203    -0.000032745864    12.000000000000
         C           -1.510954348494     1.309147555203     0.000059254136    12.000000000000
         C           -2.893173348494     1.151038555203     0.000130254136    12.000000000000
         C           -3.428198348494    -0.139249444797     0.000177254136    12.000000000000
         C           -2.550393348494    -1.224112444797     0.000151254136    12.000000000000
         C            3.126529651506    -0.165193444797    -0.000165745864    12.000000000000
         C            2.758678651506     1.162400555203    -0.000123745864    12.000000000000
         H           -1.036611348494     2.285744555203     0.000020254136     1.007825032230
         H           -3.545536348494     2.020922555203     0.000147254136     1.007825032230
         H           -4.501995348494    -0.303918444797     0.000232254136     1.007825032230
         H           -2.926852348494    -2.245569444797     0.000185254136     1.007825032230
         H            4.125480651506    -0.582051444797    -0.000222745864     1.007825032230
         H            3.448898651506     1.999164555203    -0.000144745864     1.007825032230

  Basis Set: AUG-CC-PVTZ
    Blend: AUG-CC-PVTZ
  Basis Set: (AUG-CC-PVTZ AUX)
    Blend: AUG-CC-PVTZ-JKFIT
	 Reference Energy          =    -813.0057417781413278 [Eh]
	 Singles Energy            =      -0.0000000000000000 [Eh]
	 Same-Spin Energy          =      -0.5263686254169746 [Eh]
	 Opposite-Spin Energy      =      -1.5551423725779938 [Eh]
	 Correlation Energy        =      -2.0815109979949682 [Eh]
	 Total Energy              =    -815.0872527761363244 [Eh]

	 ================> DF-SCS-MP2 Energies <==================
	-----------------------------------------------------------
	 SCS Same-Spin Scale       =       0.3333333333333333 [-]
	 SCS Opposite-Spin Scale   =       1.2000000000000000 [-]
	 SCS Same-Spin Energy      =      -0.1754562084723248 [Eh]
	 SCS Opposite-Spin Energy  =      -1.8661708470935925 [Eh]
	 SCS Correlation Energy    =      -2.0416270555659173 [Eh]
	 SCS Total Energy          =    -815.0473688337071962 [Eh]
	-----------------------------------------------------------

  Dipole Moment: [D]
     X:    -0.7544      Y:     0.1727      Z:    -0.0000     Total:     0.7740

*** Psi4 exiting successfully. Buy a developer a beer!
