                               Psi4 1.3.2 release

  ==> Input File <==

--------------------------------------------------------------------------
#psi4
#
memory 32 gb

molecule  {
0 1
  S        1.7618360    -1.1877300    -0.0001100
  N       -1.1892720    -1.1162850     0.0000840
  N        1.4363420     1.3812950    -0.0000570
  C       -0.6888070     0.1366280     0.0000400
  C        0.7702180     0.2369850    -0.0000350
  C       -1.4868030     1.2893490     0.0000580
  C       -2.8690220     1.1312400     0.0001290
  C       -3.4040470    -0.1590480     0.0001760
  C       -2.5262420    -1.2439110     0.0001500
  C        3.1506810    -0.1849920    -0.0001670
  C        2.7828300     1.1426020    -0.0001250
  H       -1.0124600     2.2659460     0.0000190
  H       -3.5213850     2.0011240     0.0001460
  H       -4.4778440    -0.3237170     0.0002310
  H       -2.9027010    -2.2653680     0.0001840
  H        4.0573449    -0.5633390    -0.0002187
  H        3.4730500     1.9793660    -0.0001460
units angstrom
no_reorient  #important for SAPT in psi4, default
symmetry c1  #important for SAPT in psi4, default
}

set PROPERTIES_ORIGIN ["COM"]
properties('MP2/aug-cc-pvtz', properties = ['dipole'])
--------------------------------------------------------------------------

    Molecular point group: c1
  Charge       = 0
  Multiplicity = 1
  Basis Set: AUG-CC-PVTZ
    Blend: AUG-CC-PVTZ
  Basis Set: (AUG-CC-PVTZ AUX)
    Blend: AUG-CC-PVTZ-JKFIT

    Orbital Energies [Eh]
    ---------------------

    Doubly Occupied:

       1A    -91.995177     2A    -15.578886     3A    -15.573941
       4A    -11.313753     5A    -11.297347     6A    -11.285456
       7A    -11.269923     8A    -11.267543     9A    -11.254121
      10A    -11.251374    11A    -11.249931    12A     -8.995249
      13A     -6.676027    14A     -6.675475    15A     -6.674819
      16A     -1.287340    17A     -1.260195    18A     -1.096553
      19A     -1.070340    20A     -1.063450    21A     -0.987913
      22A     -0.878572    23A     -0.869470    24A     -0.802072
      25A     -0.767525    26A     -0.711955    27A     -0.682291
      28A     -0.671540    29A     -0.640152    30A     -0.594565
      31A     -0.590076    32A     -0.581300    33A     -0.564481
      34A     -0.535895    35A     -0.530002    36A     -0.502608
      37A     -0.444160    38A     -0.424567    39A     -0.398830
      40A     -0.392447    41A     -0.371376    42A     -0.307101

  @DF-RHF Final Energy:  -813.00338549495461

   => Energetics <=

    Nuclear Repulsion Energy =            627.5461715375472522
    One-Electron Energy =               -2358.3275158340534290
    Two-Electron Energy =                 917.7779588015515628
    Total Energy =                       -813.0033854949546139
  Basis Set: (AUG-CC-PVTZ AUX)
    Blend: AUG-CC-PVTZ-RI
    Molecular point group: c1

    Geometry (in Angstrom), charge = 0, multiplicity = 1:

       Center              X                  Y                   Z               Mass
    ------------   -----------------  -----------------  -----------------  -----------------
         S            1.736428333421    -1.169468795757    -0.000108704769    31.972071174400
         N           -1.214679666579    -1.098023795757     0.000085295231    14.003074004430
         N            1.410934333421     1.399556204243    -0.000055704769    14.003074004430
         C           -0.714214666579     0.154889204243     0.000041295231    12.000000000000
         C            0.744810333421     0.255246204243    -0.000033704769    12.000000000000
         C           -1.512210666579     1.307610204243     0.000059295231    12.000000000000
         C           -2.894429666579     1.149501204243     0.000130295231    12.000000000000
         C           -3.429454666579    -0.140786795757     0.000177295231    12.000000000000
         C           -2.551649666579    -1.225649795757     0.000151295231    12.000000000000
         C            3.125273333421    -0.166730795757    -0.000165704769    12.000000000000
         C            2.757422333421     1.160863204243    -0.000123704769    12.000000000000
         H           -1.037867666579     2.284207204243     0.000020295231     1.007825032230
         H           -3.546792666579     2.019385204243     0.000147295231     1.007825032230
         H           -4.503251666579    -0.305455795757     0.000232295231     1.007825032230
         H           -2.928108666579    -2.247106795757     0.000185295231     1.007825032230
         H            4.031937233421    -0.545077795757    -0.000217404769     1.007825032230
         H            3.447642333421     1.997627204243    -0.000144704769     1.007825032230

  Basis Set: AUG-CC-PVTZ
    Blend: AUG-CC-PVTZ
  Basis Set: (AUG-CC-PVTZ AUX)
    Blend: AUG-CC-PVTZ-JKFIT
	 Reference Energy          =    -813.0033854949546139 [Eh]
	 Singles Energy            =      -0.0000000000000000 [Eh]
	 Same-Spin Energy          =      -0.5251513181564855 [Eh]
	 Opposite-Spin Energy      =      -1.5533020478065724 [Eh]
	 Correlation Energy        =      -2.0784533659630577 [Eh]
	 Total Energy              =    -815.0818388609176282 [Eh]

	 ================> DF-SCS-MP2 Energies <==================
	-----------------------------------------------------------
	 SCS Same-Spin Scale       =       0.3333333333333333 [-]
	 SCS Opposite-Spin Scale   =       1.2000000000000000 [-]
	 SCS Same-Spin Energy      =      -0.1750504393854952 [Eh]
	 SCS Opposite-Spin Energy  =      -1.8639624573678868 [Eh]
	 SCS Correlation Energy    =      -2.0390128967533818 [Eh]
	 SCS Total Energy          =    -815.0423983917080477 [Eh]
	-----------------------------------------------------------

  Dipole Moment: [D]
     X:    -0.8165      Y:     0.2055      Z:    -0.0000     Total:     0.8419

*** Psi4 exiting successfully. Buy a developer a beer!
