                               Psi4 1.4a3.dev225

  ==> Input File <==

--------------------------------------------------------------------------
#psi4
#
memory 32 gb

molecule  {
0 1
  S        1.7618360    -1.1877300    -0.0001100
  N       -1.1892720    -1.1162850     0.0000840
  N        1.4363420     1.3812950    -0.0000570
  C       -0.6888070     0.1366280     0.0000400
  C        0.7702180     0.2369850    -0.0000350
  C       -1.4868030     1.2893490     0.0000580
  C       -2.8690220     1.1312400     0.0001290
  C       -3.4040470    -0.1590480     0.0001760
  C       -2.5262420    -1.2439110     0.0001500
  C        3.1506810    -0.1849920    -0.0001670
  C        2.7881704     1.1233282    -0.0001256
  H       -1.0124600     2.2659460     0.0000190
  H       -3.5213850     2.0011240     0.0001460
  H       -4.4778440    -0.3237170     0.0002310
  H       -2.9027010    -2.2653680     0.0001840
  H        4.1496320    -0.6018500    -0.0002240
  H        3.4730500     1.9793660    -0.0001460
units angstrom
no_reorient  #important for SAPT in psi4, default
symmetry c1  #important for SAPT in psi4, default
}

set PROPERTIES_ORIGIN ["COM"]
properties('MP2/aug-cc-pvtz', properties = ['dipole'])
--------------------------------------------------------------------------

    Molecular point group: c1
  Charge       = 0
  Multiplicity = 1
  Basis Set: AUG-CC-PVTZ
    Blend: AUG-CC-PVTZ
  Basis Set: (AUG-CC-PVTZ AUX)
    Blend: AUG-CC-PVTZ-JKFIT

    Orbital Energies [Eh]
    ---------------------

    Doubly Occupied:

       1A    -91.994399     2A    -15.579326     3A    -15.574357
       4A    -11.314247     5A    -11.297537     6A    -11.285691
       7A    -11.268732     8A    -11.267825     9A    -11.262614
      10A    -11.251818    11A    -11.250380    12A     -8.994584
      13A     -6.675363    14A     -6.674812    15A     -6.674113
      16A     -1.287189    17A     -1.260192    18A     -1.096845
      19A     -1.070210    20A     -1.061707    21A     -0.987621
      22A     -0.878007    23A     -0.869379    24A     -0.789681
      25A     -0.766039    26A     -0.708032    27A     -0.679870
      28A     -0.669374    29A     -0.638876    30A     -0.593575
      31A     -0.585070    32A     -0.581603    33A     -0.558563
      34A     -0.536425    35A     -0.529596    36A     -0.502850
      37A     -0.445102    38A     -0.424694    39A     -0.399855
      40A     -0.392079    41A     -0.371291    42A     -0.309776

  @DF-RHF Final Energy:  -813.00990759828005

   => Energetics <=

    Nuclear Repulsion Energy =            627.1645828807264706
    One-Electron Energy =               -2357.6303768085999764
    Two-Electron Energy =                 917.4558863295935680
    Total Energy =                       -813.0099075982800514
  Basis Set: (AUG-CC-PVTZ AUX)
    Blend: AUG-CC-PVTZ-RI
    Molecular point group: c1

    Geometry (in Angstrom), charge = 0, multiplicity = 1:

       Center              X                  Y                   Z               Mass
    ------------   -----------------  -----------------  -----------------  -----------------
         S            1.735458767704    -1.167801783460    -0.000108627364    31.972071174400
         N           -1.215649232296    -1.096356783460     0.000085372636    14.003074004430
         N            1.409964767704     1.401223216540    -0.000055627364    14.003074004430
         C           -0.715184232296     0.156556216540     0.000041372636    12.000000000000
         C            0.743840767704     0.256913216540    -0.000033627364    12.000000000000
         C           -1.513180232296     1.309277216540     0.000059372636    12.000000000000
         C           -2.895399232296     1.151168216540     0.000130372636    12.000000000000
         C           -3.430424232296    -0.139119783460     0.000177372636    12.000000000000
         C           -2.552619232296    -1.223982783460     0.000151372636    12.000000000000
         C            3.124303767704    -0.165063783460    -0.000165627364    12.000000000000
         C            2.761793167704     1.143256416540    -0.000124227364    12.000000000000
         H           -1.038837232296     2.285874216540     0.000020372636     1.007825032230
         H           -3.547762232296     2.021052216540     0.000147372636     1.007825032230
         H           -4.504221232296    -0.303788783460     0.000232372636     1.007825032230
         H           -2.929078232296    -2.245439783460     0.000185372636     1.007825032230
         H            4.123254767704    -0.581921783460    -0.000222627364     1.007825032230
         H            3.446672767704     1.999294216540    -0.000144627364     1.007825032230

  Basis Set: AUG-CC-PVTZ
    Blend: AUG-CC-PVTZ
  Basis Set: (AUG-CC-PVTZ AUX)
    Blend: AUG-CC-PVTZ-JKFIT
	 Reference Energy          =    -813.0099075982800514 [Eh]
	 Singles Energy            =      -0.0000000000000000 [Eh]
	 Same-Spin Energy          =      -0.5248451487379573 [Eh]
	 Opposite-Spin Energy      =      -1.5530952959793574 [Eh]
	 Correlation Energy        =      -2.0779404447173144 [Eh]
	 Total Energy              =    -815.0878480429973933 [Eh]

	 ================> DF-SCS-MP2 Energies <==================
	-----------------------------------------------------------
	 SCS Same-Spin Scale       =       0.3333333333333333 [-]
	 SCS Opposite-Spin Scale   =       1.2000000000000000 [-]
	 SCS Same-Spin Energy      =      -0.1749483829126524 [Eh]
	 SCS Opposite-Spin Energy  =      -1.8637143551752287 [Eh]
	 SCS Correlation Energy    =      -2.0386627380878810 [Eh]
	 SCS Total Energy          =    -815.0485703363679022 [Eh]
	-----------------------------------------------------------

  Dipole Moment: [D]
     X:    -0.8331      Y:     0.1876      Z:    -0.0000     Total:     0.8539

*** Psi4 exiting successfully. Buy a developer a beer!
