                               Psi4 1.3.2 release

  ==> Input File <==

--------------------------------------------------------------------------
#psi4
#
memory 32 gb

molecule  {
0 1
  S        1.7618360    -1.1877300    -0.0001100
  N       -1.2754517    -1.0783223     0.0000874
  N        1.4363420     1.3812950    -0.0000570
  C       -0.6888070     0.1366280     0.0000400
  C        0.7702180     0.2369850    -0.0000350
  C       -1.4868030     1.2893490     0.0000580
  C       -2.8690220     1.1312400     0.0001290
  C       -3.4040470    -0.1590480     0.0001760
  C       -2.5262420    -1.2439110     0.0001500
  C        3.1506810    -0.1849920    -0.0001670
  C        2.7828300     1.1426020    -0.0001250
  H       -1.0124600     2.2659460     0.0000190
  H       -3.5213850     2.0011240     0.0001460
  H       -4.4778440    -0.3237170     0.0002310
  H       -2.9027010    -2.2653680     0.0001840
  H        4.1496320    -0.6018500    -0.0002240
  H        3.4730500     1.9793660    -0.0001460
units angstrom
no_reorient  #important for SAPT in psi4, default
symmetry c1  #important for SAPT in psi4, default
}

set PROPERTIES_ORIGIN ["COM"]
properties('MP2/aug-cc-pvtz', properties = ['dipole'])
--------------------------------------------------------------------------

    Molecular point group: c1
  Charge       = 0
  Multiplicity = 1
  Basis Set: AUG-CC-PVTZ
    Blend: AUG-CC-PVTZ
  Basis Set: (AUG-CC-PVTZ AUX)
    Blend: AUG-CC-PVTZ-JKFIT

    Orbital Energies [Eh]
    ---------------------

    Doubly Occupied:

       1A    -91.997009     2A    -15.575161     3A    -15.566160
       4A    -11.316662     5A    -11.296502     6A    -11.274711
       7A    -11.271529     8A    -11.266028     9A    -11.263612
      10A    -11.249433    11A    -11.248542    12A     -8.997076
      13A     -6.677853    14A     -6.677312    15A     -6.676646
      16A     -1.294978    17A     -1.272658    18A     -1.094833
      19A     -1.072908    20A     -1.064800    21A     -0.987248
      22A     -0.882005    23A     -0.865362    24A     -0.792919
      25A     -0.772124    26A     -0.708259    27A     -0.685185
      28A     -0.670757    29A     -0.639621    30A     -0.596723
      31A     -0.588704    32A     -0.585112    33A     -0.560140
      34A     -0.543072    35A     -0.533727    36A     -0.503437
      37A     -0.440653    38A     -0.410738    39A     -0.397725
      40A     -0.395418    41A     -0.376437    42A     -0.305240

  @DF-RHF Final Energy:  -813.00610596991783

   => Energetics <=

    Nuclear Repulsion Energy =            627.9140561123907673
    One-Electron Energy =               -2359.0502917351295764
    Two-Electron Energy =                 918.1301296528208695
    Total Energy =                       -813.0061059699178259
  Basis Set: (AUG-CC-PVTZ AUX)
    Blend: AUG-CC-PVTZ-RI
    Molecular point group: c1

    Geometry (in Angstrom), charge = 0, multiplicity = 1:

       Center              X                  Y                   Z               Mass
    ------------   -----------------  -----------------  -----------------  -----------------
         S            1.743302397935    -1.172510188336    -0.000108965648    31.972071174400
         N           -1.293985302065    -1.063102488336     0.000088434352    14.003074004430
         N            1.417808397935     1.396514811664    -0.000055965648    14.003074004430
         C           -0.707340602065     0.151847811664     0.000041034352    12.000000000000
         C            0.751684397935     0.252204811664    -0.000033965648    12.000000000000
         C           -1.505336602065     1.304568811664     0.000059034352    12.000000000000
         C           -2.887555602065     1.146459811664     0.000130034352    12.000000000000
         C           -3.422580602065    -0.143828188336     0.000177034352    12.000000000000
         C           -2.544775602065    -1.228691188336     0.000151034352    12.000000000000
         C            3.132147397935    -0.169772188336    -0.000165965648    12.000000000000
         C            2.764296397935     1.157821811664    -0.000123965648    12.000000000000
         H           -1.030993602065     2.281165811664     0.000020034352     1.007825032230
         H           -3.539918602065     2.016343811664     0.000147034352     1.007825032230
         H           -4.496377602065    -0.308497188336     0.000232034352     1.007825032230
         H           -2.921234602065    -2.250148188336     0.000185034352     1.007825032230
         H            4.131098397935    -0.586630188336    -0.000222965648     1.007825032230
         H            3.454516397935     1.994585811664    -0.000144965648     1.007825032230

  Basis Set: AUG-CC-PVTZ
    Blend: AUG-CC-PVTZ
  Basis Set: (AUG-CC-PVTZ AUX)
    Blend: AUG-CC-PVTZ-JKFIT
	 Reference Energy          =    -813.0061059699178259 [Eh]
	 Singles Energy            =      -0.0000000000000000 [Eh]
	 Same-Spin Energy          =      -0.5246036470223572 [Eh]
	 Opposite-Spin Energy      =      -1.5511166378334773 [Eh]
	 Correlation Energy        =      -2.0757202848558345 [Eh]
	 Total Energy              =    -815.0818262547736595 [Eh]

	 ================> DF-SCS-MP2 Energies <==================
	-----------------------------------------------------------
	 SCS Same-Spin Scale       =       0.3333333333333333 [-]
	 SCS Opposite-Spin Scale   =       1.2000000000000000 [-]
	 SCS Same-Spin Energy      =      -0.1748678823407857 [Eh]
	 SCS Opposite-Spin Energy  =      -1.8613399654001728 [Eh]
	 SCS Correlation Energy    =      -2.0362078477409584 [Eh]
	 SCS Total Energy          =    -815.0423138176587372 [Eh]
	-----------------------------------------------------------

  Dipole Moment: [D]
     X:    -0.5295      Y:     0.1145      Z:    -0.0000     Total:     0.5417

*** Psi4 exiting successfully. Buy a developer a beer!
