                               Psi4 1.3.2 release

  ==> Input File <==

--------------------------------------------------------------------------
#psi4
#
memory 32 gb

molecule  {
0 1
  S        1.7618360    -1.1877300    -0.0001100
  N       -1.1892720    -1.1162850     0.0000840
  N        1.4562115     1.3694952    -0.0000582
  C       -0.6888070     0.1366280     0.0000400
  C        0.7702180     0.2369850    -0.0000350
  C       -1.4868030     1.2893490     0.0000580
  C       -2.8690220     1.1312400     0.0001290
  C       -3.4040470    -0.1590480     0.0001760
  C       -2.5262420    -1.2439110     0.0001500
  C        3.1506810    -0.1849920    -0.0001670
  C        2.7828300     1.1426020    -0.0001250
  H       -1.0124600     2.2659460     0.0000190
  H       -3.5213850     2.0011240     0.0001460
  H       -4.4778440    -0.3237170     0.0002310
  H       -2.9027010    -2.2653680     0.0001840
  H        4.1496320    -0.6018500    -0.0002240
  H        3.4730500     1.9793660    -0.0001460
units angstrom
no_reorient  #important for SAPT in psi4, default
symmetry c1  #important for SAPT in psi4, default
}

set PROPERTIES_ORIGIN ["COM"]
properties('MP2/aug-cc-pvtz', properties = ['dipole'])
--------------------------------------------------------------------------

    Molecular point group: c1
  Charge       = 0
  Multiplicity = 1
  Basis Set: AUG-CC-PVTZ
    Blend: AUG-CC-PVTZ
  Basis Set: (AUG-CC-PVTZ AUX)
    Blend: AUG-CC-PVTZ-JKFIT

    Orbital Energies [Eh]
    ---------------------

    Doubly Occupied:

       1A    -91.995780     2A    -15.578964     3A    -15.571821
       4A    -11.313290     5A    -11.298021     6A    -11.285697
       7A    -11.267992     8A    -11.267740     9A    -11.264256
      10A    -11.251372    11A    -11.250103    12A     -8.995741
      13A     -6.676488    14A     -6.675964    15A     -6.675318
      16A     -1.290459    17A     -1.262140    18A     -1.096643
      19A     -1.068469    20A     -1.062527    21A     -0.987590
      22A     -0.877097    23A     -0.869490    24A     -0.793017
      25A     -0.766316    26A     -0.707670    27A     -0.680843
      28A     -0.669013    29A     -0.640899    30A     -0.595344
      31A     -0.589111    32A     -0.582594    33A     -0.558051
      34A     -0.537268    35A     -0.529748    36A     -0.502328
      37A     -0.442101    38A     -0.423744    39A     -0.398414
      40A     -0.392787    41A     -0.372867    42A     -0.305762

  @DF-RHF Final Energy:  -813.00942297005997

   => Energetics <=

    Nuclear Repulsion Energy =            627.2881863774257454
    One-Electron Energy =               -2357.8535389914909501
    Two-Electron Energy =                 917.5559296440052321
    Total Energy =                       -813.0094229700599726
  Basis Set: (AUG-CC-PVTZ AUX)
    Blend: AUG-CC-PVTZ-RI
    Molecular point group: c1

    Geometry (in Angstrom), charge = 0, multiplicity = 1:

       Center              X                  Y                   Z               Mass
    ------------   -----------------  -----------------  -----------------  -----------------
         S            1.734137063923    -1.168209449304    -0.000108568091    31.972071174400
         N           -1.216970936077    -1.096764449304     0.000085431909    14.003074004430
         N            1.428512563923     1.389015750696    -0.000056768091    14.003074004430
         C           -0.716505936077     0.156148550696     0.000041431909    12.000000000000
         C            0.742519063923     0.256505550696    -0.000033568091    12.000000000000
         C           -1.514501936077     1.308869550696     0.000059431909    12.000000000000
         C           -2.896720936077     1.150760550696     0.000130431909    12.000000000000
         C           -3.431745936077    -0.139527449304     0.000177431909    12.000000000000
         C           -2.553940936077    -1.224390449304     0.000151431909    12.000000000000
         C            3.122982063923    -0.165471449304    -0.000165568091    12.000000000000
         C            2.755131063923     1.162122550696    -0.000123568091    12.000000000000
         H           -1.040158936077     2.285466550696     0.000020431909     1.007825032230
         H           -3.549083936077     2.020644550696     0.000147431909     1.007825032230
         H           -4.505542936077    -0.304196449304     0.000232431909     1.007825032230
         H           -2.930399936077    -2.245847449304     0.000185431909     1.007825032230
         H            4.121933063923    -0.582329449304    -0.000222568091     1.007825032230
         H            3.445351063923     1.998886550696    -0.000144568091     1.007825032230

  Basis Set: AUG-CC-PVTZ
    Blend: AUG-CC-PVTZ
  Basis Set: (AUG-CC-PVTZ AUX)
    Blend: AUG-CC-PVTZ-JKFIT
	 Reference Energy          =    -813.0094229700599726 [Eh]
	 Singles Energy            =      -0.0000000000000000 [Eh]
	 Same-Spin Energy          =      -0.5256585488032366 [Eh]
	 Opposite-Spin Energy      =      -1.5534271750602171 [Eh]
	 Correlation Energy        =      -2.0790857238634537 [Eh]
	 Total Energy              =    -815.0885086939234725 [Eh]

	 ================> DF-SCS-MP2 Energies <==================
	-----------------------------------------------------------
	 SCS Same-Spin Scale       =       0.3333333333333333 [-]
	 SCS Opposite-Spin Scale   =       1.2000000000000000 [-]
	 SCS Same-Spin Energy      =      -0.1752195162677455 [Eh]
	 SCS Opposite-Spin Energy  =      -1.8641126100722605 [Eh]
	 SCS Correlation Energy    =      -2.0393321263400059 [Eh]
	 SCS Total Energy          =    -815.0487550963999865 [Eh]
	-----------------------------------------------------------

  Dipole Moment: [D]
     X:    -0.8189      Y:     0.2243      Z:    -0.0000     Total:     0.8491

*** Psi4 exiting successfully. Buy a developer a beer!
