                               Psi4 1.4a3.dev225

  ==> Input File <==

--------------------------------------------------------------------------
#psi4
#
memory 32 gb

molecule  {
0 1
  S        1.7618360    -1.1877300    -0.0001100
  N       -1.1892720    -1.1162850     0.0000840
  N        1.4363420     1.3812950    -0.0000570
  C       -0.6888070     0.1366280     0.0000400
  C        0.7702180     0.2369850    -0.0000350
  C       -1.4868030     1.2893490     0.0000580
  C       -2.8690220     1.1312400     0.0001290
  C       -3.4040470    -0.1590480     0.0001760
  C       -2.5262420    -1.2439110     0.0001500
  C        3.1668963    -0.1732846    -0.0001677
  C        2.7828300     1.1426020    -0.0001250
  H       -1.0124600     2.2659460     0.0000190
  H       -3.5213850     2.0011240     0.0001460
  H       -4.4778440    -0.3237170     0.0002310
  H       -2.9027010    -2.2653680     0.0001840
  H        4.1496320    -0.6018500    -0.0002240
  H        3.4730500     1.9793660    -0.0001460
units angstrom
no_reorient  #important for SAPT in psi4, default
symmetry c1  #important for SAPT in psi4, default
}

set PROPERTIES_ORIGIN ["COM"]
properties('MP2/aug-cc-pvtz', properties = ['dipole'])
--------------------------------------------------------------------------

    Molecular point group: c1
  Charge       = 0
  Multiplicity = 1
  Basis Set: AUG-CC-PVTZ
    Blend: AUG-CC-PVTZ
  Basis Set: (AUG-CC-PVTZ AUX)
    Blend: AUG-CC-PVTZ-JKFIT

    Orbital Energies [Eh]
    ---------------------

    Doubly Occupied:

       1A    -91.994772     2A    -15.579416     3A    -15.574015
       4A    -11.314957     5A    -11.297687     6A    -11.285764
       7A    -11.269903     8A    -11.267891     9A    -11.264691
      10A    -11.251930    11A    -11.250508    12A     -8.994497
      13A     -6.675246    14A     -6.674702    15A     -6.674053
      16A     -1.287315    17A     -1.260375    18A     -1.096865
      19A     -1.068592    20A     -1.059269    21A     -0.987781
      22A     -0.877868    23A     -0.869501    24A     -0.792173
      25A     -0.766471    26A     -0.707642    27A     -0.680329
      28A     -0.669922    29A     -0.639794    30A     -0.594079
      31A     -0.588344    32A     -0.581224    33A     -0.560091
      34A     -0.535815    35A     -0.529527    36A     -0.499321
      37A     -0.444387    38A     -0.424415    39A     -0.398637
      40A     -0.391526    41A     -0.371910    42A     -0.308794

  @DF-RHF Final Energy:  -813.00975596549256

   => Energetics <=

    Nuclear Repulsion Energy =            626.5784775639498321
    One-Electron Energy =               -2356.4524750676341682
    Two-Electron Energy =                 916.8642415381916635
    Total Energy =                       -813.0097559654925590
  Basis Set: (AUG-CC-PVTZ AUX)
    Blend: AUG-CC-PVTZ-RI
    Molecular point group: c1

    Geometry (in Angstrom), charge = 0, multiplicity = 1:

       Center              X                  Y                   Z               Mass
    ------------   -----------------  -----------------  -----------------  -----------------
         S            1.734653344691    -1.170096330668    -0.000108619958    31.972071174400
         N           -1.216454655309    -1.098651330668     0.000085380042    14.003074004430
         N            1.409159344691     1.398928669332    -0.000055619958    14.003074004430
         C           -0.715989655309     0.154261669332     0.000041380042    12.000000000000
         C            0.743035344691     0.254618669332    -0.000033619958    12.000000000000
         C           -1.513985655309     1.306982669332     0.000059380042    12.000000000000
         C           -2.896204655309     1.148873669332     0.000130380042    12.000000000000
         C           -3.431229655309    -0.141414330668     0.000177380042    12.000000000000
         C           -2.553424655309    -1.226277330668     0.000151380042    12.000000000000
         C            3.139713644691    -0.155650930668    -0.000166319958    12.000000000000
         C            2.755647344691     1.160235669332    -0.000123619958    12.000000000000
         H           -1.039642655309     2.283579669332     0.000020380042     1.007825032230
         H           -3.548567655309     2.018757669332     0.000147380042     1.007825032230
         H           -4.505026655309    -0.306083330668     0.000232380042     1.007825032230
         H           -2.929883655309    -2.247734330668     0.000185380042     1.007825032230
         H            4.122449344691    -0.584216330668    -0.000222619958     1.007825032230
         H            3.445867344691     1.996999669332    -0.000144619958     1.007825032230

  Basis Set: AUG-CC-PVTZ
    Blend: AUG-CC-PVTZ
  Basis Set: (AUG-CC-PVTZ AUX)
    Blend: AUG-CC-PVTZ-JKFIT
	 Reference Energy          =    -813.0097559654925590 [Eh]
	 Singles Energy            =      -0.0000000000000000 [Eh]
	 Same-Spin Energy          =      -0.5249561755349179 [Eh]
	 Opposite-Spin Energy      =      -1.5533779456318515 [Eh]
	 Correlation Energy        =      -2.0783341211667694 [Eh]
	 Total Energy              =    -815.0880900866593493 [Eh]

	 ================> DF-SCS-MP2 Energies <==================
	-----------------------------------------------------------
	 SCS Same-Spin Scale       =       0.3333333333333333 [-]
	 SCS Opposite-Spin Scale   =       1.2000000000000000 [-]
	 SCS Same-Spin Energy      =      -0.1749853918449726 [Eh]
	 SCS Opposite-Spin Energy  =      -1.8640535347582217 [Eh]
	 SCS Correlation Energy    =      -2.0390389266031943 [Eh]
	 SCS Total Energy          =    -815.0487948920957706 [Eh]
	-----------------------------------------------------------

  Dipole Moment: [D]
     X:    -0.8227      Y:     0.2116      Z:    -0.0000     Total:     0.8495

*** Psi4 exiting successfully. Buy a developer a beer!
