                               Psi4 1.3.2 release

  ==> Input File <==

--------------------------------------------------------------------------
#psi4
#
memory 32 gb

molecule  {
0 1
  S        1.7618360    -1.1877300    -0.0001100
  N       -1.1892720    -1.1162850     0.0000840
  N        1.4363420     1.3812950    -0.0000570
  C       -0.6888070     0.1366280     0.0000400
  C        0.7199093     0.1505614    -0.0000333
  C       -1.4868030     1.2893490     0.0000580
  C       -2.8690220     1.1312400     0.0001290
  C       -3.4040470    -0.1590480     0.0001760
  C       -2.5262420    -1.2439110     0.0001500
  C        3.1506810    -0.1849920    -0.0001670
  C        2.7828300     1.1426020    -0.0001250
  H       -1.0124600     2.2659460     0.0000190
  H       -3.5213850     2.0011240     0.0001460
  H       -4.4778440    -0.3237170     0.0002310
  H       -2.9027010    -2.2653680     0.0001840
  H        4.1496320    -0.6018500    -0.0002240
  H        3.4730500     1.9793660    -0.0001460
units angstrom
no_reorient  #important for SAPT in psi4, default
symmetry c1  #important for SAPT in psi4, default
}

set PROPERTIES_ORIGIN ["COM"]
properties('MP2/aug-cc-pvtz', properties = ['dipole'])
--------------------------------------------------------------------------

    Molecular point group: c1
  Charge       = 0
  Multiplicity = 1
  Basis Set: AUG-CC-PVTZ
    Blend: AUG-CC-PVTZ
  Basis Set: (AUG-CC-PVTZ AUX)
    Blend: AUG-CC-PVTZ-JKFIT

    Orbital Energies [Eh]
    ---------------------

    Doubly Occupied:

       1A    -92.003982     2A    -15.577394     3A    -15.577007
       4A    -11.314848     5A    -11.293846     6A    -11.284711
       7A    -11.271247     8A    -11.267858     9A    -11.263899
      10A    -11.251525    11A    -11.251209    12A     -9.003834
      13A     -6.684599    14A     -6.684156    15A     -6.683533
      16A     -1.279828    17A     -1.245687    18A     -1.097760
      19A     -1.073599    20A     -1.060138    21A     -0.986520
      22A     -0.883249    23A     -0.870266    24A     -0.782639
      25A     -0.768844    26A     -0.706150    27A     -0.678051
      28A     -0.670387    29A     -0.639947    30A     -0.595119
      31A     -0.583924    32A     -0.579538    33A     -0.558193
      34A     -0.532398    35A     -0.531574    36A     -0.504269
      37A     -0.438833    38A     -0.427430    39A     -0.400803
      40A     -0.386355    41A     -0.375638    42A     -0.299432

  @DF-RHF Final Energy:  -812.99078605555417

   => Energetics <=

    Nuclear Repulsion Energy =            627.1168661857875577
    One-Electron Energy =               -2357.4748632217110753
    Two-Electron Energy =                 917.3672109803693502
    Total Energy =                       -812.9907860555541674
  Basis Set: (AUG-CC-PVTZ AUX)
    Blend: AUG-CC-PVTZ-RI
    Molecular point group: c1

    Geometry (in Angstrom), charge = 0, multiplicity = 1:

       Center              X                  Y                   Z               Mass
    ------------   -----------------  -----------------  -----------------  -----------------
         S            1.739580282914    -1.162828496883    -0.000108797708    31.972071174400
         N           -1.211527717086    -1.091383496883     0.000085202292    14.003074004430
         N            1.414086282914     1.406196503117    -0.000055797708    14.003074004430
         C           -0.711062717086     0.161529503117     0.000041202292    12.000000000000
         C            0.697653582914     0.175462903117    -0.000032097708    12.000000000000
         C           -1.509058717086     1.314250503117     0.000059202292    12.000000000000
         C           -2.891277717086     1.156141503117     0.000130202292    12.000000000000
         C           -3.426302717086    -0.134146496883     0.000177202292    12.000000000000
         C           -2.548497717086    -1.219009496883     0.000151202292    12.000000000000
         C            3.128425282914    -0.160090496883    -0.000165797708    12.000000000000
         C            2.760574282914     1.167503503117    -0.000123797708    12.000000000000
         H           -1.034715717086     2.290847503117     0.000020202292     1.007825032230
         H           -3.543640717086     2.026025503117     0.000147202292     1.007825032230
         H           -4.500099717086    -0.298815496883     0.000232202292     1.007825032230
         H           -2.924956717086    -2.240466496883     0.000185202292     1.007825032230
         H            4.127376282914    -0.576948496883    -0.000222797708     1.007825032230
         H            3.450794282914     2.004267503117    -0.000144797708     1.007825032230

  Basis Set: AUG-CC-PVTZ
    Blend: AUG-CC-PVTZ
  Basis Set: (AUG-CC-PVTZ AUX)
    Blend: AUG-CC-PVTZ-JKFIT
	 Reference Energy          =    -812.9907860555541674 [Eh]
	 Singles Energy            =      -0.0000000000000000 [Eh]
	 Same-Spin Energy          =      -0.5286925878991149 [Eh]
	 Opposite-Spin Energy      =      -1.5586060999704188 [Eh]
	 Correlation Energy        =      -2.0872986878695334 [Eh]
	 Total Energy              =    -815.0780847434236875 [Eh]

	 ================> DF-SCS-MP2 Energies <==================
	-----------------------------------------------------------
	 SCS Same-Spin Scale       =       0.3333333333333333 [-]
	 SCS Opposite-Spin Scale   =       1.2000000000000000 [-]
	 SCS Same-Spin Energy      =      -0.1762308626330383 [Eh]
	 SCS Opposite-Spin Energy  =      -1.8703273199645025 [Eh]
	 SCS Correlation Energy    =      -2.0465581825975407 [Eh]
	 SCS Total Energy          =    -815.0373442381517179 [Eh]
	-----------------------------------------------------------

  Dipole Moment: [D]
     X:    -0.5668      Y:     0.0611      Z:    -0.0000     Total:     0.5701

*** Psi4 exiting successfully. Buy a developer a beer!
