                               Psi4 1.3.2 release

  ==> Input File <==

--------------------------------------------------------------------------
#psi4
#
memory 32 gb

molecule  {
0 1
  S        1.7618360    -1.1877300    -0.0001100
  N       -1.1892720    -1.1162850     0.0000840
  N        1.4363420     1.3812950    -0.0000570
  C       -0.6888070     0.1366280     0.0000400
  C        0.7702180     0.2369850    -0.0000350
  C       -1.4868030     1.2893490     0.0000580
  C       -2.8690220     1.1312400     0.0001290
  C       -3.4040470    -0.1590480     0.0001760
  C       -2.5262420    -1.2439110     0.0001500
  C        3.1506810    -0.1849920    -0.0001670
  C        2.5859003     1.1775119    -0.0001151
  H       -1.0124600     2.2659460     0.0000190
  H       -3.5213850     2.0011240     0.0001460
  H       -4.4778440    -0.3237170     0.0002310
  H       -2.9027010    -2.2653680     0.0001840
  H        4.1496320    -0.6018500    -0.0002240
  H        3.4730500     1.9793660    -0.0001460
units angstrom
no_reorient  #important for SAPT in psi4, default
symmetry c1  #important for SAPT in psi4, default
}

set PROPERTIES_ORIGIN ["COM"]
properties('MP2/aug-cc-pvtz', properties = ['dipole'])
--------------------------------------------------------------------------

    Molecular point group: c1
  Charge       = 0
  Multiplicity = 1
  Basis Set: AUG-CC-PVTZ
    Blend: AUG-CC-PVTZ
  Basis Set: (AUG-CC-PVTZ AUX)
    Blend: AUG-CC-PVTZ-JKFIT

    Orbital Energies [Eh]
    ---------------------

    Doubly Occupied:

       1A    -92.008678     2A    -15.574672     3A    -15.566074
       4A    -11.311674     5A    -11.296357     6A    -11.284252
       7A    -11.275396     8A    -11.269341     9A    -11.266304
      10A    -11.247727    11A    -11.247287    12A     -9.007221
      13A     -6.687717    14A     -6.687415    15A     -6.687038
      16A     -1.348143    17A     -1.265779    18A     -1.096547
      19A     -1.084640    20A     -1.061773    21A     -0.976126
      22A     -0.870984    23A     -0.864956    24A     -0.810769
      25A     -0.755854    26A     -0.719316    27A     -0.676458
      28A     -0.667922    29A     -0.638115    30A     -0.603528
      31A     -0.601378    32A     -0.589706    33A     -0.560004
      34A     -0.544850    35A     -0.527601    36A     -0.485264
      37A     -0.429753    38A     -0.426570    39A     -0.414774
      40A     -0.394213    41A     -0.374779    42A     -0.284542

  @DF-RHF Final Energy:  -812.94588583130610

   => Energetics <=

    Nuclear Repulsion Energy =            630.5072791366408183
    One-Electron Energy =               -2363.9233388450070379
    Two-Electron Energy =                 920.4701738770601196
    Total Energy =                       -812.9458858313061000
  Basis Set: (AUG-CC-PVTZ AUX)
    Blend: AUG-CC-PVTZ-RI
    Molecular point group: c1

    Geometry (in Angstrom), charge = 0, multiplicity = 1:

       Center              X                  Y                   Z               Mass
    ------------   -----------------  -----------------  -----------------  -----------------
         S            1.750439410584    -1.171814767384    -0.000109405021    31.972071174400
         N           -1.200668589416    -1.100369767384     0.000084594979    14.003074004430
         N            1.424945410584     1.397210232616    -0.000056405021    14.003074004430
         C           -0.700203589416     0.152543232616     0.000040594979    12.000000000000
         C            0.758821410584     0.252900232616    -0.000034405021    12.000000000000
         C           -1.498199589416     1.305264232616     0.000058594979    12.000000000000
         C           -2.880418589416     1.147155232616     0.000129594979    12.000000000000
         C           -3.415443589416    -0.143132767384     0.000176594979    12.000000000000
         C           -2.537638589416    -1.227995767384     0.000150594979    12.000000000000
         C            3.139284410584    -0.169076767384    -0.000166405021    12.000000000000
         C            2.574503710584     1.193427132616    -0.000114505021    12.000000000000
         H           -1.023856589416     2.281861232616     0.000019594979     1.007825032230
         H           -3.532781589416     2.017039232616     0.000146594979     1.007825032230
         H           -4.489240589416    -0.307801767384     0.000231594979     1.007825032230
         H           -2.914097589416    -2.249452767384     0.000184594979     1.007825032230
         H            4.138235410584    -0.585934767384    -0.000223405021     1.007825032230
         H            3.461653410584     1.995281232616    -0.000145405021     1.007825032230

  Basis Set: AUG-CC-PVTZ
    Blend: AUG-CC-PVTZ
  Basis Set: (AUG-CC-PVTZ AUX)
    Blend: AUG-CC-PVTZ-JKFIT
	 Reference Energy          =    -812.9458858313061000 [Eh]
	 Singles Energy            =      -0.0000000000000000 [Eh]
	 Same-Spin Energy          =      -0.5304341162315307 [Eh]
	 Opposite-Spin Energy      =      -1.5581249901487408 [Eh]
	 Correlation Energy        =      -2.0885591063802718 [Eh]
	 Total Energy              =    -815.0344449376863167 [Eh]

	 ================> DF-SCS-MP2 Energies <==================
	-----------------------------------------------------------
	 SCS Same-Spin Scale       =       0.3333333333333333 [-]
	 SCS Opposite-Spin Scale   =       1.2000000000000000 [-]
	 SCS Same-Spin Energy      =      -0.1768113720771769 [Eh]
	 SCS Opposite-Spin Energy  =      -1.8697499881784889 [Eh]
	 SCS Correlation Energy    =      -2.0465613602556658 [Eh]
	 SCS Total Energy          =    -814.9924471915617232 [Eh]
	-----------------------------------------------------------

  Dipole Moment: [D]
     X:    -0.6190      Y:     0.1619      Z:    -0.0000     Total:     0.6398

*** Psi4 exiting successfully. Buy a developer a beer!
