                               Psi4 1.3.2 release

  ==> Input File <==

--------------------------------------------------------------------------
#psi4
#
memory 32 gb

molecule  {
0 1
  S        1.7618360    -1.1877300    -0.0001100
  N       -1.1892720    -1.1162850     0.0000840
  N        1.4363420     1.3812950    -0.0000570
  C       -0.7774249     0.1684866     0.0000437
  C        0.7702180     0.2369850    -0.0000350
  C       -1.4868030     1.2893490     0.0000580
  C       -2.8690220     1.1312400     0.0001290
  C       -3.4040470    -0.1590480     0.0001760
  C       -2.5262420    -1.2439110     0.0001500
  C        3.1506810    -0.1849920    -0.0001670
  C        2.7828300     1.1426020    -0.0001250
  H       -1.0124600     2.2659460     0.0000190
  H       -3.5213850     2.0011240     0.0001460
  H       -4.4778440    -0.3237170     0.0002310
  H       -2.9027010    -2.2653680     0.0001840
  H        4.1496320    -0.6018500    -0.0002240
  H        3.4730500     1.9793660    -0.0001460
units angstrom
no_reorient  #important for SAPT in psi4, default
symmetry c1  #important for SAPT in psi4, default
}

set PROPERTIES_ORIGIN ["COM"]
properties('MP2/aug-cc-pvtz', properties = ['dipole'])
--------------------------------------------------------------------------

    Molecular point group: c1
  Charge       = 0
  Multiplicity = 1
  Basis Set: AUG-CC-PVTZ
    Blend: AUG-CC-PVTZ
  Basis Set: (AUG-CC-PVTZ AUX)
    Blend: AUG-CC-PVTZ-JKFIT

    Orbital Energies [Eh]
    ---------------------

    Doubly Occupied:

       1A    -91.993291     2A    -15.580889     3A    -15.569477
       4A    -11.314211     5A    -11.294668     6A    -11.288535
       7A    -11.271606     8A    -11.266933     9A    -11.261053
      10A    -11.251865    11A    -11.242321    12A     -8.993213
      13A     -6.673983    14A     -6.673465    15A     -6.672781
      16A     -1.285880    17A     -1.263509    18A     -1.105003
      19A     -1.065751    20A     -1.059405    21A     -0.984417
      22A     -0.879256    23A     -0.866803    24A     -0.788429
      25A     -0.760736    26A     -0.707365    27A     -0.677143
      28A     -0.672258    29A     -0.643548    30A     -0.594958
      31A     -0.582965    32A     -0.579313    33A     -0.558905
      34A     -0.539799    35A     -0.514033    36A     -0.500888
      37A     -0.449069    38A     -0.426671    39A     -0.394819
      40A     -0.393287    41A     -0.373753    42A     -0.312596

  @DF-RHF Final Energy:  -813.00082021394815

   => Energetics <=

    Nuclear Repulsion Energy =            626.7609227096246514
    One-Electron Energy =               -2356.8657936814870482
    Two-Electron Energy =                 917.1040507579143650
    Total Energy =                       -813.0008202139481455
  Basis Set: (AUG-CC-PVTZ AUX)
    Blend: AUG-CC-PVTZ-RI
    Molecular point group: c1

    Geometry (in Angstrom), charge = 0, multiplicity = 1:

       Center              X                  Y                   Z               Mass
    ------------   -----------------  -----------------  -----------------  -----------------
         S            1.742417560614    -1.171588780273    -0.000108945833    31.972071174400
         N           -1.208690439386    -1.100143780273     0.000085054167    14.003074004430
         N            1.416923560614     1.397436219727    -0.000055945833    14.003074004430
         C           -0.796843339386     0.184627819727     0.000044754167    12.000000000000
         C            0.750799560614     0.253126219727    -0.000033945833    12.000000000000
         C           -1.506221439386     1.305490219727     0.000059054167    12.000000000000
         C           -2.888440439386     1.147381219727     0.000130054167    12.000000000000
         C           -3.423465439386    -0.142906780273     0.000177054167    12.000000000000
         C           -2.545660439386    -1.227769780273     0.000151054167    12.000000000000
         C            3.131262560614    -0.168850780273    -0.000165945833    12.000000000000
         C            2.763411560614     1.158743219727    -0.000123945833    12.000000000000
         H           -1.031878439386     2.282087219727     0.000020054167     1.007825032230
         H           -3.540803439386     2.017265219727     0.000147054167     1.007825032230
         H           -4.497262439386    -0.307575780273     0.000232054167     1.007825032230
         H           -2.922119439386    -2.249226780273     0.000185054167     1.007825032230
         H            4.130213560614    -0.585708780273    -0.000222945833     1.007825032230
         H            3.453631560614     1.995507219727    -0.000144945833     1.007825032230

  Basis Set: AUG-CC-PVTZ
    Blend: AUG-CC-PVTZ
  Basis Set: (AUG-CC-PVTZ AUX)
    Blend: AUG-CC-PVTZ-JKFIT
	 Reference Energy          =    -813.0008202139481455 [Eh]
	 Singles Energy            =      -0.0000000000000000 [Eh]
	 Same-Spin Energy          =      -0.5242564792565140 [Eh]
	 Opposite-Spin Energy      =      -1.5525191513979038 [Eh]
	 Correlation Energy        =      -2.0767756306544176 [Eh]
	 Total Energy              =    -815.0775958446025697 [Eh]

	 ================> DF-SCS-MP2 Energies <==================
	-----------------------------------------------------------
	 SCS Same-Spin Scale       =       0.3333333333333333 [-]
	 SCS Opposite-Spin Scale   =       1.2000000000000000 [-]
	 SCS Same-Spin Energy      =      -0.1747521597521713 [Eh]
	 SCS Opposite-Spin Energy  =      -1.8630229816774844 [Eh]
	 SCS Correlation Energy    =      -2.0377751414296559 [Eh]
	 SCS Total Energy          =    -815.0385953553777654 [Eh]
	-----------------------------------------------------------

  Dipole Moment: [D]
     X:    -1.1629      Y:     0.1876      Z:     0.0000     Total:     1.1779

*** Psi4 exiting successfully. Buy a developer a beer!
