                               Psi4 1.3.2 release

  ==> Input File <==

--------------------------------------------------------------------------
#psi4
#
memory 32 gb

molecule  {
0 1
  S        1.7618360    -1.1877300    -0.0001100
  N       -1.1892720    -1.1162850     0.0000840
  N        1.4363420     1.3812950    -0.0000570
  C       -0.6888070     0.1366280     0.0000400
  C        0.7702180     0.2369850    -0.0000350
  C       -1.4868030     1.2893490     0.0000580
  C       -2.8690220     1.1312400     0.0001290
  C       -3.4040470    -0.1590480     0.0001760
  C       -2.4266945    -1.2344083     0.0001451
  C        3.1506810    -0.1849920    -0.0001670
  C        2.7828300     1.1426020    -0.0001250
  H       -1.0124600     2.2659460     0.0000190
  H       -3.5213850     2.0011240     0.0001460
  H       -4.4778440    -0.3237170     0.0002310
  H       -2.9027010    -2.2653680     0.0001840
  H        4.1496320    -0.6018500    -0.0002240
  H        3.4730500     1.9793660    -0.0001460
units angstrom
no_reorient  #important for SAPT in psi4, default
symmetry c1  #important for SAPT in psi4, default
}

set PROPERTIES_ORIGIN ["COM"]
properties('MP2/aug-cc-pvtz', properties = ['dipole'])
--------------------------------------------------------------------------

    Molecular point group: c1
  Charge       = 0
  Multiplicity = 1
  Basis Set: AUG-CC-PVTZ
    Blend: AUG-CC-PVTZ
  Basis Set: (AUG-CC-PVTZ AUX)
    Blend: AUG-CC-PVTZ-JKFIT

    Orbital Energies [Eh]
    ---------------------

    Doubly Occupied:

       1A    -91.995811     2A    -15.573031     3A    -15.572509
       4A    -11.313727     5A    -11.296945     6A    -11.286555
       7A    -11.270219     8A    -11.265845     9A    -11.264480
      10A    -11.255686    11A    -11.250383    12A     -8.995865
      13A     -6.676637    14A     -6.676092    15A     -6.675425
      16A     -1.303708    17A     -1.273848    18A     -1.101550
      19A     -1.066875    20A     -1.063684    21A     -0.981839
      22A     -0.883795    23A     -0.861889    24A     -0.791477
      25A     -0.766936    26A     -0.707147    27A     -0.681507
      28A     -0.675895    29A     -0.632579    30A     -0.589962
      31A     -0.587806    32A     -0.587190    33A     -0.561958
      34A     -0.543365    35A     -0.532174    36A     -0.502095
      37A     -0.439773    38A     -0.419063    39A     -0.404314
      40A     -0.395066    41A     -0.373839    42A     -0.301979

  @DF-RHF Final Energy:  -812.99931423014891

   => Energetics <=

    Nuclear Repulsion Energy =            628.6199644821132324
    One-Electron Energy =               -2360.4375082912424659
    Two-Electron Energy =                 918.8182295789804357
    Total Energy =                       -812.9993142301489115
  Basis Set: (AUG-CC-PVTZ AUX)
    Blend: AUG-CC-PVTZ-RI
    Molecular point group: c1

    Geometry (in Angstrom), charge = 0, multiplicity = 1:

       Center              X                  Y                   Z               Mass
    ------------   -----------------  -----------------  -----------------  -----------------
         S            1.728481548026    -1.169933044926    -0.000108308895    31.972071174400
         N           -1.222626451974    -1.098488044926     0.000085691105    14.003074004430
         N            1.402987548026     1.399091955074    -0.000055308895    14.003074004430
         C           -0.722161451974     0.154424955074     0.000041691105    12.000000000000
         C            0.736863548026     0.254781955074    -0.000033308895    12.000000000000
         C           -1.520157451974     1.307145955074     0.000059691105    12.000000000000
         C           -2.902376451974     1.149036955074     0.000130691105    12.000000000000
         C           -3.437401451974    -0.141251044926     0.000177691105    12.000000000000
         C           -2.460048951974    -1.216611344926     0.000146791105    12.000000000000
         C            3.117326548026    -0.167195044926    -0.000165308895    12.000000000000
         C            2.749475548026     1.160398955074    -0.000123308895    12.000000000000
         H           -1.045814451974     2.283742955074     0.000020691105     1.007825032230
         H           -3.554739451974     2.018920955074     0.000147691105     1.007825032230
         H           -4.511198451974    -0.305920044926     0.000232691105     1.007825032230
         H           -2.936055451974    -2.247571044926     0.000185691105     1.007825032230
         H            4.116277548026    -0.584053044926    -0.000222308895     1.007825032230
         H            3.439695548026     1.997162955074    -0.000144308895     1.007825032230

  Basis Set: AUG-CC-PVTZ
    Blend: AUG-CC-PVTZ
  Basis Set: (AUG-CC-PVTZ AUX)
    Blend: AUG-CC-PVTZ-JKFIT
	 Reference Energy          =    -812.9993142301489115 [Eh]
	 Singles Energy            =      -0.0000000000000000 [Eh]
	 Same-Spin Energy          =      -0.5244559504549611 [Eh]
	 Opposite-Spin Energy      =      -1.5520409081424460 [Eh]
	 Correlation Energy        =      -2.0764968585974071 [Eh]
	 Total Energy              =    -815.0758110887462635 [Eh]

	 ================> DF-SCS-MP2 Energies <==================
	-----------------------------------------------------------
	 SCS Same-Spin Scale       =       0.3333333333333333 [-]
	 SCS Opposite-Spin Scale   =       1.2000000000000000 [-]
	 SCS Same-Spin Energy      =      -0.1748186501516537 [Eh]
	 SCS Opposite-Spin Energy  =      -1.8624490897709352 [Eh]
	 SCS Correlation Energy    =      -2.0372677399225889 [Eh]
	 SCS Total Energy          =    -815.0365819700715520 [Eh]
	-----------------------------------------------------------

  Dipole Moment: [D]
     X:    -0.7129      Y:     0.1947      Z:    -0.0000     Total:     0.7390

*** Psi4 exiting successfully. Buy a developer a beer!
