                               Psi4 1.4a3.dev225

  ==> Input File <==

--------------------------------------------------------------------------
#psi4
#
memory 32 gb

molecule  {
0 1
  S        1.7618360    -1.1877300    -0.0001100
  N       -1.1892720    -1.1162850     0.0000840
  N        1.4363420     1.3812950    -0.0000570
  C       -0.6888070     0.1366280     0.0000400
  C        0.7587927     0.2534003    -0.0000341
  C       -1.4868030     1.2893490     0.0000580
  C       -2.8690220     1.1312400     0.0001290
  C       -3.4040470    -0.1590480     0.0001760
  C       -2.5262420    -1.2439110     0.0001500
  C        3.1506810    -0.1849920    -0.0001670
  C        2.7828300     1.1426020    -0.0001250
  H       -1.0124600     2.2659460     0.0000190
  H       -3.5213850     2.0011240     0.0001460
  H       -4.4778440    -0.3237170     0.0002310
  H       -2.9027010    -2.2653680     0.0001840
  H        4.1496320    -0.6018500    -0.0002240
  H        3.4730500     1.9793660    -0.0001460
units angstrom
no_reorient  #important for SAPT in psi4, default
symmetry c1  #important for SAPT in psi4, default
}

set PROPERTIES_ORIGIN ["COM"]
properties('MP2/aug-cc-pvtz', properties = ['dipole'])
--------------------------------------------------------------------------

    Molecular point group: c1
  Charge       = 0
  Multiplicity = 1
  Basis Set: AUG-CC-PVTZ
    Blend: AUG-CC-PVTZ
  Basis Set: (AUG-CC-PVTZ AUX)
    Blend: AUG-CC-PVTZ-JKFIT

    Orbital Energies [Eh]
    ---------------------

    Doubly Occupied:

       1A    -91.993910     2A    -15.579596     3A    -15.574597
       4A    -11.314125     5A    -11.297122     6A    -11.285992
       7A    -11.270025     8A    -11.267861     9A    -11.265796
      10A    -11.251901    11A    -11.250316    12A     -8.993686
      13A     -6.674450    14A     -6.673878    15A     -6.673236
      16A     -1.288627    17A     -1.261038    18A     -1.096863
      19A     -1.070342    20A     -1.060691    21A     -0.985761
      22A     -0.878566    23A     -0.869849    24A     -0.791601
      25A     -0.767043    26A     -0.706697    27A     -0.680642
      28A     -0.669387    29A     -0.640457    30A     -0.595811
      31A     -0.588852    32A     -0.582053    33A     -0.557210
      34A     -0.535924    35A     -0.530634    36A     -0.501628
      37A     -0.443308    38A     -0.423139    39A     -0.400139
      40A     -0.392980    41A     -0.371157    42A     -0.306464

  @DF-RHF Final Energy:  -813.00934924881801

   => Energetics <=

    Nuclear Repulsion Energy =            626.8559127030396212
    One-Electron Energy =               -2357.0038178429649633
    Two-Electron Energy =                 917.1385558911073304
    Total Energy =                       -813.0093492488180118
  Basis Set: (AUG-CC-PVTZ AUX)
    Blend: AUG-CC-PVTZ-RI
    Molecular point group: c1

    Geometry (in Angstrom), charge = 0, multiplicity = 1:

       Center              X                  Y                   Z               Mass
    ------------   -----------------  -----------------  -----------------  -----------------
         S            1.736700478487    -1.170445009828    -0.000108738458    31.972071174400
         N           -1.214407521513    -1.099000009828     0.000085261542    14.003074004430
         N            1.411206478487     1.398579990172    -0.000055738458    14.003074004430
         C           -0.713942521513     0.153912990172     0.000041261542    12.000000000000
         C            0.733657178487     0.270685290172    -0.000032838458    12.000000000000
         C           -1.511938521513     1.306633990172     0.000059261542    12.000000000000
         C           -2.894157521513     1.148524990172     0.000130261542    12.000000000000
         C           -3.429182521513    -0.141763009828     0.000177261542    12.000000000000
         C           -2.551377521513    -1.226626009828     0.000151261542    12.000000000000
         C            3.125545478487    -0.167707009828    -0.000165738458    12.000000000000
         C            2.757694478487     1.159886990172    -0.000123738458    12.000000000000
         H           -1.037595521513     2.283230990172     0.000020261542     1.007825032230
         H           -3.546520521513     2.018408990172     0.000147261542     1.007825032230
         H           -4.502979521513    -0.306432009828     0.000232261542     1.007825032230
         H           -2.927836521513    -2.248083009828     0.000185261542     1.007825032230
         H            4.124496478487    -0.584565009828    -0.000222738458     1.007825032230
         H            3.447914478487     1.996650990172    -0.000144738458     1.007825032230

  Basis Set: AUG-CC-PVTZ
    Blend: AUG-CC-PVTZ
  Basis Set: (AUG-CC-PVTZ AUX)
    Blend: AUG-CC-PVTZ-JKFIT
	 Reference Energy          =    -813.0093492488180118 [Eh]
	 Singles Energy            =      -0.0000000000000000 [Eh]
	 Same-Spin Energy          =      -0.5252725557572938 [Eh]
	 Opposite-Spin Energy      =      -1.5535988746271587 [Eh]
	 Correlation Energy        =      -2.0788714303844524 [Eh]
	 Total Energy              =    -815.0882206792024363 [Eh]

	 ================> DF-SCS-MP2 Energies <==================
	-----------------------------------------------------------
	 SCS Same-Spin Scale       =       0.3333333333333333 [-]
	 SCS Opposite-Spin Scale   =       1.2000000000000000 [-]
	 SCS Same-Spin Energy      =      -0.1750908519190979 [Eh]
	 SCS Opposite-Spin Energy  =      -1.8643186495525903 [Eh]
	 SCS Correlation Energy    =      -2.0394095014716882 [Eh]
	 SCS Total Energy          =    -815.0487587502897213 [Eh]
	-----------------------------------------------------------

  Dipole Moment: [D]
     X:    -0.8541      Y:     0.2506      Z:    -0.0000     Total:     0.8901

*** Psi4 exiting successfully. Buy a developer a beer!
