                               Psi4 1.3.2 release

  ==> Input File <==

--------------------------------------------------------------------------
#psi4
#
memory 32 gb

molecule  {
0 1
  S        1.7618360    -1.1877300    -0.0001100
  N       -1.1892720    -1.1162850     0.0000840
  N        1.4363420     1.3812950    -0.0000570
  C       -0.6888070     0.1366280     0.0000400
  C        0.7702180     0.2369850    -0.0000350
  C       -1.4868030     1.2893490     0.0000580
  C       -2.8690220     1.1312400     0.0001290
  C       -3.4040470    -0.1590480     0.0001760
  C       -2.5262420    -1.2439110     0.0001500
  C        3.1506810    -0.1849920    -0.0001670
  C        2.7828300     1.1426020    -0.0001250
  H       -1.0124600     2.2659460     0.0000190
  H       -3.5213850     2.0011240     0.0001460
  H       -4.4778440    -0.3237170     0.0002310
  H       -2.9027010    -2.2653680     0.0001840
  H        4.1496320    -0.6018500    -0.0002240
  H        3.4730500     1.9793660    -0.0001460
units angstrom
no_reorient  #important for SAPT in psi4, default
symmetry c1  #important for SAPT in psi4, default
}

set PROPERTIES_ORIGIN ["COM"]
properties('MP2/aug-cc-pvtz', properties = ['dipole'])
--------------------------------------------------------------------------

    Molecular point group: c1
  Charge       = 0
  Multiplicity = 1
  Basis Set: AUG-CC-PVTZ
    Blend: AUG-CC-PVTZ
  Basis Set: (AUG-CC-PVTZ AUX)
    Blend: AUG-CC-PVTZ-JKFIT

    Orbital Energies [Eh]
    ---------------------

    Doubly Occupied:

       1A    -91.995705     2A    -15.578924     3A    -15.574343
       4A    -11.313801     5A    -11.297433     6A    -11.285498
       7A    -11.270138     8A    -11.267584     9A    -11.265081
      10A    -11.251387    11A    -11.249964    12A     -8.995732
      13A     -6.676499    14A     -6.675950    15A     -6.675284
      16A     -1.287520    17A     -1.260294    18A     -1.096557
      19A     -1.068458    20A     -1.062315    21A     -0.986490
      22A     -0.877001    23A     -0.869269    24A     -0.790836
      25A     -0.766607    26A     -0.707209    27A     -0.680007
      28A     -0.668983    29A     -0.639628    30A     -0.593810
      31A     -0.587761    32A     -0.581475    33A     -0.558460
      34A     -0.536030    35A     -0.529345    36A     -0.502904
      37A     -0.444236    38A     -0.424694    39A     -0.398859
      40A     -0.392558    41A     -0.371511    42A     -0.307085

  @DF-RHF Final Energy:  -813.00945657909574

   => Energetics <=

    Nuclear Repulsion Energy =            626.9546834784280236
    One-Electron Energy =               -2357.2018296781980098
    Two-Electron Energy =                 917.2376896206742458
    Total Energy =                       -813.0094565790957404
  Basis Set: (AUG-CC-PVTZ AUX)
    Blend: AUG-CC-PVTZ-RI
    Molecular point group: c1

    Geometry (in Angstrom), charge = 0, multiplicity = 1:

       Center              X                  Y                   Z               Mass
    ------------   -----------------  -----------------  -----------------  -----------------
         S            1.735854291438    -1.169229250568    -0.000108671802    31.972071174400
         N           -1.215253708562    -1.097784250568     0.000085328198    14.003074004430
         N            1.410360291438     1.399795749432    -0.000055671802    14.003074004430
         C           -0.714788708562     0.155128749432     0.000041328198    12.000000000000
         C            0.744236291438     0.255485749432    -0.000033671802    12.000000000000
         C           -1.512784708562     1.307849749432     0.000059328198    12.000000000000
         C           -2.895003708562     1.149740749432     0.000130328198    12.000000000000
         C           -3.430028708562    -0.140547250568     0.000177328198    12.000000000000
         C           -2.552223708562    -1.225410250568     0.000151328198    12.000000000000
         C            3.124699291438    -0.166491250568    -0.000165671802    12.000000000000
         C            2.756848291438     1.161102749432    -0.000123671802    12.000000000000
         H           -1.038441708562     2.284446749432     0.000020328198     1.007825032230
         H           -3.547366708562     2.019624749432     0.000147328198     1.007825032230
         H           -4.503825708562    -0.305216250568     0.000232328198     1.007825032230
         H           -2.928682708562    -2.246867250568     0.000185328198     1.007825032230
         H            4.123650291438    -0.583349250568    -0.000222671802     1.007825032230
         H            3.447068291438     1.997866749432    -0.000144671802     1.007825032230

  Basis Set: AUG-CC-PVTZ
    Blend: AUG-CC-PVTZ
  Basis Set: (AUG-CC-PVTZ AUX)
    Blend: AUG-CC-PVTZ-JKFIT
	 Reference Energy          =    -813.0094565790957404 [Eh]
	 Singles Energy            =      -0.0000000000000000 [Eh]
	 Same-Spin Energy          =      -0.5253451729543246 [Eh]
	 Opposite-Spin Energy      =      -1.5536343605186100 [Eh]
	 Correlation Energy        =      -2.0789795334729346 [Eh]
	 Total Energy              =    -815.0884361125687292 [Eh]

	 ================> DF-SCS-MP2 Energies <==================
	-----------------------------------------------------------
	 SCS Same-Spin Scale       =       0.3333333333333333 [-]
	 SCS Opposite-Spin Scale   =       1.2000000000000000 [-]
	 SCS Same-Spin Energy      =      -0.1751150576514415 [Eh]
	 SCS Opposite-Spin Energy  =      -1.8643612326223320 [Eh]
	 SCS Correlation Energy    =      -2.0394762902737735 [Eh]
	 SCS Total Energy          =    -815.0489328693695370 [Eh]
	-----------------------------------------------------------

  Dipole Moment: [D]
     X:    -0.7993      Y:     0.1948      Z:    -0.0000     Total:     0.8227

*** Psi4 exiting successfully. Buy a developer a beer!
