                               Psi4 1.3.2 release

  ==> Input File <==

--------------------------------------------------------------------------
#psi4
#
memory 32 gb

molecule  {
0 1
  S        1.7618360    -1.1877300    -0.0001100
  N       -1.1892720    -1.1162850     0.0000840
  N        1.4363420     1.3812950    -0.0000570
  C       -0.6888070     0.1366280     0.0000400
  C        0.8105596     0.2144347    -0.0000372
  C       -1.4868030     1.2893490     0.0000580
  C       -2.8690220     1.1312400     0.0001290
  C       -3.4040470    -0.1590480     0.0001760
  C       -2.5262420    -1.2439110     0.0001500
  C        3.1506810    -0.1849920    -0.0001670
  C        2.7828300     1.1426020    -0.0001250
  H       -1.0124600     2.2659460     0.0000190
  H       -3.5213850     2.0011240     0.0001460
  H       -4.4778440    -0.3237170     0.0002310
  H       -2.9027010    -2.2653680     0.0001840
  H        4.1496320    -0.6018500    -0.0002240
  H        3.4730500     1.9793660    -0.0001460
units angstrom
no_reorient  #important for SAPT in psi4, default
symmetry c1  #important for SAPT in psi4, default
}

set PROPERTIES_ORIGIN ["COM"]
properties('MP2/aug-cc-pvtz', properties = ['dipole'])
--------------------------------------------------------------------------

    Molecular point group: c1
  Charge       = 0
  Multiplicity = 1
  Basis Set: AUG-CC-PVTZ
    Blend: AUG-CC-PVTZ
  Basis Set: (AUG-CC-PVTZ AUX)
    Blend: AUG-CC-PVTZ-JKFIT

    Orbital Energies [Eh]
    ---------------------

    Doubly Occupied:

       1A    -91.998072     2A    -15.577583     3A    -15.572992
       4A    -11.312683     5A    -11.298924     6A    -11.284450
       7A    -11.270308     8A    -11.266872     9A    -11.263446
      10A    -11.250110    11A    -11.248905    12A     -8.998903
      13A     -6.679710    14A     -6.679128    15A     -6.678416
      16A     -1.288898    17A     -1.260347    18A     -1.095751
      19A     -1.068906    20A     -1.061856    21A     -0.987875
      22A     -0.871963    23A     -0.867555    24A     -0.791119
      25A     -0.764598    26A     -0.708725    27A     -0.678975
      28A     -0.667672    29A     -0.637703    30A     -0.590816
      31A     -0.583946    32A     -0.581409    33A     -0.561248
      34A     -0.537306    35A     -0.524383    36A     -0.505726
      37A     -0.448048    38A     -0.426217    39A     -0.396127
      40A     -0.392648    41A     -0.371333    42A     -0.309998

  @DF-RHF Final Energy:  -813.00808141422237

   => Energetics <=

    Nuclear Repulsion Energy =            627.2102827166072530
    One-Electron Energy =               -2357.7134311812815213
    Two-Electron Energy =                 917.4950670504518939
    Total Energy =                       -813.0080814142223744
  Basis Set: (AUG-CC-PVTZ AUX)
    Blend: AUG-CC-PVTZ-RI
    Molecular point group: c1

    Geometry (in Angstrom), charge = 0, multiplicity = 1:

       Center              X                  Y                   Z               Mass
    ------------   -----------------  -----------------  -----------------  -----------------
         S            1.732866488976    -1.167559117459    -0.000108508864    31.972071174400
         N           -1.218241511024    -1.096114117459     0.000085491136    14.003074004430
         N            1.407372488976     1.401465882541    -0.000055508864    14.003074004430
         C           -0.717776511024     0.156798882541     0.000041491136    12.000000000000
         C            0.781590088976     0.234605582541    -0.000035708864    12.000000000000
         C           -1.515772511024     1.309519882541     0.000059491136    12.000000000000
         C           -2.897991511024     1.151410882541     0.000130491136    12.000000000000
         C           -3.433016511024    -0.138877117459     0.000177491136    12.000000000000
         C           -2.555211511024    -1.223740117459     0.000151491136    12.000000000000
         C            3.121711488976    -0.164821117459    -0.000165508864    12.000000000000
         C            2.753860488976     1.162772882541    -0.000123508864    12.000000000000
         H           -1.041429511024     2.286116882541     0.000020491136     1.007825032230
         H           -3.550354511024     2.021294882541     0.000147491136     1.007825032230
         H           -4.506813511024    -0.303546117459     0.000232491136     1.007825032230
         H           -2.931670511024    -2.245197117459     0.000185491136     1.007825032230
         H            4.120662488976    -0.581679117459    -0.000222508864     1.007825032230
         H            3.444080488976     1.999536882541    -0.000144508864     1.007825032230

  Basis Set: AUG-CC-PVTZ
    Blend: AUG-CC-PVTZ
  Basis Set: (AUG-CC-PVTZ AUX)
    Blend: AUG-CC-PVTZ-JKFIT
	 Reference Energy          =    -813.0080814142223744 [Eh]
	 Singles Energy            =      -0.0000000000000000 [Eh]
	 Same-Spin Energy          =      -0.5250318142784932 [Eh]
	 Opposite-Spin Energy      =      -1.5530641792317246 [Eh]
	 Correlation Energy        =      -2.0780959935102179 [Eh]
	 Total Energy              =    -815.0861774077326345 [Eh]

	 ================> DF-SCS-MP2 Energies <==================
	-----------------------------------------------------------
	 SCS Same-Spin Scale       =       0.3333333333333333 [-]
	 SCS Opposite-Spin Scale   =       1.2000000000000000 [-]
	 SCS Same-Spin Energy      =      -0.1750106047594977 [Eh]
	 SCS Opposite-Spin Energy  =      -1.8636770150780695 [Eh]
	 SCS Correlation Energy    =      -2.0386876198375674 [Eh]
	 SCS Total Energy          =    -815.0467690340599347 [Eh]
	-----------------------------------------------------------

  Dipole Moment: [D]
     X:    -0.7192      Y:     0.0995      Z:    -0.0000     Total:     0.7260

*** Psi4 exiting successfully. Buy a developer a beer!
