                               Psi4 1.4a3.dev225

  ==> Input File <==

--------------------------------------------------------------------------
#psi4
#
memory 32 gb

molecule  {
0 1
  S        1.7618360    -1.1877300    -0.0001100
  N       -1.1892720    -1.1162850     0.0000840
  N        1.4363420     1.3812950    -0.0000570
  C       -0.6888070     0.1366280     0.0000400
  C        0.7702180     0.2369850    -0.0000350
  C       -1.4868030     1.2893490     0.0000580
  C       -2.8690220     1.1312400     0.0001290
  C       -3.4040470    -0.1590480     0.0001760
  C       -2.5262420    -1.2439110     0.0001500
  C        3.1506810    -0.1849920    -0.0001670
  C        2.7828300     1.1426020    -0.0001250
  H       -1.0124600     2.2659460     0.0000190
  H       -3.5213850     2.0011240     0.0001460
  H       -4.4778440    -0.3237170     0.0002310
  H       -2.9027010    -2.2653680     0.0001840
  H        4.1496320    -0.6018500    -0.0002240
  H        3.4857764     1.9947945    -0.0001464
units angstrom
no_reorient  #important for SAPT in psi4, default
symmetry c1  #important for SAPT in psi4, default
}

set PROPERTIES_ORIGIN ["COM"]
properties('MP2/aug-cc-pvtz', properties = ['dipole'])
--------------------------------------------------------------------------

    Molecular point group: c1
  Charge       = 0
  Multiplicity = 1
  Basis Set: AUG-CC-PVTZ
    Blend: AUG-CC-PVTZ
  Basis Set: (AUG-CC-PVTZ AUX)
    Blend: AUG-CC-PVTZ-JKFIT

    Orbital Energies [Eh]
    ---------------------

    Doubly Occupied:

       1A    -91.995804     2A    -15.578979     3A    -15.574526
       4A    -11.313946     5A    -11.297496     6A    -11.285542
       7A    -11.272332     8A    -11.267625     9A    -11.265212
      10A    -11.251431    11A    -11.250013    12A     -8.995828
      13A     -6.676595    14A     -6.676045    15A     -6.675379
      16A     -1.287607    17A     -1.260351    18A     -1.096602
      19A     -1.068418    20A     -1.062387    21A     -0.985876
      22A     -0.876765    23A     -0.869236    24A     -0.790287
      25A     -0.765547    26A     -0.707224    27A     -0.678775
      28A     -0.669027    29A     -0.638882    30A     -0.593434
      31A     -0.586754    32A     -0.581566    33A     -0.558509
      34A     -0.536105    35A     -0.529384    36A     -0.502103
      37A     -0.444225    38A     -0.424773    39A     -0.398919
      40A     -0.392631    41A     -0.371569    42A     -0.307136

  @DF-RHF Final Energy:  -813.00879114575969

   => Energetics <=

    Nuclear Repulsion Energy =            626.8464143985429473
    One-Electron Energy =               -2356.9887275447126740
    Two-Electron Energy =                 917.1335220004100393
    Total Energy =                       -813.0087911457596874
  Basis Set: (AUG-CC-PVTZ AUX)
    Blend: AUG-CC-PVTZ-RI
    Molecular point group: c1

    Geometry (in Angstrom), charge = 0, multiplicity = 1:

       Center              X                  Y                   Z               Mass
    ------------   -----------------  -----------------  -----------------  -----------------
         S            1.735775130993    -1.169325218550    -0.000108669314    31.972071174400
         N           -1.215332869007    -1.097880218550     0.000085330686    14.003074004430
         N            1.410281130993     1.399699781450    -0.000055669314    14.003074004430
         C           -0.714867869007     0.155032781450     0.000041330686    12.000000000000
         C            0.744157130993     0.255389781450    -0.000033669314    12.000000000000
         C           -1.512863869007     1.307753781450     0.000059330686    12.000000000000
         C           -2.895082869007     1.149644781450     0.000130330686    12.000000000000
         C           -3.430107869007    -0.140643218550     0.000177330686    12.000000000000
         C           -2.552302869007    -1.225506218550     0.000151330686    12.000000000000
         C            3.124620130993    -0.166587218550    -0.000165669314    12.000000000000
         C            2.756769130993     1.161006781450    -0.000123669314    12.000000000000
         H           -1.038520869007     2.284350781450     0.000020330686     1.007825032230
         H           -3.547445869007     2.019528781450     0.000147330686     1.007825032230
         H           -4.503904869007    -0.305312218550     0.000232330686     1.007825032230
         H           -2.928761869007    -2.246963218550     0.000185330686     1.007825032230
         H            4.123571130993    -0.583445218550    -0.000222669314     1.007825032230
         H            3.459715530993     2.013199281450    -0.000145069314     1.007825032230

  Basis Set: AUG-CC-PVTZ
    Blend: AUG-CC-PVTZ
  Basis Set: (AUG-CC-PVTZ AUX)
    Blend: AUG-CC-PVTZ-JKFIT
	 Reference Energy          =    -813.0087911457596874 [Eh]
	 Singles Energy            =      -0.0000000000000000 [Eh]
	 Same-Spin Energy          =      -0.5253942078671938 [Eh]
	 Opposite-Spin Energy      =      -1.5537764365663664 [Eh]
	 Correlation Energy        =      -2.0791706444335603 [Eh]
	 Total Energy              =    -815.0879617901932761 [Eh]

	 ================> DF-SCS-MP2 Energies <==================
	-----------------------------------------------------------
	 SCS Same-Spin Scale       =       0.3333333333333333 [-]
	 SCS Opposite-Spin Scale   =       1.2000000000000000 [-]
	 SCS Same-Spin Energy      =      -0.1751314026223979 [Eh]
	 SCS Opposite-Spin Energy  =      -1.8645317238796397 [Eh]
	 SCS Correlation Energy    =      -2.0396631265020377 [Eh]
	 SCS Total Energy          =    -815.0484542722617789 [Eh]
	-----------------------------------------------------------

  Dipole Moment: [D]
     X:    -0.8052      Y:     0.1936      Z:    -0.0000     Total:     0.8282

*** Psi4 exiting successfully. Buy a developer a beer!
