                               Psi4 1.3.2 release

  ==> Input File <==

--------------------------------------------------------------------------
#psi4
#
memory 32 gb

molecule  {
0 1
  S        1.7795477    -1.2118160    -0.0001113
  N       -1.1892720    -1.1162850     0.0000840
  N        1.4363420     1.3812950    -0.0000570
  C       -0.6888070     0.1366280     0.0000400
  C        0.7702180     0.2369850    -0.0000350
  C       -1.4868030     1.2893490     0.0000580
  C       -2.8690220     1.1312400     0.0001290
  C       -3.4040470    -0.1590480     0.0001760
  C       -2.5262420    -1.2439110     0.0001500
  C        3.1506810    -0.1849920    -0.0001670
  C        2.7828300     1.1426020    -0.0001250
  H       -1.0124600     2.2659460     0.0000190
  H       -3.5213850     2.0011240     0.0001460
  H       -4.4778440    -0.3237170     0.0002310
  H       -2.9027010    -2.2653680     0.0001840
  H        4.1496320    -0.6018500    -0.0002240
  H        3.4730500     1.9793660    -0.0001460
units angstrom
no_reorient  #important for SAPT in psi4, default
symmetry c1  #important for SAPT in psi4, default
}

set PROPERTIES_ORIGIN ["COM"]
properties('MP2/aug-cc-pvtz', properties = ['dipole'])
--------------------------------------------------------------------------

    Molecular point group: c1
  Charge       = 0
  Multiplicity = 1
  Basis Set: AUG-CC-PVTZ
    Blend: AUG-CC-PVTZ
  Basis Set: (AUG-CC-PVTZ AUX)
    Blend: AUG-CC-PVTZ-JKFIT

    Orbital Energies [Eh]
    ---------------------

    Doubly Occupied:

       1A    -91.996336     2A    -15.579045     3A    -15.576187
       4A    -11.316648     5A    -11.297641     6A    -11.285535
       7A    -11.270073     8A    -11.267709     9A    -11.265612
      10A    -11.251547    11A    -11.250259    12A     -8.995758
      13A     -6.676521    14A     -6.675913    15A     -6.675295
      16A     -1.286355    17A     -1.260031    18A     -1.096526
      19A     -1.068631    20A     -1.060580    21A     -0.984248
      22A     -0.877043    23A     -0.869304    24A     -0.790767
      25A     -0.765738    26A     -0.707167    27A     -0.680136
      28A     -0.669003    29A     -0.639384    30A     -0.593873
      31A     -0.587729    32A     -0.580069    33A     -0.555282
      34A     -0.535380    35A     -0.528877    36A     -0.504046
      37A     -0.444127    38A     -0.425222    39A     -0.399769
      40A     -0.393150    41A     -0.370960    42A     -0.305904

  @DF-RHF Final Energy:  -813.00818632158291

   => Energetics <=

    Nuclear Repulsion Energy =            625.5674677684477274
    One-Electron Energy =               -2354.4325542771857727
    Two-Electron Energy =                 915.8569001871550199
    Total Energy =                       -813.0081863215829117
  Basis Set: (AUG-CC-PVTZ AUX)
    Blend: AUG-CC-PVTZ-RI
    Molecular point group: c1

    Geometry (in Angstrom), charge = 0, multiplicity = 1:

       Center              X                  Y                   Z               Mass
    ------------   -----------------  -----------------  -----------------  -----------------
         S            1.750070980538    -1.188562413035    -0.000109715275    31.972071174400
         N           -1.218748719462    -1.093031413035     0.000085584725    14.003074004430
         N            1.406865280538     1.404548586965    -0.000055415275    14.003074004430
         C           -0.718283719462     0.159881586965     0.000041584725    12.000000000000
         C            0.740741280538     0.260238586965    -0.000033415275    12.000000000000
         C           -1.516279719462     1.312602586965     0.000059584725    12.000000000000
         C           -2.898498719462     1.154493586965     0.000130584725    12.000000000000
         C           -3.433523719462    -0.135794413035     0.000177584725    12.000000000000
         C           -2.555718719462    -1.220657413035     0.000151584725    12.000000000000
         C            3.121204280538    -0.161738413035    -0.000165415275    12.000000000000
         C            2.753353280538     1.165855586965    -0.000123415275    12.000000000000
         H           -1.041936719462     2.289199586965     0.000020584725     1.007825032230
         H           -3.550861719462     2.024377586965     0.000147584725     1.007825032230
         H           -4.507320719462    -0.300463413035     0.000232584725     1.007825032230
         H           -2.932177719462    -2.242114413035     0.000185584725     1.007825032230
         H            4.120155280538    -0.578596413035    -0.000222415275     1.007825032230
         H            3.443573280538     2.002619586965    -0.000144415275     1.007825032230

  Basis Set: AUG-CC-PVTZ
    Blend: AUG-CC-PVTZ
  Basis Set: (AUG-CC-PVTZ AUX)
    Blend: AUG-CC-PVTZ-JKFIT
	 Reference Energy          =    -813.0081863215829117 [Eh]
	 Singles Energy            =      -0.0000000000000000 [Eh]
	 Same-Spin Energy          =      -0.5252524457330302 [Eh]
	 Opposite-Spin Energy      =      -1.5540887543252073 [Eh]
	 Correlation Energy        =      -2.0793412000582374 [Eh]
	 Total Energy              =    -815.0875275216411637 [Eh]

	 ================> DF-SCS-MP2 Energies <==================
	-----------------------------------------------------------
	 SCS Same-Spin Scale       =       0.3333333333333333 [-]
	 SCS Opposite-Spin Scale   =       1.2000000000000000 [-]
	 SCS Same-Spin Energy      =      -0.1750841485776767 [Eh]
	 SCS Opposite-Spin Energy  =      -1.8649065051902487 [Eh]
	 SCS Correlation Energy    =      -2.0399906537679255 [Eh]
	 SCS Total Energy          =    -815.0481769753508843 [Eh]
	-----------------------------------------------------------

  Dipole Moment: [D]
     X:    -0.8227      Y:     0.2242      Z:    -0.0000     Total:     0.8527

*** Psi4 exiting successfully. Buy a developer a beer!
