                               Psi4 1.3.2 release

  ==> Input File <==

--------------------------------------------------------------------------
#psi4
#
memory 32 gb

molecule  {
0 1
  S        1.7618360    -1.1877300    -0.0001100
  N       -1.1892720    -1.1162850     0.0000840
  N        1.4363420     1.3812950    -0.0000570
  C       -0.6888070     0.1366280     0.0000400
  C        0.7702180     0.2369850    -0.0000350
  C       -1.4868030     1.2893490     0.0000580
  C       -2.8690220     1.1312400     0.0001290
  C       -3.4040470    -0.1590480     0.0001760
  C       -2.5262420    -1.2439110     0.0001500
  C        3.0571767    -0.2074180    -0.0001626
  C        2.7828300     1.1426020    -0.0001250
  H       -1.0124600     2.2659460     0.0000190
  H       -3.5213850     2.0011240     0.0001460
  H       -4.4778440    -0.3237170     0.0002310
  H       -2.9027010    -2.2653680     0.0001840
  H        4.1496320    -0.6018500    -0.0002240
  H        3.4730500     1.9793660    -0.0001460
units angstrom
no_reorient  #important for SAPT in psi4, default
symmetry c1  #important for SAPT in psi4, default
}

set PROPERTIES_ORIGIN ["COM"]
properties('MP2/aug-cc-pvtz', properties = ['dipole'])
--------------------------------------------------------------------------

    Molecular point group: c1
  Charge       = 0
  Multiplicity = 1
  Basis Set: AUG-CC-PVTZ
    Blend: AUG-CC-PVTZ
  Basis Set: (AUG-CC-PVTZ AUX)
    Blend: AUG-CC-PVTZ-JKFIT

    Orbital Energies [Eh]
    ---------------------

    Doubly Occupied:

       1A    -91.998013     2A    -15.576684     3A    -15.574654
       4A    -11.308186     5A    -11.295878     6A    -11.284176
       7A    -11.267439     8A    -11.266037     9A    -11.265627
      10A    -11.248885    11A    -11.247321    12A     -9.000083
      13A     -6.681060    14A     -6.680184    15A     -6.679499
      16A     -1.290406    17A     -1.260481    18A     -1.095809
      19A     -1.081138    20A     -1.064906    21A     -0.983252
      22A     -0.874279    23A     -0.867768    24A     -0.782332
      25A     -0.767835    26A     -0.707873    27A     -0.679902
      28A     -0.663717    29A     -0.638514    30A     -0.592431
      31A     -0.584086    32A     -0.583934    33A     -0.544601
      34A     -0.538210    35A     -0.530644    36A     -0.514907
      37A     -0.443062    38A     -0.425352    39A     -0.404320
      40A     -0.393571    41A     -0.370179    42A     -0.302138

  @DF-RHF Final Energy:  -812.99707097174019

   => Energetics <=

    Nuclear Repulsion Energy =            629.3322322573803831
    One-Electron Energy =               -2361.9398695627965026
    Two-Electron Energy =                 919.6105663336759335
    Total Energy =                       -812.9970709717401860
  Basis Set: (AUG-CC-PVTZ AUX)
    Blend: AUG-CC-PVTZ-RI
    Molecular point group: c1

    Geometry (in Angstrom), charge = 0, multiplicity = 1:

       Center              X                  Y                   Z               Mass
    ------------   -----------------  -----------------  -----------------  -----------------
         S            1.742779459943    -1.167568323436    -0.000108997677    31.972071174400
         N           -1.208328540057    -1.096123323436     0.000085002323    14.003074004430
         N            1.417285459943     1.401456676564    -0.000055997677    14.003074004430
         C           -0.707863540057     0.156789676564     0.000041002323    12.000000000000
         C            0.751161459943     0.257146676564    -0.000033997677    12.000000000000
         C           -1.505859540057     1.309510676564     0.000059002323    12.000000000000
         C           -2.888078540057     1.151401676564     0.000130002323    12.000000000000
         C           -3.423103540057    -0.138886323436     0.000177002323    12.000000000000
         C           -2.545298540057    -1.223749323436     0.000151002323    12.000000000000
         C            3.038120159943    -0.187256323436    -0.000161597677    12.000000000000
         C            2.763773459943     1.162763676564    -0.000123997677    12.000000000000
         H           -1.031516540057     2.286107676564     0.000020002323     1.007825032230
         H           -3.540441540057     2.021285676564     0.000147002323     1.007825032230
         H           -4.496900540057    -0.303555323436     0.000232002323     1.007825032230
         H           -2.921757540057    -2.245206323436     0.000185002323     1.007825032230
         H            4.130575459943    -0.581688323436    -0.000222997677     1.007825032230
         H            3.453993459943     1.999527676564    -0.000144997677     1.007825032230

  Basis Set: AUG-CC-PVTZ
    Blend: AUG-CC-PVTZ
  Basis Set: (AUG-CC-PVTZ AUX)
    Blend: AUG-CC-PVTZ-JKFIT
	 Reference Energy          =    -812.9970709717401860 [Eh]
	 Singles Energy            =      -0.0000000000000000 [Eh]
	 Same-Spin Energy          =      -0.5269507564392384 [Eh]
	 Opposite-Spin Energy      =      -1.5547298294477518 [Eh]
	 Correlation Energy        =      -2.0816805858869900 [Eh]
	 Total Energy              =    -815.0787515576271289 [Eh]

	 ================> DF-SCS-MP2 Energies <==================
	-----------------------------------------------------------
	 SCS Same-Spin Scale       =       0.3333333333333333 [-]
	 SCS Opposite-Spin Scale   =       1.2000000000000000 [-]
	 SCS Same-Spin Energy      =      -0.1756502521464128 [Eh]
	 SCS Opposite-Spin Energy  =      -1.8656757953373022 [Eh]
	 SCS Correlation Energy    =      -2.0413260474837149 [Eh]
	 SCS Total Energy          =    -815.0383970192239076 [Eh]
	-----------------------------------------------------------

  Dipole Moment: [D]
     X:    -0.7073      Y:     0.1240      Z:    -0.0000     Total:     0.7181

*** Psi4 exiting successfully. Buy a developer a beer!
