                               Psi4 1.4a3.dev225

  ==> Input File <==

--------------------------------------------------------------------------
#psi4
#
memory 32 gb

molecule  {
0 1
  S        1.7618360    -1.1877300    -0.0001100
  N       -1.1892720    -1.1162850     0.0000840
  N        1.4363420     1.3812950    -0.0000570
  C       -0.6888070     0.1366280     0.0000400
  C        0.7702180     0.2369850    -0.0000350
  C       -1.4981868     1.3057931     0.0000583
  C       -2.8690220     1.1312400     0.0001290
  C       -3.4040470    -0.1590480     0.0001760
  C       -2.5262420    -1.2439110     0.0001500
  C        3.1506810    -0.1849920    -0.0001670
  C        2.7828300     1.1426020    -0.0001250
  H       -1.0124600     2.2659460     0.0000190
  H       -3.5213850     2.0011240     0.0001460
  H       -4.4778440    -0.3237170     0.0002310
  H       -2.9027010    -2.2653680     0.0001840
  H        4.1496320    -0.6018500    -0.0002240
  H        3.4730500     1.9793660    -0.0001460
units angstrom
no_reorient  #important for SAPT in psi4, default
symmetry c1  #important for SAPT in psi4, default
}

set PROPERTIES_ORIGIN ["COM"]
properties('MP2/aug-cc-pvtz', properties = ['dipole'])
--------------------------------------------------------------------------

    Molecular point group: c1
  Charge       = 0
  Multiplicity = 1
  Basis Set: AUG-CC-PVTZ
    Blend: AUG-CC-PVTZ
  Basis Set: (AUG-CC-PVTZ AUX)
    Blend: AUG-CC-PVTZ-JKFIT

    Orbital Energies [Eh]
    ---------------------

    Doubly Occupied:

       1A    -91.996088     2A    -15.579186     3A    -15.574962
       4A    -11.314199     5A    -11.300045     6A    -11.285059
       7A    -11.270512     8A    -11.266033     9A    -11.265605
      10A    -11.251052    11A    -11.250426    12A     -8.996112
      13A     -6.676877    14A     -6.676328    15A     -6.675662
      16A     -1.287515    17A     -1.260033    18A     -1.097454
      19A     -1.067386    20A     -1.062370    21A     -0.986476
      22A     -0.877585    23A     -0.868187    24A     -0.790823
      25A     -0.766221    26A     -0.707677    27A     -0.681009
      28A     -0.668742    29A     -0.639244    30A     -0.594437
      31A     -0.587136    32A     -0.581155    33A     -0.557744
      34A     -0.535780    35A     -0.532245    36A     -0.503218
      37A     -0.444282    38A     -0.424226    39A     -0.399548
      40A     -0.393108    41A     -0.371018    42A     -0.306433

  @DF-RHF Final Energy:  -813.00882138903819

   => Energetics <=

    Nuclear Repulsion Energy =            626.6279401368168465
    One-Electron Energy =               -2356.5351288403226135
    Two-Electron Energy =                 916.8983673144674640
    Total Energy =                       -813.0088213890381894
  Basis Set: (AUG-CC-PVTZ AUX)
    Blend: AUG-CC-PVTZ-RI
    Molecular point group: c1

    Geometry (in Angstrom), charge = 0, multiplicity = 1:

       Center              X                  Y                   Z               Mass
    ------------   -----------------  -----------------  -----------------  -----------------
         S            1.736697404891    -1.170447142830    -0.000108694020    31.972071174400
         N           -1.214410595109    -1.099002142830     0.000085305980    14.003074004430
         N            1.411203404891     1.398577857170    -0.000055694020    14.003074004430
         C           -0.713945595109     0.153910857170     0.000041305980    12.000000000000
         C            0.745079404891     0.254267857170    -0.000033694020    12.000000000000
         C           -1.523325395109     1.323075957170     0.000059605980    12.000000000000
         C           -2.894160595109     1.148522857170     0.000130305980    12.000000000000
         C           -3.429185595109    -0.141765142830     0.000177305980    12.000000000000
         C           -2.551380595109    -1.226628142830     0.000151305980    12.000000000000
         C            3.125542404891    -0.167709142830    -0.000165694020    12.000000000000
         C            2.757691404891     1.159884857170    -0.000123694020    12.000000000000
         H           -1.037598595109     2.283228857170     0.000020305980     1.007825032230
         H           -3.546523595109     2.018406857170     0.000147305980     1.007825032230
         H           -4.502982595109    -0.306434142830     0.000232305980     1.007825032230
         H           -2.927839595109    -2.248085142830     0.000185305980     1.007825032230
         H            4.124493404891    -0.584567142830    -0.000222694020     1.007825032230
         H            3.447911404891     1.996648857170    -0.000144694020     1.007825032230

  Basis Set: AUG-CC-PVTZ
    Blend: AUG-CC-PVTZ
  Basis Set: (AUG-CC-PVTZ AUX)
    Blend: AUG-CC-PVTZ-JKFIT
	 Reference Energy          =    -813.0088213890381894 [Eh]
	 Singles Energy            =      -0.0000000000000000 [Eh]
	 Same-Spin Energy          =      -0.5253454388252816 [Eh]
	 Opposite-Spin Energy      =      -1.5536756558823210 [Eh]
	 Correlation Energy        =      -2.0790210947076027 [Eh]
	 Total Energy              =    -815.0878424837458169 [Eh]

	 ================> DF-SCS-MP2 Energies <==================
	-----------------------------------------------------------
	 SCS Same-Spin Scale       =       0.3333333333333333 [-]
	 SCS Opposite-Spin Scale   =       1.2000000000000000 [-]
	 SCS Same-Spin Energy      =      -0.1751151462750939 [Eh]
	 SCS Opposite-Spin Energy  =      -1.8644107870587852 [Eh]
	 SCS Correlation Energy    =      -2.0395259333338789 [Eh]
	 SCS Total Energy          =    -815.0483473223720239 [Eh]
	-----------------------------------------------------------

  Dipole Moment: [D]
     X:    -0.7654      Y:     0.1935      Z:    -0.0000     Total:     0.7895

*** Psi4 exiting successfully. Buy a developer a beer!
