                               Psi4 1.3.2 release

  ==> Input File <==

--------------------------------------------------------------------------
#psi4
#
memory 32 gb

molecule  {
0 1
  S        1.7618360    -1.1877300    -0.0001100
  N       -1.2110621    -1.1073599     0.0000849
  N        1.4363420     1.3812950    -0.0000570
  C       -0.6888070     0.1366280     0.0000400
  C        0.7702180     0.2369850    -0.0000350
  C       -1.4868030     1.2893490     0.0000580
  C       -2.8690220     1.1312400     0.0001290
  C       -3.4040470    -0.1590480     0.0001760
  C       -2.5262420    -1.2439110     0.0001500
  C        3.1506810    -0.1849920    -0.0001670
  C        2.7828300     1.1426020    -0.0001250
  H       -1.0124600     2.2659460     0.0000190
  H       -3.5213850     2.0011240     0.0001460
  H       -4.4778440    -0.3237170     0.0002310
  H       -2.9027010    -2.2653680     0.0001840
  H        4.1496320    -0.6018500    -0.0002240
  H        3.4730500     1.9793660    -0.0001460
units angstrom
no_reorient  #important for SAPT in psi4, default
symmetry c1  #important for SAPT in psi4, default
}

set PROPERTIES_ORIGIN ["COM"]
properties('MP2/aug-cc-pvtz', properties = ['dipole'])
--------------------------------------------------------------------------

    Molecular point group: c1
  Charge       = 0
  Multiplicity = 1
  Basis Set: AUG-CC-PVTZ
    Blend: AUG-CC-PVTZ
  Basis Set: (AUG-CC-PVTZ AUX)
    Blend: AUG-CC-PVTZ-JKFIT

    Orbital Energies [Eh]
    ---------------------

    Doubly Occupied:

       1A    -91.996055     2A    -15.575820     3A    -15.574577
       4A    -11.314514     5A    -11.297132     6A    -11.282871
       7A    -11.270502     8A    -11.266606     9A    -11.265344
      10A    -11.250674    11A    -11.249792    12A     -8.996089
      13A     -6.676858    14A     -6.676312    15A     -6.675646
      16A     -1.288719    17A     -1.263695    18A     -1.095798
      19A     -1.069659    20A     -1.063174    21A     -0.986673
      22A     -0.878046    23A     -0.868540    24A     -0.791359
      25A     -0.767951    26A     -0.707412    27A     -0.680964
      28A     -0.669755    29A     -0.639595    30A     -0.594435
      31A     -0.588050    32A     -0.582232    33A     -0.559010
      34A     -0.537693    35A     -0.530644    36A     -0.502976
      37A     -0.442899    38A     -0.422006    39A     -0.398191
      40A     -0.393370    41A     -0.372945    42A     -0.306630

  @DF-RHF Final Energy:  -813.01032356803216

   => Energetics <=

    Nuclear Repulsion Energy =            627.1733598318024860
    One-Electron Energy =               -2357.6249370928362623
    Two-Electron Energy =                 917.4412536930017268
    Total Energy =                       -813.0103235680321632
  Basis Set: (AUG-CC-PVTZ AUX)
    Blend: AUG-CC-PVTZ-RI
    Molecular point group: c1

    Geometry (in Angstrom), charge = 0, multiplicity = 1:

       Center              X                  Y                   Z               Mass
    ------------   -----------------  -----------------  -----------------  -----------------
         S            1.737737507385    -1.170000605021    -0.000108749584    31.972071174400
         N           -1.235160592615    -1.089630505021     0.000086150416    14.003074004430
         N            1.412243507385     1.399024394979    -0.000055749584    14.003074004430
         C           -0.712905492615     0.154357394979     0.000041250416    12.000000000000
         C            0.746119507385     0.254714394979    -0.000033749584    12.000000000000
         C           -1.510901492615     1.307078394979     0.000059250416    12.000000000000
         C           -2.893120492615     1.148969394979     0.000130250416    12.000000000000
         C           -3.428145492615    -0.141318605021     0.000177250416    12.000000000000
         C           -2.550340492615    -1.226181605021     0.000151250416    12.000000000000
         C            3.126582507385    -0.167262605021    -0.000165749584    12.000000000000
         C            2.758731507385     1.160331394979    -0.000123749584    12.000000000000
         H           -1.036558492615     2.283675394979     0.000020250416     1.007825032230
         H           -3.545483492615     2.018853394979     0.000147250416     1.007825032230
         H           -4.501942492615    -0.305987605021     0.000232250416     1.007825032230
         H           -2.926799492615    -2.247638605021     0.000185250416     1.007825032230
         H            4.125533507385    -0.584120605021    -0.000222749584     1.007825032230
         H            3.448951507385     1.997095394979    -0.000144749584     1.007825032230

  Basis Set: AUG-CC-PVTZ
    Blend: AUG-CC-PVTZ
  Basis Set: (AUG-CC-PVTZ AUX)
    Blend: AUG-CC-PVTZ-JKFIT
	 Reference Energy          =    -813.0103235680321632 [Eh]
	 Singles Energy            =      -0.0000000000000000 [Eh]
	 Same-Spin Energy          =      -0.5251424247102026 [Eh]
	 Opposite-Spin Energy      =      -1.5529085244819343 [Eh]
	 Correlation Energy        =      -2.0780509491921366 [Eh]
	 Total Energy              =    -815.0883745172243380 [Eh]

	 ================> DF-SCS-MP2 Energies <==================
	-----------------------------------------------------------
	 SCS Same-Spin Scale       =       0.3333333333333333 [-]
	 SCS Opposite-Spin Scale   =       1.2000000000000000 [-]
	 SCS Same-Spin Energy      =      -0.1750474749034008 [Eh]
	 SCS Opposite-Spin Energy  =      -1.8634902293783211 [Eh]
	 SCS Correlation Energy    =      -2.0385377042817221 [Eh]
	 SCS Total Energy          =    -815.0488612723138431 [Eh]
	-----------------------------------------------------------

  Dipole Moment: [D]
     X:    -0.7364      Y:     0.1759      Z:    -0.0000     Total:     0.7571

*** Psi4 exiting successfully. Buy a developer a beer!
