                               Psi4 1.3.2 release

  ==> Input File <==

--------------------------------------------------------------------------
#psi4
#
memory 32 gb

molecule  {
0 1
  S        1.7618360    -1.1877300    -0.0001100
  N       -1.1892720    -1.1162850     0.0000840
  N        1.4363420     1.3812950    -0.0000570
  C       -0.6888070     0.1366280     0.0000400
  C        0.7702180     0.2369850    -0.0000350
  C       -1.4868030     1.2893490     0.0000580
  C       -2.8690220     1.1312400     0.0001290
  C       -3.4040470    -0.1590480     0.0001760
  C       -2.5262420    -1.2439110     0.0001500
  C        3.1506810    -0.1849920    -0.0001670
  C        2.7828300     1.1426020    -0.0001250
  H       -1.0124600     2.2659460     0.0000190
  H       -3.5213850     2.0011240     0.0001460
  H       -4.4778440    -0.3237170     0.0002310
  H       -2.9027010    -2.2653680     0.0001840
  H        4.1496320    -0.6018500    -0.0002240
  H        3.5366822     2.0565083    -0.0001479
units angstrom
no_reorient  #important for SAPT in psi4, default
symmetry c1  #important for SAPT in psi4, default
}

set PROPERTIES_ORIGIN ["COM"]
properties('MP2/aug-cc-pvtz', properties = ['dipole'])
--------------------------------------------------------------------------

    Molecular point group: c1
  Charge       = 0
  Multiplicity = 1
  Basis Set: AUG-CC-PVTZ
    Blend: AUG-CC-PVTZ
  Basis Set: (AUG-CC-PVTZ AUX)
    Blend: AUG-CC-PVTZ-JKFIT

    Orbital Energies [Eh]
    ---------------------

    Doubly Occupied:

       1A    -91.996281     2A    -15.579231     3A    -15.575355
       4A    -11.314592     5A    -11.297785     6A    -11.285744
       7A    -11.280829     8A    -11.267809     9A    -11.265781
      10A    -11.251633    11A    -11.250235    12A     -8.996290
      13A     -6.677056    14A     -6.676505    15A     -6.675835
      16A     -1.288040    17A     -1.260643    18A     -1.096811
      19A     -1.068410    20A     -1.062740    21A     -0.983943
      22A     -0.876128    23A     -0.869147    24A     -0.788921
      25A     -0.761787    26A     -0.707379    27A     -0.674618
      28A     -0.669217    29A     -0.635942    30A     -0.592774
      31A     -0.581983    32A     -0.581329    33A     -0.558731
      34A     -0.536457    35A     -0.529569    36A     -0.498319
      37A     -0.444145    38A     -0.425129    39A     -0.399200
      40A     -0.392972    41A     -0.371860    42A     -0.307408

  @DF-RHF Final Energy:  -813.00188666559768

   => Energetics <=

    Nuclear Repulsion Energy =            626.4367649924963644
    One-Electron Energy =               -2356.1681774213898279
    Two-Electron Energy =                 916.7295257632957828
    Total Energy =                       -813.0018866655976808
  Basis Set: (AUG-CC-PVTZ AUX)
    Blend: AUG-CC-PVTZ-RI
    Molecular point group: c1

    Geometry (in Angstrom), charge = 0, multiplicity = 1:

       Center              X                  Y                   Z               Mass
    ------------   -----------------  -----------------  -----------------  -----------------
         S            1.735458487969    -1.169709089233    -0.000108659983    31.972071174400
         N           -1.215649512031    -1.098264089233     0.000085340017    14.003074004430
         N            1.409964487969     1.399315910767    -0.000055659983    14.003074004430
         C           -0.715184512031     0.154648910767     0.000041340017    12.000000000000
         C            0.743840487969     0.255005910767    -0.000033659983    12.000000000000
         C           -1.513180512031     1.307369910767     0.000059340017    12.000000000000
         C           -2.895399512031     1.149260910767     0.000130340017    12.000000000000
         C           -3.430424512031    -0.141027089233     0.000177340017    12.000000000000
         C           -2.552619512031    -1.225890089233     0.000151340017    12.000000000000
         C            3.124303487969    -0.166971089233    -0.000165659983    12.000000000000
         C            2.756452487969     1.160622910767    -0.000123659983    12.000000000000
         H           -1.038837512031     2.283966910767     0.000020340017     1.007825032230
         H           -3.547762512031     2.019144910767     0.000147340017     1.007825032230
         H           -4.504221512031    -0.305696089233     0.000232340017     1.007825032230
         H           -2.929078512031    -2.247347089233     0.000185340017     1.007825032230
         H            4.123254487969    -0.583829089233    -0.000222659983     1.007825032230
         H            3.510304687969     2.074529210767    -0.000146559983     1.007825032230

  Basis Set: AUG-CC-PVTZ
    Blend: AUG-CC-PVTZ
  Basis Set: (AUG-CC-PVTZ AUX)
    Blend: AUG-CC-PVTZ-JKFIT
	 Reference Energy          =    -813.0018866655976808 [Eh]
	 Singles Energy            =      -0.0000000000000000 [Eh]
	 Same-Spin Energy          =      -0.5256186719774809 [Eh]
	 Opposite-Spin Energy      =      -1.5545174766913554 [Eh]
	 Correlation Energy        =      -2.0801361486688363 [Eh]
	 Total Energy              =    -815.0820228142665655 [Eh]

	 ================> DF-SCS-MP2 Energies <==================
	-----------------------------------------------------------
	 SCS Same-Spin Scale       =       0.3333333333333333 [-]
	 SCS Opposite-Spin Scale   =       1.2000000000000000 [-]
	 SCS Same-Spin Energy      =      -0.1752062239924936 [Eh]
	 SCS Opposite-Spin Energy  =      -1.8654209720296264 [Eh]
	 SCS Correlation Energy    =      -2.0406271960221201 [Eh]
	 SCS Total Energy          =    -815.0425138616197955 [Eh]
	-----------------------------------------------------------

  Dipole Moment: [D]
     X:    -0.8347      Y:     0.1839      Z:    -0.0000     Total:     0.8547

*** Psi4 exiting successfully. Buy a developer a beer!
