                               Psi4 1.3.2 release

  ==> Input File <==

--------------------------------------------------------------------------
#psi4
#
memory 32 gb

molecule  {
0 1
  S        1.7618360    -1.1877300    -0.0001100
  N       -1.1892720    -1.1162850     0.0000840
  N        1.4363420     1.3812950    -0.0000570
  C       -0.6888070     0.1366280     0.0000400
  C        0.7702180     0.2369850    -0.0000350
  C       -1.4868030     1.2893490     0.0000580
  C       -2.8690220     1.1312400     0.0001290
  C       -3.4040470    -0.1590480     0.0001760
  C       -2.5262420    -1.2439110     0.0001500
  C        3.1506810    -0.1849920    -0.0001670
  C        2.7828300     1.1426020    -0.0001250
  H       -1.0124600     2.2659460     0.0000190
  H       -3.5213850     2.0011240     0.0001460
  H       -4.4778440    -0.3237170     0.0002310
  H       -2.9027010    -2.2653680     0.0001840
  H        4.2419191    -0.6403610    -0.0002293
  H        3.4730500     1.9793660    -0.0001460
units angstrom
no_reorient  #important for SAPT in psi4, default
symmetry c1  #important for SAPT in psi4, default
}

set PROPERTIES_ORIGIN ["COM"]
properties('MP2/aug-cc-pvtz', properties = ['dipole'])
--------------------------------------------------------------------------

    Molecular point group: c1
  Charge       = 0
  Multiplicity = 1
  Basis Set: AUG-CC-PVTZ
    Blend: AUG-CC-PVTZ
  Basis Set: (AUG-CC-PVTZ AUX)
    Blend: AUG-CC-PVTZ-JKFIT

    Orbital Energies [Eh]
    ---------------------

    Doubly Occupied:

       1A    -91.996417     2A    -15.579047     3A    -15.574860
       4A    -11.314020     5A    -11.297603     6A    -11.285607
       7A    -11.275446     8A    -11.270318     9A    -11.267694
      10A    -11.251476    11A    -11.250082    12A     -8.996379
      13A     -6.677134    14A     -6.676590    15A     -6.675914
      16A     -1.287830    17A     -1.260500    18A     -1.096651
      19A     -1.067775    20A     -1.061302    21A     -0.985636
      22A     -0.876235    23A     -0.869189    24A     -0.783838
      25A     -0.765431    26A     -0.703698    27A     -0.678477
      28A     -0.665045    29A     -0.639007    30A     -0.593629
      31A     -0.585683    32A     -0.581762    33A     -0.550157
      34A     -0.536269    35A     -0.527884    36A     -0.503301
      37A     -0.444376    38A     -0.424896    39A     -0.399003
      40A     -0.392767    41A     -0.371733    42A     -0.307224

  @DF-RHF Final Energy:  -813.00180652349877

   => Energetics <=

    Nuclear Repulsion Energy =            626.4277111314521562
    One-Electron Energy =               -2356.1632702733022597
    Two-Electron Energy =                 916.7337526183512182
    Total Energy =                       -813.0018065234987716
  Basis Set: (AUG-CC-PVTZ AUX)
    Blend: AUG-CC-PVTZ-RI
    Molecular point group: c1

    Geometry (in Angstrom), charge = 0, multiplicity = 1:

       Center              X                  Y                   Z               Mass
    ------------   -----------------  -----------------  -----------------  -----------------
         S            1.735280249455    -1.168989705379    -0.000108638835    31.972071174400
         N           -1.215827750545    -1.097544705379     0.000085361165    14.003074004430
         N            1.409786249455     1.400035294621    -0.000055638835    14.003074004430
         C           -0.715362750545     0.155368294621     0.000041361165    12.000000000000
         C            0.743662249455     0.255725294621    -0.000033638835    12.000000000000
         C           -1.513358750545     1.308089294621     0.000059361165    12.000000000000
         C           -2.895577750545     1.149980294621     0.000130361165    12.000000000000
         C           -3.430602750545    -0.140307705379     0.000177361165    12.000000000000
         C           -2.552797750545    -1.225170705379     0.000151361165    12.000000000000
         C            3.124125249455    -0.166251705379    -0.000165638835    12.000000000000
         C            2.756274249455     1.161342294621    -0.000123638835    12.000000000000
         H           -1.039015750545     2.284686294621     0.000020361165     1.007825032230
         H           -3.547940750545     2.019864294621     0.000147361165     1.007825032230
         H           -4.504399750545    -0.304976705379     0.000232361165     1.007825032230
         H           -2.929256750545    -2.246627705379     0.000185361165     1.007825032230
         H            4.215363349455    -0.621620705379    -0.000227938835     1.007825032230
         H            3.446494249455     1.998106294621    -0.000144638835     1.007825032230

  Basis Set: AUG-CC-PVTZ
    Blend: AUG-CC-PVTZ
  Basis Set: (AUG-CC-PVTZ AUX)
    Blend: AUG-CC-PVTZ-JKFIT
	 Reference Energy          =    -813.0018065234987716 [Eh]
	 Singles Energy            =      -0.0000000000000000 [Eh]
	 Same-Spin Energy          =      -0.5256126031559633 [Eh]
	 Opposite-Spin Energy      =      -1.5544460350318978 [Eh]
	 Correlation Energy        =      -2.0800586381878610 [Eh]
	 Total Energy              =    -815.0818651616866646 [Eh]

	 ================> DF-SCS-MP2 Energies <==================
	-----------------------------------------------------------
	 SCS Same-Spin Scale       =       0.3333333333333333 [-]
	 SCS Opposite-Spin Scale   =       1.2000000000000000 [-]
	 SCS Same-Spin Energy      =      -0.1752042010519878 [Eh]
	 SCS Opposite-Spin Energy  =      -1.8653352420382774 [Eh]
	 SCS Correlation Energy    =      -2.0405394430902652 [Eh]
	 SCS Total Energy          =    -815.0423459665889823 [Eh]
	-----------------------------------------------------------

  Dipole Moment: [D]
     X:    -0.7930      Y:     0.1865      Z:    -0.0000     Total:     0.8147

*** Psi4 exiting successfully. Buy a developer a beer!
