                               Psi4 1.3.2 release

  ==> Input File <==

--------------------------------------------------------------------------
#psi4
#
memory 32 gb

molecule  {
0 1
  S        1.7865497    -1.1702069    -0.0001110
  N       -1.1892720    -1.1162850     0.0000840
  N        1.4363420     1.3812950    -0.0000570
  C       -0.6888070     0.1366280     0.0000400
  C        0.7702180     0.2369850    -0.0000350
  C       -1.4868030     1.2893490     0.0000580
  C       -2.8690220     1.1312400     0.0001290
  C       -3.4040470    -0.1590480     0.0001760
  C       -2.5262420    -1.2439110     0.0001500
  C        3.1506810    -0.1849920    -0.0001670
  C        2.7828300     1.1426020    -0.0001250
  H       -1.0124600     2.2659460     0.0000190
  H       -3.5213850     2.0011240     0.0001460
  H       -4.4778440    -0.3237170     0.0002310
  H       -2.9027010    -2.2653680     0.0001840
  H        4.1496320    -0.6018500    -0.0002240
  H        3.4730500     1.9793660    -0.0001460
units angstrom
no_reorient  #important for SAPT in psi4, default
symmetry c1  #important for SAPT in psi4, default
}

set PROPERTIES_ORIGIN ["COM"]
properties('MP2/aug-cc-pvtz', properties = ['dipole'])
--------------------------------------------------------------------------

    Molecular point group: c1
  Charge       = 0
  Multiplicity = 1
  Basis Set: AUG-CC-PVTZ
    Blend: AUG-CC-PVTZ
  Basis Set: (AUG-CC-PVTZ AUX)
    Blend: AUG-CC-PVTZ-JKFIT

    Orbital Energies [Eh]
    ---------------------

    Doubly Occupied:

       1A    -91.995009     2A    -15.578447     3A    -15.574549
       4A    -11.312645     5A    -11.297606     6A    -11.285167
       7A    -11.269365     8A    -11.267362     9A    -11.263302
      10A    -11.250978    11A    -11.249686    12A     -8.995751
      13A     -6.676564    14A     -6.676015    15A     -6.675314
      16A     -1.288362    17A     -1.260590    18A     -1.096327
      19A     -1.072466    20A     -1.064232    21A     -0.985820
      22A     -0.876796    23A     -0.869113    24A     -0.789915
      25A     -0.767644    26A     -0.708958    27A     -0.680229
      28A     -0.668904    29A     -0.639945    30A     -0.594073
      31A     -0.587247    32A     -0.582242    33A     -0.559675
      34A     -0.537036    35A     -0.530115    36A     -0.503633
      37A     -0.443917    38A     -0.424541    39A     -0.400693
      40A     -0.392982    41A     -0.370751    42A     -0.306220

  @DF-RHF Final Energy:  -813.00921873772472

   => Energetics <=

    Nuclear Repulsion Energy =            627.4451733012930390
    One-Electron Energy =               -2358.1684107106416377
    Two-Electron Energy =                 917.7140186716239896
    Total Energy =                       -813.0092187377247228
  Basis Set: (AUG-CC-PVTZ AUX)
    Blend: AUG-CC-PVTZ-RI
    Molecular point group: c1

    Geometry (in Angstrom), charge = 0, multiplicity = 1:

       Center              X                  Y                   Z               Mass
    ------------   -----------------  -----------------  -----------------  -----------------
         S            1.755691291241    -1.155163945444    -0.000109474474    31.972071174400
         N           -1.220130408759    -1.101242045444     0.000085525526    14.003074004430
         N            1.405483591241     1.396337954556    -0.000055474474    14.003074004430
         C           -0.719665408759     0.151670954556     0.000041525526    12.000000000000
         C            0.739359591241     0.252027954556    -0.000033474474    12.000000000000
         C           -1.517661408759     1.304391954556     0.000059525526    12.000000000000
         C           -2.899880408759     1.146282954556     0.000130525526    12.000000000000
         C           -3.434905408759    -0.144005045444     0.000177525526    12.000000000000
         C           -2.557100408759    -1.228868045444     0.000151525526    12.000000000000
         C            3.119822591241    -0.169949045444    -0.000165474474    12.000000000000
         C            2.751971591241     1.157644954556    -0.000123474474    12.000000000000
         H           -1.043318408759     2.280988954556     0.000020525526     1.007825032230
         H           -3.552243408759     2.016166954556     0.000147525526     1.007825032230
         H           -4.508702408759    -0.308674045444     0.000232525526     1.007825032230
         H           -2.933559408759    -2.250325045444     0.000185525526     1.007825032230
         H            4.118773591241    -0.586807045444    -0.000222474474     1.007825032230
         H            3.442191591241     1.994408954556    -0.000144474474     1.007825032230

  Basis Set: AUG-CC-PVTZ
    Blend: AUG-CC-PVTZ
  Basis Set: (AUG-CC-PVTZ AUX)
    Blend: AUG-CC-PVTZ-JKFIT
	 Reference Energy          =    -813.0092187377247228 [Eh]
	 Singles Energy            =      -0.0000000000000000 [Eh]
	 Same-Spin Energy          =      -0.5256179626374449 [Eh]
	 Opposite-Spin Energy      =      -1.5533494532227763 [Eh]
	 Correlation Energy        =      -2.0789674158602214 [Eh]
	 Total Energy              =    -815.0881861535849566 [Eh]

	 ================> DF-SCS-MP2 Energies <==================
	-----------------------------------------------------------
	 SCS Same-Spin Scale       =       0.3333333333333333 [-]
	 SCS Opposite-Spin Scale   =       1.2000000000000000 [-]
	 SCS Same-Spin Energy      =      -0.1752059875458150 [Eh]
	 SCS Opposite-Spin Energy  =      -1.8640193438673314 [Eh]
	 SCS Correlation Energy    =      -2.0392253314131463 [Eh]
	 SCS Total Energy          =    -815.0484440691378722 [Eh]
	-----------------------------------------------------------

  Dipole Moment: [D]
     X:    -0.7535      Y:     0.1844      Z:    -0.0000     Total:     0.7757

*** Psi4 exiting successfully. Buy a developer a beer!
