                               Psi4 1.3.2 release

  ==> Input File <==

--------------------------------------------------------------------------
#psi4
#
memory 32 gb

molecule  {
0 1
  S        1.7618360    -1.1877300    -0.0001100
  N       -1.1892720    -1.1162850     0.0000840
  N        1.4363420     1.3812950    -0.0000570
  C       -0.6888070     0.1366280     0.0000400
  C        0.7702180     0.2369850    -0.0000350
  C       -1.3729650     1.1249078     0.0000554
  C       -2.8690220     1.1312400     0.0001290
  C       -3.4040470    -0.1590480     0.0001760
  C       -2.5262420    -1.2439110     0.0001500
  C        3.1506810    -0.1849920    -0.0001670
  C        2.7828300     1.1426020    -0.0001250
  H       -1.0124600     2.2659460     0.0000190
  H       -3.5213850     2.0011240     0.0001460
  H       -4.4778440    -0.3237170     0.0002310
  H       -2.9027010    -2.2653680     0.0001840
  H        4.1496320    -0.6018500    -0.0002240
  H        3.4730500     1.9793660    -0.0001460
units angstrom
no_reorient  #important for SAPT in psi4, default
symmetry c1  #important for SAPT in psi4, default
}

set PROPERTIES_ORIGIN ["COM"]
properties('MP2/aug-cc-pvtz', properties = ['dipole'])
--------------------------------------------------------------------------

    Molecular point group: c1
  Charge       = 0
  Multiplicity = 1
  Basis Set: AUG-CC-PVTZ
    Blend: AUG-CC-PVTZ
  Basis Set: (AUG-CC-PVTZ AUX)
    Blend: AUG-CC-PVTZ-JKFIT

    Orbital Energies [Eh]
    ---------------------

    Doubly Occupied:

       1A    -91.992074     2A    -15.575578     3A    -15.568604
       4A    -11.309792     5A    -11.290818     6A    -11.282319
       7A    -11.266543     8A    -11.264504     9A    -11.260154
      10A    -11.254538    11A    -11.241740    12A     -8.992123
      13A     -6.672903    14A     -6.672354    15A     -6.671697
      16A     -1.291329    17A     -1.262643    18A     -1.093533
      19A     -1.084835    20A     -1.058710    21A     -0.988059
      22A     -0.891747    23A     -0.858828    24A     -0.792240
      25A     -0.767390    26A     -0.704393    27A     -0.679756
      28A     -0.671403    29A     -0.635478    30A     -0.593450
      31A     -0.589116    32A     -0.588723    33A     -0.560620
      34A     -0.538586    35A     -0.502455    36A     -0.484378
      37A     -0.442950    38A     -0.423968    39A     -0.406901
      40A     -0.384405    41A     -0.373702    42A     -0.314224

  @DF-RHF Final Energy:  -812.94884289376421

   => Energetics <=

    Nuclear Repulsion Energy =            630.6125016745786525
    One-Electron Energy =               -2364.5235618523474841
    Two-Electron Energy =                 920.9622172840046233
    Total Energy =                       -812.9488428937642084
  Basis Set: (AUG-CC-PVTZ AUX)
    Blend: AUG-CC-PVTZ-RI
    Molecular point group: c1

    Geometry (in Angstrom), charge = 0, multiplicity = 1:

       Center              X                  Y                   Z               Mass
    ------------   -----------------  -----------------  -----------------  -----------------
         S            1.727423156909    -1.157050313138    -0.000108479239    31.972071174400
         N           -1.223684843091    -1.085605313138     0.000085520761    14.003074004430
         N            1.401929156909     1.411974686862    -0.000055479239    14.003074004430
         C           -0.723219843091     0.167307686862     0.000041520761    12.000000000000
         C            0.735805156909     0.267664686862    -0.000033479239    12.000000000000
         C           -1.407377843091     1.155587486862     0.000056920761    12.000000000000
         C           -2.903434843091     1.161919686862     0.000130520761    12.000000000000
         C           -3.438459843091    -0.128368313138     0.000177520761    12.000000000000
         C           -2.560654843091    -1.213231313138     0.000151520761    12.000000000000
         C            3.116268156909    -0.154312313138    -0.000165479239    12.000000000000
         C            2.748417156909     1.173281686862    -0.000123479239    12.000000000000
         H           -1.046872843091     2.296625686862     0.000020520761     1.007825032230
         H           -3.555797843091     2.031803686862     0.000147520761     1.007825032230
         H           -4.512256843091    -0.293037313138     0.000232520761     1.007825032230
         H           -2.937113843091    -2.234688313138     0.000185520761     1.007825032230
         H            4.115219156909    -0.571170313138    -0.000222479239     1.007825032230
         H            3.438637156909     2.010045686862    -0.000144479239     1.007825032230

  Basis Set: AUG-CC-PVTZ
    Blend: AUG-CC-PVTZ
  Basis Set: (AUG-CC-PVTZ AUX)
    Blend: AUG-CC-PVTZ-JKFIT
	 Reference Energy          =    -812.9488428937642084 [Eh]
	 Singles Energy            =      -0.0000000000000000 [Eh]
	 Same-Spin Energy          =      -0.5248954444033542 [Eh]
	 Opposite-Spin Energy      =      -1.5553272533899141 [Eh]
	 Correlation Energy        =      -2.0802226977932685 [Eh]
	 Total Energy              =    -815.0290655915574689 [Eh]

	 ================> DF-SCS-MP2 Energies <==================
	-----------------------------------------------------------
	 SCS Same-Spin Scale       =       0.3333333333333333 [-]
	 SCS Opposite-Spin Scale   =       1.2000000000000000 [-]
	 SCS Same-Spin Energy      =      -0.1749651481344514 [Eh]
	 SCS Opposite-Spin Energy  =      -1.8663927040678967 [Eh]
	 SCS Correlation Energy    =      -2.0413578522023483 [Eh]
	 SCS Total Energy          =    -814.9902007459666038 [Eh]
	-----------------------------------------------------------

  Dipole Moment: [D]
     X:    -1.1903      Y:     0.1544      Z:     0.0000     Total:     1.2003

*** Psi4 exiting successfully. Buy a developer a beer!
