                               Psi4 1.3.2 release

  ==> Input File <==

--------------------------------------------------------------------------
#psi4
#
memory 32 gb

molecule  {
0 1
  S        1.7618360    -1.1877300    -0.0001100
  N       -1.1673294    -1.1248285     0.0000831
  N        1.4363420     1.3812950    -0.0000570
  C       -0.6888070     0.1366280     0.0000400
  C        0.7702180     0.2369850    -0.0000350
  C       -1.4868030     1.2893490     0.0000580
  C       -2.8690220     1.1312400     0.0001290
  C       -3.4040470    -0.1590480     0.0001760
  C       -2.5262420    -1.2439110     0.0001500
  C        3.1506810    -0.1849920    -0.0001670
  C        2.7828300     1.1426020    -0.0001250
  H       -1.0124600     2.2659460     0.0000190
  H       -3.5213850     2.0011240     0.0001460
  H       -4.4778440    -0.3237170     0.0002310
  H       -2.9027010    -2.2653680     0.0001840
  H        4.1496320    -0.6018500    -0.0002240
  H        3.4730500     1.9793660    -0.0001460
units angstrom
no_reorient  #important for SAPT in psi4, default
symmetry c1  #important for SAPT in psi4, default
}

set PROPERTIES_ORIGIN ["COM"]
properties('MP2/aug-cc-pvtz', properties = ['dipole'])
--------------------------------------------------------------------------

    Molecular point group: c1
  Charge       = 0
  Multiplicity = 1
  Basis Set: AUG-CC-PVTZ
    Blend: AUG-CC-PVTZ
  Basis Set: (AUG-CC-PVTZ AUX)
    Blend: AUG-CC-PVTZ-JKFIT

    Orbital Energies [Eh]
    ---------------------

    Doubly Occupied:

       1A    -91.995338     2A    -15.581956     3A    -15.574089
       4A    -11.313091     5A    -11.297775     6A    -11.288058
       7A    -11.269762     8A    -11.268554     9A    -11.264798
      10A    -11.252100    11A    -11.250160    12A     -8.995359
      13A     -6.676124    14A     -6.675572    15A     -6.674907
      16A     -1.286576    17A     -1.256887    18A     -1.097464
      19A     -1.067369    20A     -1.061209    21A     -0.986308
      22A     -0.876382    23A     -0.869553    24A     -0.790308
      25A     -0.765303    26A     -0.707035    27A     -0.679308
      28A     -0.667974    29A     -0.639681    30A     -0.593265
      31A     -0.587439    32A     -0.580797    33A     -0.557839
      34A     -0.534441    35A     -0.527895    36A     -0.502890
      37A     -0.445900    38A     -0.426765    39A     -0.399619
      40A     -0.391821    41A     -0.369981    42A     -0.307528

  @DF-RHF Final Energy:  -813.00757869552376

   => Energetics <=

    Nuclear Repulsion Energy =            626.7505676468077809
    One-Electron Energy =               -2356.8059438535228765
    Two-Electron Energy =                 917.0477975111914475
    Total Energy =                       -813.0075786955237618
  Basis Set: (AUG-CC-PVTZ AUX)
    Blend: AUG-CC-PVTZ-RI
    Molecular point group: c1

    Geometry (in Angstrom), charge = 0, multiplicity = 1:

       Center              X                  Y                   Z               Mass
    ------------   -----------------  -----------------  -----------------  -----------------
         S            1.733957895632    -1.168490876011    -0.000108594019    31.972071174400
         N           -1.195207504368    -1.105589376011     0.000084505981    14.003074004430
         N            1.408463895632     1.400534123989    -0.000055594019    14.003074004430
         C           -0.716685104368     0.155867123989     0.000041405981    12.000000000000
         C            0.742339895632     0.256224123989    -0.000033594019    12.000000000000
         C           -1.514681104368     1.308588123989     0.000059405981    12.000000000000
         C           -2.896900104368     1.150479123989     0.000130405981    12.000000000000
         C           -3.431925104368    -0.139808876011     0.000177405981    12.000000000000
         C           -2.554120104368    -1.224671876011     0.000151405981    12.000000000000
         C            3.122802895632    -0.165752876011    -0.000165594019    12.000000000000
         C            2.754951895632     1.161841123989    -0.000123594019    12.000000000000
         H           -1.040338104368     2.285185123989     0.000020405981     1.007825032230
         H           -3.549263104368     2.020363123989     0.000147405981     1.007825032230
         H           -4.505722104368    -0.304477876011     0.000232405981     1.007825032230
         H           -2.930579104368    -2.246128876011     0.000185405981     1.007825032230
         H            4.121753895632    -0.582610876011    -0.000222594019     1.007825032230
         H            3.445171895632     1.998605123989    -0.000144594019     1.007825032230

  Basis Set: AUG-CC-PVTZ
    Blend: AUG-CC-PVTZ
  Basis Set: (AUG-CC-PVTZ AUX)
    Blend: AUG-CC-PVTZ-JKFIT
	 Reference Energy          =    -813.0075786955237618 [Eh]
	 Singles Energy            =      -0.0000000000000000 [Eh]
	 Same-Spin Energy          =      -0.5255585551612429 [Eh]
	 Opposite-Spin Energy      =      -1.5544235356524385 [Eh]
	 Correlation Energy        =      -2.0799820908136812 [Eh]
	 Total Energy              =    -815.0875607863374626 [Eh]

	 ================> DF-SCS-MP2 Energies <==================
	-----------------------------------------------------------
	 SCS Same-Spin Scale       =       0.3333333333333333 [-]
	 SCS Opposite-Spin Scale   =       1.2000000000000000 [-]
	 SCS Same-Spin Energy      =      -0.1751861850537476 [Eh]
	 SCS Opposite-Spin Energy  =      -1.8653082427829262 [Eh]
	 SCS Correlation Energy    =      -2.0404944278366739 [Eh]
	 SCS Total Energy          =    -815.0480731233603819 [Eh]
	-----------------------------------------------------------

  Dipole Moment: [D]
     X:    -0.8596      Y:     0.2129      Z:    -0.0000     Total:     0.8856

*** Psi4 exiting successfully. Buy a developer a beer!
