                               Psi4 1.3.2 release

  ==> Input File <==

--------------------------------------------------------------------------
#psi4
#
memory 32 gb

molecule  {
0 1
  S        1.7618360    -1.1877300    -0.0001100
  N       -1.1892720    -1.1162850     0.0000840
  N        1.4363420     1.3812950    -0.0000570
  C       -0.6888070     0.1366280     0.0000400
  C        0.9245735     0.3328326    -0.0000416
  C       -1.4868030     1.2893490     0.0000580
  C       -2.8690220     1.1312400     0.0001290
  C       -3.4040470    -0.1590480     0.0001760
  C       -2.5262420    -1.2439110     0.0001500
  C        3.1506810    -0.1849920    -0.0001670
  C        2.7828300     1.1426020    -0.0001250
  H       -1.0124600     2.2659460     0.0000190
  H       -3.5213850     2.0011240     0.0001460
  H       -4.4778440    -0.3237170     0.0002310
  H       -2.9027010    -2.2653680     0.0001840
  H        4.1496320    -0.6018500    -0.0002240
  H        3.4730500     1.9793660    -0.0001460
units angstrom
no_reorient  #important for SAPT in psi4, default
symmetry c1  #important for SAPT in psi4, default
}

set PROPERTIES_ORIGIN ["COM"]
properties('MP2/aug-cc-pvtz', properties = ['dipole'])
--------------------------------------------------------------------------

    Molecular point group: c1
  Charge       = 0
  Multiplicity = 1
  Basis Set: AUG-CC-PVTZ
    Blend: AUG-CC-PVTZ
  Basis Set: (AUG-CC-PVTZ AUX)
    Blend: AUG-CC-PVTZ-JKFIT

    Orbital Energies [Eh]
    ---------------------

    Doubly Occupied:

       1A    -91.988098     2A    -15.577058     3A    -15.564535
       4A    -11.307149     5A    -11.299288     6A    -11.283554
       7A    -11.271965     8A    -11.266548     9A    -11.264845
      10A    -11.247732    11A    -11.245085    12A     -8.989379
      13A     -6.670178    14A     -6.669436    15A     -6.668613
      16A     -1.345712    17A     -1.261026    18A     -1.093873
      19A     -1.082343    20A     -1.048213    21A     -0.985422
      22A     -0.865105    23A     -0.858565    24A     -0.808818
      25A     -0.751786    26A     -0.714130    27A     -0.681020
      28A     -0.664043    29A     -0.635905    30A     -0.600488
      31A     -0.592758    32A     -0.587010    33A     -0.558229
      34A     -0.542018    35A     -0.519472    36A     -0.504636
      37A     -0.450260    38A     -0.411198    39A     -0.410933
      40A     -0.390650    41A     -0.363334    42A     -0.319467

  @DF-RHF Final Energy:  -812.97283073505218

   => Energetics <=

    Nuclear Repulsion Energy =            627.5938950257982469
    One-Electron Energy =               -2358.4136957365712988
    Two-Electron Energy =                 917.8469699757208673
    Total Energy =                       -812.9728307350521845
  Basis Set: (AUG-CC-PVTZ AUX)
    Blend: AUG-CC-PVTZ-RI
    Molecular point group: c1

    Geometry (in Angstrom), charge = 0, multiplicity = 1:

       Center              X                  Y                   Z               Mass
    ------------   -----------------  -----------------  -----------------  -----------------
         S            1.724422326842    -1.176327969887    -0.000108182989    31.972071174400
         N           -1.226685673158    -1.104882969887     0.000085817011    14.003074004430
         N            1.398928326842     1.392697030113    -0.000055182989    14.003074004430
         C           -0.726220673158     0.148030030113     0.000041817011    12.000000000000
         C            0.887159826842     0.344234630113    -0.000039782989    12.000000000000
         C           -1.524216673158     1.300751030113     0.000059817011    12.000000000000
         C           -2.906435673158     1.142642030113     0.000130817011    12.000000000000
         C           -3.441460673158    -0.147645969887     0.000177817011    12.000000000000
         C           -2.563655673158    -1.232508969887     0.000151817011    12.000000000000
         C            3.113267326842    -0.173589969887    -0.000165182989    12.000000000000
         C            2.745416326842     1.154004030113    -0.000123182989    12.000000000000
         H           -1.049873673158     2.277348030113     0.000020817011     1.007825032230
         H           -3.558798673158     2.012526030113     0.000147817011     1.007825032230
         H           -4.515257673158    -0.312314969887     0.000232817011     1.007825032230
         H           -2.940114673158    -2.253965969887     0.000185817011     1.007825032230
         H            4.112218326842    -0.590447969887    -0.000222182989     1.007825032230
         H            3.435636326842     1.990768030113    -0.000144182989     1.007825032230

  Basis Set: AUG-CC-PVTZ
    Blend: AUG-CC-PVTZ
  Basis Set: (AUG-CC-PVTZ AUX)
    Blend: AUG-CC-PVTZ-JKFIT
	 Reference Energy          =    -812.9728307350521845 [Eh]
	 Singles Energy            =      -0.0000000000000000 [Eh]
	 Same-Spin Energy          =      -0.5210787078340035 [Eh]
	 Opposite-Spin Energy      =      -1.5483484128140776 [Eh]
	 Correlation Energy        =      -2.0694271206480810 [Eh]
	 Total Energy              =    -815.0422578557003135 [Eh]

	 ================> DF-SCS-MP2 Energies <==================
	-----------------------------------------------------------
	 SCS Same-Spin Scale       =       0.3333333333333333 [-]
	 SCS Opposite-Spin Scale   =       1.2000000000000000 [-]
	 SCS Same-Spin Energy      =      -0.1736929026113345 [Eh]
	 SCS Opposite-Spin Energy  =      -1.8580180953768930 [Eh]
	 SCS Correlation Energy    =      -2.0317109979882275 [Eh]
	 SCS Total Energy          =    -815.0045417330404689 [Eh]
	-----------------------------------------------------------

  Dipole Moment: [D]
     X:    -0.8365      Y:     0.3916      Z:    -0.0000     Total:     0.9237

*** Psi4 exiting successfully. Buy a developer a beer!
