                               Psi4 1.3.2 release

  ==> Input File <==

--------------------------------------------------------------------------
#psi4
#
memory 32 gb

molecule  {
0 1
  S        1.7618360    -1.1877300    -0.0001100
  N       -1.1452411    -1.1329877     0.0000822
  N        1.4363420     1.3812950    -0.0000570
  C       -0.6888070     0.1366280     0.0000400
  C        0.7702180     0.2369850    -0.0000350
  C       -1.4868030     1.2893490     0.0000580
  C       -2.8690220     1.1312400     0.0001290
  C       -3.4040470    -0.1590480     0.0001760
  C       -2.5262420    -1.2439110     0.0001500
  C        3.1506810    -0.1849920    -0.0001670
  C        2.7828300     1.1426020    -0.0001250
  H       -1.0124600     2.2659460     0.0000190
  H       -3.5213850     2.0011240     0.0001460
  H       -4.4778440    -0.3237170     0.0002310
  H       -2.9027010    -2.2653680     0.0001840
  H        4.1496320    -0.6018500    -0.0002240
  H        3.4730500     1.9793660    -0.0001460
units angstrom
no_reorient  #important for SAPT in psi4, default
symmetry c1  #important for SAPT in psi4, default
}

set PROPERTIES_ORIGIN ["COM"]
properties('MP2/aug-cc-pvtz', properties = ['dipole'])
--------------------------------------------------------------------------

    Molecular point group: c1
  Charge       = 0
  Multiplicity = 1
  Basis Set: AUG-CC-PVTZ
    Blend: AUG-CC-PVTZ
  Basis Set: (AUG-CC-PVTZ AUX)
    Blend: AUG-CC-PVTZ-JKFIT

    Orbital Energies [Eh]
    ---------------------

    Doubly Occupied:

       1A    -91.994953     2A    -15.584909     3A    -15.573814
       4A    -11.312384     5A    -11.298157     6A    -11.290540
       7A    -11.269514     8A    -11.269373     9A    -11.264495
      10A    -11.252815    11A    -11.250378    12A     -8.994970
      13A     -6.675734    14A     -6.675178    15A     -6.674513
      16A     -1.285810    17A     -1.253553    18A     -1.098486
      19A     -1.066447    20A     -1.059838    21A     -0.986124
      22A     -0.876382    23A     -0.869204    24A     -0.789773
      25A     -0.764047    26A     -0.706887    27A     -0.678836
      28A     -0.666767    29A     -0.639751    30A     -0.592799
      31A     -0.587086    32A     -0.580186    33A     -0.557159
      34A     -0.532929    35A     -0.526289    36A     -0.502951
      37A     -0.447814    38A     -0.428263    39A     -0.400452
      40A     -0.391157    41A     -0.368383    42A     -0.307956

  @DF-RHF Final Energy:  -813.00476395298119

   => Energetics <=

    Nuclear Repulsion Energy =            626.5612239360191325
    One-Electron Energy =               -2356.4378677243730635
    Two-Electron Energy =                 916.8718798353727379
    Total Energy =                       -813.0047639529811931
  Basis Set: (AUG-CC-PVTZ AUX)
    Blend: AUG-CC-PVTZ-RI
    Molecular point group: c1

    Geometry (in Angstrom), charge = 0, multiplicity = 1:

       Center              X                  Y                   Z               Mass
    ------------   -----------------  -----------------  -----------------  -----------------
         S            1.732048907660    -1.167785714696    -0.000108516236    31.972071174400
         N           -1.175028192340    -1.113043414696     0.000083683764    14.003074004430
         N            1.406554907660     1.401239285304    -0.000055516236    14.003074004430
         C           -0.718594092340     0.156572285304     0.000041483764    12.000000000000
         C            0.740430907660     0.256929285304    -0.000033516236    12.000000000000
         C           -1.516590092340     1.309293285304     0.000059483764    12.000000000000
         C           -2.898809092340     1.151184285304     0.000130483764    12.000000000000
         C           -3.433834092340    -0.139103714696     0.000177483764    12.000000000000
         C           -2.556029092340    -1.223966714696     0.000151483764    12.000000000000
         C            3.120893907660    -0.165047714696    -0.000165516236    12.000000000000
         C            2.753042907660     1.162546285304    -0.000123516236    12.000000000000
         H           -1.042247092340     2.285890285304     0.000020483764     1.007825032230
         H           -3.551172092340     2.021068285304     0.000147483764     1.007825032230
         H           -4.507631092340    -0.303772714696     0.000232483764     1.007825032230
         H           -2.932488092340    -2.245423714696     0.000185483764     1.007825032230
         H            4.119844907660    -0.581905714696    -0.000222516236     1.007825032230
         H            3.443262907660     1.999310285304    -0.000144516236     1.007825032230

  Basis Set: AUG-CC-PVTZ
    Blend: AUG-CC-PVTZ
  Basis Set: (AUG-CC-PVTZ AUX)
    Blend: AUG-CC-PVTZ-JKFIT
	 Reference Energy          =    -813.0047639529811931 [Eh]
	 Singles Energy            =      -0.0000000000000000 [Eh]
	 Same-Spin Energy          =      -0.5257824690861568 [Eh]
	 Opposite-Spin Energy      =      -1.5552752872907942 [Eh]
	 Correlation Energy        =      -2.0810577563769508 [Eh]
	 Total Energy              =    -815.0858217093581288 [Eh]

	 ================> DF-SCS-MP2 Energies <==================
	-----------------------------------------------------------
	 SCS Same-Spin Scale       =       0.3333333333333333 [-]
	 SCS Opposite-Spin Scale   =       1.2000000000000000 [-]
	 SCS Same-Spin Energy      =      -0.1752608230287189 [Eh]
	 SCS Opposite-Spin Energy  =      -1.8663303447489530 [Eh]
	 SCS Correlation Energy    =      -2.0415911677776721 [Eh]
	 SCS Total Energy          =    -815.0463551207589035 [Eh]
	-----------------------------------------------------------

  Dipole Moment: [D]
     X:    -0.9176      Y:     0.2299      Z:    -0.0000     Total:     0.9460

*** Psi4 exiting successfully. Buy a developer a beer!
