                               Psi4 1.3.2 release

  ==> Input File <==

--------------------------------------------------------------------------
#psi4
#
memory 32 gb

molecule  {
0 1
  S        1.7618360    -1.1877300    -0.0001100
  N       -1.1892720    -1.1162850     0.0000840
  N        1.5523059     1.3053974    -0.0000639
  C       -0.6888070     0.1366280     0.0000400
  C        0.7702180     0.2369850    -0.0000350
  C       -1.4868030     1.2893490     0.0000580
  C       -2.8690220     1.1312400     0.0001290
  C       -3.4040470    -0.1590480     0.0001760
  C       -2.5262420    -1.2439110     0.0001500
  C        3.1506810    -0.1849920    -0.0001670
  C        2.7828300     1.1426020    -0.0001250
  H       -1.0124600     2.2659460     0.0000190
  H       -3.5213850     2.0011240     0.0001460
  H       -4.4778440    -0.3237170     0.0002310
  H       -2.9027010    -2.2653680     0.0001840
  H        4.1496320    -0.6018500    -0.0002240
  H        3.4730500     1.9793660    -0.0001460
units angstrom
no_reorient  #important for SAPT in psi4, default
symmetry c1  #important for SAPT in psi4, default
}

set PROPERTIES_ORIGIN ["COM"]
properties('MP2/aug-cc-pvtz', properties = ['dipole'])
--------------------------------------------------------------------------

    Molecular point group: c1
  Charge       = 0
  Multiplicity = 1
  Basis Set: AUG-CC-PVTZ
    Blend: AUG-CC-PVTZ
  Basis Set: (AUG-CC-PVTZ AUX)
    Blend: AUG-CC-PVTZ-JKFIT

    Orbital Energies [Eh]
    ---------------------

    Doubly Occupied:

       1A    -91.996602     2A    -15.578544     3A    -15.558602
       4A    -11.310442     5A    -11.300784     6A    -11.286310
       7A    -11.268141     8A    -11.261344     9A    -11.256428
      10A    -11.250669    11A    -11.250191    12A     -8.996213
      13A     -6.676840    14A     -6.676452    15A     -6.675904
      16A     -1.313006    17A     -1.267308    18A     -1.096775
      19A     -1.075124    20A     -1.058124    21A     -0.992762
      22A     -0.877240    23A     -0.870302    24A     -0.804693
      25A     -0.765127    26A     -0.709391    27A     -0.685766
      28A     -0.668790    29A     -0.649008    30A     -0.606009
      31A     -0.590658    32A     -0.590223    33A     -0.555130
      34A     -0.543542    35A     -0.530845    36A     -0.500347
      37A     -0.434671    38A     -0.411399    39A     -0.399714
      40A     -0.392877    41A     -0.378002    42A     -0.298826

  @DF-RHF Final Energy:  -812.99188955522879

   => Energetics <=

    Nuclear Repulsion Energy =            629.1832568415907190
    One-Electron Energy =               -2361.5320377397410994
    Two-Electron Energy =                 919.3568913429215854
    Total Energy =                       -812.9918895552287950
  Basis Set: (AUG-CC-PVTZ AUX)
    Blend: AUG-CC-PVTZ-RI
    Molecular point group: c1

    Geometry (in Angstrom), charge = 0, multiplicity = 1:

       Center              X                  Y                   Z               Mass
    ------------   -----------------  -----------------  -----------------  -----------------
         S            1.725832076496    -1.162669777657    -0.000108075467    31.972071174400
         N           -1.225275923504    -1.091224777657     0.000085924533    14.003074004430
         N            1.516301976496     1.330457622343    -0.000061975467    14.003074004430
         C           -0.724810923504     0.161688222343     0.000041924533    12.000000000000
         C            0.734214076496     0.262045222343    -0.000033075467    12.000000000000
         C           -1.522806923504     1.314409222343     0.000059924533    12.000000000000
         C           -2.905025923504     1.156300222343     0.000130924533    12.000000000000
         C           -3.440050923504    -0.133987777657     0.000177924533    12.000000000000
         C           -2.562245923504    -1.218850777657     0.000151924533    12.000000000000
         C            3.114677076496    -0.159931777657    -0.000165075467    12.000000000000
         C            2.746826076496     1.167662222343    -0.000123075467    12.000000000000
         H           -1.048463923504     2.291006222343     0.000020924533     1.007825032230
         H           -3.557388923504     2.026184222343     0.000147924533     1.007825032230
         H           -4.513847923504    -0.298656777657     0.000232924533     1.007825032230
         H           -2.938704923504    -2.240307777657     0.000185924533     1.007825032230
         H            4.113628076496    -0.576789777657    -0.000222075467     1.007825032230
         H            3.437046076496     2.004426222343    -0.000144075467     1.007825032230

  Basis Set: AUG-CC-PVTZ
    Blend: AUG-CC-PVTZ
  Basis Set: (AUG-CC-PVTZ AUX)
    Blend: AUG-CC-PVTZ-JKFIT
	 Reference Energy          =    -812.9918895552287950 [Eh]
	 Singles Energy            =      -0.0000000000000000 [Eh]
	 Same-Spin Energy          =      -0.5276085385758789 [Eh]
	 Opposite-Spin Energy      =      -1.5534491216187081 [Eh]
	 Correlation Energy        =      -2.0810576601945869 [Eh]
	 Total Energy              =    -815.0729472154233690 [Eh]

	 ================> DF-SCS-MP2 Energies <==================
	-----------------------------------------------------------
	 SCS Same-Spin Scale       =       0.3333333333333333 [-]
	 SCS Opposite-Spin Scale   =       1.2000000000000000 [-]
	 SCS Same-Spin Energy      =      -0.1758695128586263 [Eh]
	 SCS Opposite-Spin Energy  =      -1.8641389459424496 [Eh]
	 SCS Correlation Energy    =      -2.0400084588010756 [Eh]
	 SCS Total Energy          =    -815.0318980140298208 [Eh]
	-----------------------------------------------------------

  Dipole Moment: [D]
     X:    -0.9382      Y:     0.4263      Z:     0.0000     Total:     1.0305

*** Psi4 exiting successfully. Buy a developer a beer!
