                               Psi4 1.3.2 release

  ==> Input File <==

--------------------------------------------------------------------------
#psi4
#
memory 32 gb

molecule  {
0 1
  S        1.7618360    -1.1877300    -0.0001100
  N       -1.1892720    -1.1162850     0.0000840
  N        1.4363420     1.3812950    -0.0000570
  C       -0.6888070     0.1366280     0.0000400
  C        0.7702180     0.2369850    -0.0000350
  C       -1.4868030     1.2893490     0.0000580
  C       -2.8690220     1.1312400     0.0001290
  C       -3.4040470    -0.1590480     0.0001760
  C       -2.5262420    -1.2439110     0.0001500
  C        3.2317577    -0.1264551    -0.0001703
  C        2.7828300     1.1426020    -0.0001250
  H       -1.0124600     2.2659460     0.0000190
  H       -3.5213850     2.0011240     0.0001460
  H       -4.4778440    -0.3237170     0.0002310
  H       -2.9027010    -2.2653680     0.0001840
  H        4.1496320    -0.6018500    -0.0002240
  H        3.4730500     1.9793660    -0.0001460
units angstrom
no_reorient  #important for SAPT in psi4, default
symmetry c1  #important for SAPT in psi4, default
}

set PROPERTIES_ORIGIN ["COM"]
properties('MP2/aug-cc-pvtz', properties = ['dipole'])
--------------------------------------------------------------------------

    Molecular point group: c1
  Charge       = 0
  Multiplicity = 1
  Basis Set: AUG-CC-PVTZ
    Blend: AUG-CC-PVTZ
  Basis Set: (AUG-CC-PVTZ AUX)
    Blend: AUG-CC-PVTZ-JKFIT

    Orbital Energies [Eh]
    ---------------------

    Doubly Occupied:

       1A    -91.990484     2A    -15.581108     3A    -15.572873
       4A    -11.319150     5A    -11.298537     6A    -11.286651
       7A    -11.269750     8A    -11.268948     9A    -11.264201
      10A    -11.253863    11A    -11.252454    12A     -8.989331
      13A     -6.670061    14A     -6.669431    15A     -6.668870
      16A     -1.286710    17A     -1.260545    18A     -1.098054
      19A     -1.070493    20A     -1.048185    21A     -0.992189
      22A     -0.880993    23A     -0.870234    24A     -0.797573
      25A     -0.766675    26A     -0.711015    27A     -0.681932
      28A     -0.672902    29A     -0.640230    30A     -0.594940
      31A     -0.590837    32A     -0.580471    33A     -0.565740
      34A     -0.535107    35A     -0.530663    36A     -0.482043
      37A     -0.444953    38A     -0.422696    39A     -0.399499
      40A     -0.387128    41A     -0.372657    42A     -0.315266

  @DF-RHF Final Energy:  -813.00405286114449

   => Energetics <=

    Nuclear Repulsion Energy =            625.1262634504718108
    One-Electron Energy =               -2353.5497460453425447
    Two-Electron Energy =                 915.4194297337261332
    Total Energy =                       -813.0040528611444870
  Basis Set: (AUG-CC-PVTZ AUX)
    Blend: AUG-CC-PVTZ-RI
    Molecular point group: c1

    Geometry (in Angstrom), charge = 0, multiplicity = 1:

       Center              X                  Y                   Z               Mass
    ------------   -----------------  -----------------  -----------------  -----------------
         S            1.729849542893    -1.173564643660    -0.000108427395    31.972071174400
         N           -1.221258457107    -1.102119643660     0.000085572605    14.003074004430
         N            1.404355542893     1.395460356340    -0.000055427395    14.003074004430
         C           -0.720793457107     0.150793356340     0.000041572605    12.000000000000
         C            0.738231542893     0.251150356340    -0.000033427395    12.000000000000
         C           -1.518789457107     1.303514356340     0.000059572605    12.000000000000
         C           -2.901008457107     1.145405356340     0.000130572605    12.000000000000
         C           -3.436033457107    -0.144882643660     0.000177572605    12.000000000000
         C           -2.558228457107    -1.229745643660     0.000151572605    12.000000000000
         C            3.199771242893    -0.112289743660    -0.000168727395    12.000000000000
         C            2.750843542893     1.156767356340    -0.000123427395    12.000000000000
         H           -1.044446457107     2.280111356340     0.000020572605     1.007825032230
         H           -3.553371457107     2.015289356340     0.000147572605     1.007825032230
         H           -4.509830457107    -0.309551643660     0.000232572605     1.007825032230
         H           -2.934687457107    -2.251202643660     0.000185572605     1.007825032230
         H            4.117645542893    -0.587684643660    -0.000222427395     1.007825032230
         H            3.441063542893     1.993531356340    -0.000144427395     1.007825032230

  Basis Set: AUG-CC-PVTZ
    Blend: AUG-CC-PVTZ
  Basis Set: (AUG-CC-PVTZ AUX)
    Blend: AUG-CC-PVTZ-JKFIT
	 Reference Energy          =    -813.0040528611444870 [Eh]
	 Singles Energy            =      -0.0000000000000000 [Eh]
	 Same-Spin Energy          =      -0.5236936340548849 [Eh]
	 Opposite-Spin Energy      =      -1.5527557580568661 [Eh]
	 Correlation Energy        =      -2.0764493921117508 [Eh]
	 Total Energy              =    -815.0805022532562134 [Eh]

	 ================> DF-SCS-MP2 Energies <==================
	-----------------------------------------------------------
	 SCS Same-Spin Scale       =       0.3333333333333333 [-]
	 SCS Opposite-Spin Scale   =       1.2000000000000000 [-]
	 SCS Same-Spin Energy      =      -0.1745645446849616 [Eh]
	 SCS Opposite-Spin Energy  =      -1.8633069096682391 [Eh]
	 SCS Correlation Energy    =      -2.0378714543532008 [Eh]
	 SCS Total Energy          =    -815.0419243154976812 [Eh]
	-----------------------------------------------------------

  Dipole Moment: [D]
     X:    -0.9024      Y:     0.2812      Z:    -0.0000     Total:     0.9452

*** Psi4 exiting successfully. Buy a developer a beer!
