                               Psi4 1.3.2 release

  ==> Input File <==

--------------------------------------------------------------------------
#psi4
#
memory 32 gb

molecule  {
0 1
  S        1.7618360    -1.1877300    -0.0001100
  N       -1.1892720    -1.1162850     0.0000840
  N        1.4363420     1.3812950    -0.0000570
  C       -0.6888070     0.1366280     0.0000400
  C        0.6267269     0.1255280    -0.0000292
  C       -1.4868030     1.2893490     0.0000580
  C       -2.8690220     1.1312400     0.0001290
  C       -3.4040470    -0.1590480     0.0001760
  C       -2.5262420    -1.2439110     0.0001500
  C        3.1506810    -0.1849920    -0.0001670
  C        2.7828300     1.1426020    -0.0001250
  H       -1.0124600     2.2659460     0.0000190
  H       -3.5213850     2.0011240     0.0001460
  H       -4.4778440    -0.3237170     0.0002310
  H       -2.9027010    -2.2653680     0.0001840
  H        4.1496320    -0.6018500    -0.0002240
  H        3.4730500     1.9793660    -0.0001460
units angstrom
no_reorient  #important for SAPT in psi4, default
symmetry c1  #important for SAPT in psi4, default
}

set PROPERTIES_ORIGIN ["COM"]
properties('MP2/aug-cc-pvtz', properties = ['dipole'])
--------------------------------------------------------------------------

    Molecular point group: c1
  Charge       = 0
  Multiplicity = 1
  Basis Set: AUG-CC-PVTZ
    Blend: AUG-CC-PVTZ
  Basis Set: (AUG-CC-PVTZ AUX)
    Blend: AUG-CC-PVTZ-JKFIT

    Orbital Energies [Eh]
    ---------------------

    Doubly Occupied:

       1A    -92.006596     2A    -15.580018     3A    -15.577808
       4A    -11.315575     5A    -11.285695     6A    -11.285437
       7A    -11.272445     8A    -11.268766     9A    -11.266622
      10A    -11.253469    11A    -11.253177    12A     -9.005008
      13A     -6.685685    14A     -6.685381    15A     -6.684829
      16A     -1.283746    17A     -1.230703    18A     -1.101319
      19A     -1.087051    20A     -1.051521    21A     -0.983829
      22A     -0.895201    23A     -0.873395    24A     -0.783766
      25A     -0.764669    26A     -0.703461    27A     -0.678370
      28A     -0.673491    29A     -0.643091    30A     -0.601719
      31A     -0.587264    32A     -0.582700    33A     -0.550826
      34A     -0.537429    35A     -0.525694    36A     -0.500273
      37A     -0.436951    38A     -0.417665    39A     -0.407915
      40A     -0.385679    41A     -0.375953    42A     -0.287758

  @DF-RHF Final Energy:  -812.95314810374271

   => Energetics <=

    Nuclear Repulsion Energy =            627.0615466026982858
    One-Electron Energy =               -2357.2734915582441317
    Two-Electron Energy =                 917.2587968518030266
    Total Energy =                       -812.9531481037427056
  Basis Set: (AUG-CC-PVTZ AUX)
    Blend: AUG-CC-PVTZ-RI
    Molecular point group: c1

    Geometry (in Angstrom), charge = 0, multiplicity = 1:

       Center              X                  Y                   Z               Mass
    ------------   -----------------  -----------------  -----------------  -----------------
         S            1.746481610679    -1.160974459013    -0.000109101364    31.972071174400
         N           -1.204626389321    -1.089529459013     0.000084898636    14.003074004430
         N            1.420987610679     1.408050540987    -0.000056101364    14.003074004430
         C           -0.704161389321     0.163383540987     0.000040898636    12.000000000000
         C            0.611372510679     0.152283540987    -0.000028301364    12.000000000000
         C           -1.502157389321     1.316104540987     0.000058898636    12.000000000000
         C           -2.884376389321     1.157995540987     0.000129898636    12.000000000000
         C           -3.419401389321    -0.132292459013     0.000176898636    12.000000000000
         C           -2.541596389321    -1.217155459013     0.000150898636    12.000000000000
         C            3.135326610679    -0.158236459013    -0.000166101364    12.000000000000
         C            2.767475610679     1.169357540987    -0.000124101364    12.000000000000
         H           -1.027814389321     2.292701540987     0.000019898636     1.007825032230
         H           -3.536739389321     2.027879540987     0.000146898636     1.007825032230
         H           -4.493198389321    -0.296961459013     0.000231898636     1.007825032230
         H           -2.918055389321    -2.238612459013     0.000184898636     1.007825032230
         H            4.134277610679    -0.575094459013    -0.000223101364     1.007825032230
         H            3.457695610679     2.006121540987    -0.000145101364     1.007825032230

  Basis Set: AUG-CC-PVTZ
    Blend: AUG-CC-PVTZ
  Basis Set: (AUG-CC-PVTZ AUX)
    Blend: AUG-CC-PVTZ-JKFIT
	 Reference Energy          =    -812.9531481037427056 [Eh]
	 Singles Energy            =      -0.0000000000000000 [Eh]
	 Same-Spin Energy          =      -0.5324494646275728 [Eh]
	 Opposite-Spin Energy      =      -1.5650251581574834 [Eh]
	 Correlation Energy        =      -2.0974746227850565 [Eh]
	 Total Energy              =    -815.0506227265277630 [Eh]

	 ================> DF-SCS-MP2 Energies <==================
	-----------------------------------------------------------
	 SCS Same-Spin Scale       =       0.3333333333333333 [-]
	 SCS Opposite-Spin Scale   =       1.2000000000000000 [-]
	 SCS Same-Spin Energy      =      -0.1774831548758576 [Eh]
	 SCS Opposite-Spin Energy  =      -1.8780301897889800 [Eh]
	 SCS Correlation Energy    =      -2.0555133446648375 [Eh]
	 SCS Total Energy          =    -815.0086614484075653 [Eh]
	-----------------------------------------------------------

  Dipole Moment: [D]
     X:    -0.4526      Y:     0.1150      Z:    -0.0000     Total:     0.4669

*** Psi4 exiting successfully. Buy a developer a beer!
