                               Psi4 1.3.2 release

  ==> Input File <==

--------------------------------------------------------------------------
#psi4
#
memory 32 gb

molecule  {
0 1
  S        1.7618360    -1.1877300    -0.0001100
  N       -1.1892720    -1.1162850     0.0000840
  N        1.4363420     1.3812950    -0.0000570
  C       -0.6888070     0.1366280     0.0000400
  C        0.7702180     0.2369850    -0.0000350
  C       -1.4868030     1.2893490     0.0000580
  C       -2.8690220     1.1312400     0.0001290
  C       -3.4040470    -0.1590480     0.0001760
  C       -2.5262420    -1.2439110     0.0001500
  C        3.0696043    -0.2435289    -0.0001637
  C        2.7828300     1.1426020    -0.0001250
  H       -1.0124600     2.2659460     0.0000190
  H       -3.5213850     2.0011240     0.0001460
  H       -4.4778440    -0.3237170     0.0002310
  H       -2.9027010    -2.2653680     0.0001840
  H        4.1496320    -0.6018500    -0.0002240
  H        3.4730500     1.9793660    -0.0001460
units angstrom
no_reorient  #important for SAPT in psi4, default
symmetry c1  #important for SAPT in psi4, default
}

set PROPERTIES_ORIGIN ["COM"]
properties('MP2/aug-cc-pvtz', properties = ['dipole'])
--------------------------------------------------------------------------

    Molecular point group: c1
  Charge       = 0
  Multiplicity = 1
  Basis Set: AUG-CC-PVTZ
    Blend: AUG-CC-PVTZ
  Basis Set: (AUG-CC-PVTZ AUX)
    Blend: AUG-CC-PVTZ-JKFIT

    Orbital Energies [Eh]
    ---------------------

    Doubly Occupied:

       1A    -91.999661     2A    -15.576297     3A    -15.576038
       4A    -11.307302     5A    -11.295920     6A    -11.283905
       7A    -11.272162     8A    -11.268217     9A    -11.265789
      10A    -11.248287    11A    -11.246873    12A     -9.001808
      13A     -6.682828    14A     -6.681907    15A     -6.681265
      16A     -1.289061    17A     -1.259606    18A     -1.096107
      19A     -1.083854    20A     -1.063850    21A     -0.979349
      22A     -0.872273    23A     -0.867684    24A     -0.784002
      25A     -0.768037    26A     -0.707230    27A     -0.678767
      28A     -0.664083    29A     -0.638345    30A     -0.592175
      31A     -0.585273    32A     -0.583379    33A     -0.552463
      34A     -0.537307    35A     -0.530973    36A     -0.510210
      37A     -0.443563    38A     -0.425399    39A     -0.406059
      40A     -0.393298    41A     -0.368971    42A     -0.298073

  @DF-RHF Final Energy:  -812.99551084814811

   => Energetics <=

    Nuclear Repulsion Energy =            628.9356760699961342
    One-Electron Energy =               -2361.1270722220833704
    Two-Electron Energy =                 919.1958853039391215
    Total Energy =                       -812.9955108481481147
  Basis Set: (AUG-CC-PVTZ AUX)
    Blend: AUG-CC-PVTZ-RI
    Molecular point group: c1

    Geometry (in Angstrom), charge = 0, multiplicity = 1:

       Center              X                  Y                   Z               Mass
    ------------   -----------------  -----------------  -----------------  -----------------
         S            1.741859039982    -1.164893857477    -0.000108916208    31.972071174400
         N           -1.209248960018    -1.093448857477     0.000085083792    14.003074004430
         N            1.416365039982     1.404131142523    -0.000055916208    14.003074004430
         C           -0.708783960018     0.159464142523     0.000041083792    12.000000000000
         C            0.750241039982     0.259821142523    -0.000033916208    12.000000000000
         C           -1.506779960018     1.312185142523     0.000059083792    12.000000000000
         C           -2.888998960018     1.154076142523     0.000130083792    12.000000000000
         C           -3.424023960018    -0.136211857477     0.000177083792    12.000000000000
         C           -2.546218960018    -1.221074857477     0.000151083792    12.000000000000
         C            3.049627339982    -0.220692757477    -0.000162616208    12.000000000000
         C            2.762853039982     1.165438142523    -0.000123916208    12.000000000000
         H           -1.032436960018     2.288782142523     0.000020083792     1.007825032230
         H           -3.541361960018     2.023960142523     0.000147083792     1.007825032230
         H           -4.497820960018    -0.300880857477     0.000232083792     1.007825032230
         H           -2.922677960018    -2.242531857477     0.000185083792     1.007825032230
         H            4.129655039982    -0.579013857477    -0.000222916208     1.007825032230
         H            3.453073039982     2.002202142523    -0.000144916208     1.007825032230

  Basis Set: AUG-CC-PVTZ
    Blend: AUG-CC-PVTZ
  Basis Set: (AUG-CC-PVTZ AUX)
    Blend: AUG-CC-PVTZ-JKFIT
	 Reference Energy          =    -812.9955108481481147 [Eh]
	 Singles Energy            =      -0.0000000000000000 [Eh]
	 Same-Spin Energy          =      -0.5276951480484510 [Eh]
	 Opposite-Spin Energy      =      -1.5555462561067901 [Eh]
	 Correlation Energy        =      -2.0832414041552410 [Eh]
	 Total Energy              =    -815.0787522523033886 [Eh]

	 ================> DF-SCS-MP2 Energies <==================
	-----------------------------------------------------------
	 SCS Same-Spin Scale       =       0.3333333333333333 [-]
	 SCS Opposite-Spin Scale   =       1.2000000000000000 [-]
	 SCS Same-Spin Energy      =      -0.1758983826828170 [Eh]
	 SCS Opposite-Spin Energy  =      -1.8666555073281481 [Eh]
	 SCS Correlation Energy    =      -2.0425538900109652 [Eh]
	 SCS Total Energy          =    -815.0380647381590506 [Eh]
	-----------------------------------------------------------

  Dipole Moment: [D]
     X:    -0.6657      Y:     0.1162      Z:    -0.0000     Total:     0.6757

*** Psi4 exiting successfully. Buy a developer a beer!
