                               Psi4 1.3.2 release

  ==> Input File <==

--------------------------------------------------------------------------
#psi4
#
memory 32 gb

molecule  {
0 1
  S        1.7618360    -1.1877300    -0.0001100
  N       -1.1892720    -1.1162850     0.0000840
  N        1.4363420     1.3812950    -0.0000570
  C       -0.6888070     0.1366280     0.0000400
  C        0.5706894     0.2232607    -0.0000247
  C       -1.4868030     1.2893490     0.0000580
  C       -2.8690220     1.1312400     0.0001290
  C       -3.4040470    -0.1590480     0.0001760
  C       -2.5262420    -1.2439110     0.0001500
  C        3.1506810    -0.1849920    -0.0001670
  C        2.7828300     1.1426020    -0.0001250
  H       -1.0124600     2.2659460     0.0000190
  H       -3.5213850     2.0011240     0.0001460
  H       -4.4778440    -0.3237170     0.0002310
  H       -2.9027010    -2.2653680     0.0001840
  H        4.1496320    -0.6018500    -0.0002240
  H        3.4730500     1.9793660    -0.0001460
units angstrom
no_reorient  #important for SAPT in psi4, default
symmetry c1  #important for SAPT in psi4, default
}

set PROPERTIES_ORIGIN ["COM"]
properties('MP2/aug-cc-pvtz', properties = ['dipole'])
--------------------------------------------------------------------------

    Molecular point group: c1
  Charge       = 0
  Multiplicity = 1
  Basis Set: AUG-CC-PVTZ
    Blend: AUG-CC-PVTZ
  Basis Set: (AUG-CC-PVTZ AUX)
    Blend: AUG-CC-PVTZ-JKFIT

    Orbital Energies [Eh]
    ---------------------

    Doubly Occupied:

       1A    -91.996312     2A    -15.583668     3A    -15.580648
       4A    -11.317035     5A    -11.287934     6A    -11.281294
       7A    -11.272570     8A    -11.270981     9A    -11.269896
      10A    -11.255464    11A    -11.255398    12A     -8.993893
      13A     -6.674595    14A     -6.674023    15A     -6.673606
      16A     -1.287710    17A     -1.233979    18A     -1.105308
      19A     -1.098266    20A     -1.044819    21A     -0.981249
      22A     -0.900893    23A     -0.876915    24A     -0.787793
      25A     -0.765880    26A     -0.701322    27A     -0.682912
      28A     -0.674876    29A     -0.647176    30A     -0.609076
      31A     -0.591024    32A     -0.587640    33A     -0.544258
      34A     -0.541232    35A     -0.523420    36A     -0.493969
      37A     -0.437977    38A     -0.413927    39A     -0.407292
      40A     -0.390604    41A     -0.371958    42A     -0.283753

  @DF-RHF Final Energy:  -812.93478892263238

   => Energetics <=

    Nuclear Repulsion Energy =            626.6911335697831191
    One-Electron Energy =               -2356.5067481180653886
    Two-Electron Energy =                 916.8808256256497771
    Total Energy =                       -812.9347889226323787
  Basis Set: (AUG-CC-PVTZ AUX)
    Blend: AUG-CC-PVTZ-RI
    Molecular point group: c1

    Geometry (in Angstrom), charge = 0, multiplicity = 1:

       Center              X                  Y                   Z               Mass
    ------------   -----------------  -----------------  -----------------  -----------------
         S            1.750631891790    -1.168212793677    -0.000109434646    31.972071174400
         N           -1.200476108210    -1.096767793677     0.000084565354    14.003074004430
         N            1.425137891790     1.400812206323    -0.000056434646    14.003074004430
         C           -0.700011108210     0.156145206323     0.000040565354    12.000000000000
         C            0.559485291790     0.242777906323    -0.000024134646    12.000000000000
         C           -1.498007108210     1.308866206323     0.000058565354    12.000000000000
         C           -2.880226108210     1.150757206323     0.000129565354    12.000000000000
         C           -3.415251108210    -0.139530793677     0.000176565354    12.000000000000
         C           -2.537446108210    -1.224393793677     0.000150565354    12.000000000000
         C            3.139476891790    -0.165474793677    -0.000166434646    12.000000000000
         C            2.771625891790     1.162119206323    -0.000124434646    12.000000000000
         H           -1.023664108210     2.285463206323     0.000019565354     1.007825032230
         H           -3.532589108210     2.020641206323     0.000146565354     1.007825032230
         H           -4.489048108210    -0.304199793677     0.000231565354     1.007825032230
         H           -2.913905108210    -2.245850793677     0.000184565354     1.007825032230
         H            4.138427891790    -0.582332793677    -0.000223434646     1.007825032230
         H            3.461845891790     1.998883206323    -0.000145434646     1.007825032230

  Basis Set: AUG-CC-PVTZ
    Blend: AUG-CC-PVTZ
  Basis Set: (AUG-CC-PVTZ AUX)
    Blend: AUG-CC-PVTZ-JKFIT
	 Reference Energy          =    -812.9347889226323787 [Eh]
	 Singles Energy            =      -0.0000000000000000 [Eh]
	 Same-Spin Energy          =      -0.5330271001703257 [Eh]
	 Opposite-Spin Energy      =      -1.5662534631880480 [Eh]
	 Correlation Energy        =      -2.0992805633583735 [Eh]
	 Total Energy              =    -815.0340694859906989 [Eh]

	 ================> DF-SCS-MP2 Energies <==================
	-----------------------------------------------------------
	 SCS Same-Spin Scale       =       0.3333333333333333 [-]
	 SCS Opposite-Spin Scale   =       1.2000000000000000 [-]
	 SCS Same-Spin Energy      =      -0.1776757000567752 [Eh]
	 SCS Opposite-Spin Energy  =      -1.8795041558256576 [Eh]
	 SCS Correlation Energy    =      -2.0571798558824330 [Eh]
	 SCS Total Energy          =    -814.9919687785147744 [Eh]
	-----------------------------------------------------------

  Dipole Moment: [D]
     X:    -0.7252      Y:     0.3351      Z:    -0.0000     Total:     0.7989

*** Psi4 exiting successfully. Buy a developer a beer!
