                               Psi4 1.3.2 release

  ==> Input File <==

--------------------------------------------------------------------------
#psi4
#
memory 32 gb

molecule  {
0 1
  S        1.7618360    -1.1877300    -0.0001100
  N       -1.1892720    -1.1162850     0.0000840
  N        1.4363420     1.3812950    -0.0000570
  C       -0.6888070     0.1366280     0.0000400
  C        0.7702180     0.2369850    -0.0000350
  C       -1.4868030     1.2893490     0.0000580
  C       -2.8690220     1.1312400     0.0001290
  C       -3.4040470    -0.1590480     0.0001760
  C       -2.5262420    -1.2439110     0.0001500
  C        2.9885276    -0.3020658    -0.0001603
  C        2.7828300     1.1426020    -0.0001250
  H       -1.0124600     2.2659460     0.0000190
  H       -3.5213850     2.0011240     0.0001460
  H       -4.4778440    -0.3237170     0.0002310
  H       -2.9027010    -2.2653680     0.0001840
  H        4.1496320    -0.6018500    -0.0002240
  H        3.4730500     1.9793660    -0.0001460
units angstrom
no_reorient  #important for SAPT in psi4, default
symmetry c1  #important for SAPT in psi4, default
}

set PROPERTIES_ORIGIN ["COM"]
properties('MP2/aug-cc-pvtz', properties = ['dipole'])
--------------------------------------------------------------------------

    Molecular point group: c1
  Charge       = 0
  Multiplicity = 1
  Basis Set: AUG-CC-PVTZ
    Blend: AUG-CC-PVTZ
  Basis Set: (AUG-CC-PVTZ AUX)
    Blend: AUG-CC-PVTZ-JKFIT

    Orbital Energies [Eh]
    ---------------------

    Doubly Occupied:

       1A    -92.002474     2A    -15.578828     3A    -15.572442
       4A    -11.299513     5A    -11.294015     6A    -11.281878
       7A    -11.275003     8A    -11.272477     9A    -11.263555
      10A    -11.244523    11A    -11.243149    12A     -9.008068
      13A     -6.689630    14A     -6.687704    15A     -6.687217
      16A     -1.292058    17A     -1.258376    18A     -1.115352
      19A     -1.089607    20A     -1.060371    21A     -0.971591
      22A     -0.867874    23A     -0.864464    24A     -0.777292
      25A     -0.769466    26A     -0.710028    27A     -0.677556
      28A     -0.659845    29A     -0.636305    30A     -0.590116
      31A     -0.587131    32A     -0.583885    33A     -0.557791
      34A     -0.538850    35A     -0.530110    36A     -0.498934
      37A     -0.443322    38A     -0.424878    39A     -0.418430
      40A     -0.391213    41A     -0.366053    42A     -0.288555

  @DF-RHF Final Energy:  -812.95630619732094

   => Energetics <=

    Nuclear Repulsion Energy =            631.1257088481004303
    One-Electron Energy =               -2365.4241736877002040
    Two-Electron Energy =                 921.3421586422788323
    Total Energy =                       -812.9563061973209415
  Basis Set: (AUG-CC-PVTZ AUX)
    Blend: AUG-CC-PVTZ-RI
    Molecular point group: c1

    Geometry (in Angstrom), charge = 0, multiplicity = 1:

       Center              X                  Y                   Z               Mass
    ------------   -----------------  -----------------  -----------------  -----------------
         S            1.747863788527    -1.160558464385    -0.000109168021    31.972071174400
         N           -1.203244211473    -1.089113464385     0.000084831979    14.003074004430
         N            1.422369788527     1.408466535615    -0.000056168021    14.003074004430
         C           -0.702779211473     0.163799535615     0.000040831979    12.000000000000
         C            0.756245788527     0.264156535615    -0.000034168021    12.000000000000
         C           -1.500775211473     1.316520535615     0.000058831979    12.000000000000
         C           -2.882994211473     1.158411535615     0.000129831979    12.000000000000
         C           -3.418019211473    -0.131876464385     0.000176831979    12.000000000000
         C           -2.540214211473    -1.216739464385     0.000150831979    12.000000000000
         C            2.974555388527    -0.274894264385    -0.000159468021    12.000000000000
         C            2.768857788527     1.169773535615    -0.000124168021    12.000000000000
         H           -1.026432211473     2.293117535615     0.000019831979     1.007825032230
         H           -3.535357211473     2.028295535615     0.000146831979     1.007825032230
         H           -4.491816211473    -0.296545464385     0.000231831979     1.007825032230
         H           -2.916673211473    -2.238196464385     0.000184831979     1.007825032230
         H            4.135659788527    -0.574678464385    -0.000223168021     1.007825032230
         H            3.459077788527     2.006537535615    -0.000145168021     1.007825032230

  Basis Set: AUG-CC-PVTZ
    Blend: AUG-CC-PVTZ
  Basis Set: (AUG-CC-PVTZ AUX)
    Blend: AUG-CC-PVTZ-JKFIT
	 Reference Energy          =    -812.9563061973209415 [Eh]
	 Singles Energy            =      -0.0000000000000000 [Eh]
	 Same-Spin Energy          =      -0.5305549000333094 [Eh]
	 Opposite-Spin Energy      =      -1.5584669282541563 [Eh]
	 Correlation Energy        =      -2.0890218282874660 [Eh]
	 Total Energy              =    -815.0453280256084554 [Eh]

	 ================> DF-SCS-MP2 Energies <==================
	-----------------------------------------------------------
	 SCS Same-Spin Scale       =       0.3333333333333333 [-]
	 SCS Opposite-Spin Scale   =       1.2000000000000000 [-]
	 SCS Same-Spin Energy      =      -0.1768516333444365 [Eh]
	 SCS Opposite-Spin Energy  =      -1.8701603139049876 [Eh]
	 SCS Correlation Energy    =      -2.0470119472494241 [Eh]
	 SCS Total Energy          =    -815.0033181445703576 [Eh]
	-----------------------------------------------------------

  Dipole Moment: [D]
     X:    -0.5122      Y:     0.0479      Z:    -0.0000     Total:     0.5144

*** Psi4 exiting successfully. Buy a developer a beer!
