                               Psi4 1.3.2 release

  ==> Input File <==

--------------------------------------------------------------------------
#psi4
#
memory 32 gb

molecule  {
0 1
  S        1.7618360    -1.1877300    -0.0001100
  N       -1.1892720    -1.1162850     0.0000840
  N        1.4363420     1.3812950    -0.0000570
  C       -0.6888070     0.1366280     0.0000400
  C        0.7702180     0.2369850    -0.0000350
  C       -1.4868030     1.2893490     0.0000580
  C       -2.8690220     1.1312400     0.0001290
  C       -3.4040470    -0.1590480     0.0001760
  C       -2.5262420    -1.2439110     0.0001500
  C        3.2423932    -0.1560981    -0.0001712
  C        2.7828300     1.1426020    -0.0001250
  H       -1.0124600     2.2659460     0.0000190
  H       -3.5213850     2.0011240     0.0001460
  H       -4.4778440    -0.3237170     0.0002310
  H       -2.9027010    -2.2653680     0.0001840
  H        4.1496320    -0.6018500    -0.0002240
  H        3.4730500     1.9793660    -0.0001460
units angstrom
no_reorient  #important for SAPT in psi4, default
symmetry c1  #important for SAPT in psi4, default
}

set PROPERTIES_ORIGIN ["COM"]
properties('MP2/aug-cc-pvtz', properties = ['dipole'])
--------------------------------------------------------------------------

    Molecular point group: c1
  Charge       = 0
  Multiplicity = 1
  Basis Set: AUG-CC-PVTZ
    Blend: AUG-CC-PVTZ
  Basis Set: (AUG-CC-PVTZ AUX)
    Blend: AUG-CC-PVTZ-JKFIT

    Orbital Energies [Eh]
    ---------------------

    Doubly Occupied:

       1A    -91.992194     2A    -15.580954     3A    -15.574331
       4A    -11.319128     5A    -11.298812     6A    -11.286689
       7A    -11.274476     8A    -11.269002     9A    -11.265916
      10A    -11.253723    11A    -11.252438    12A     -8.990928
      13A     -6.671646    14A     -6.671066    15A     -6.670506
      16A     -1.286328    17A     -1.260085    18A     -1.098061
      19A     -1.069242    20A     -1.049298    21A     -0.989515
      22A     -0.880123    23A     -0.870382    24A     -0.801585
      25A     -0.766565    26A     -0.710175    27A     -0.681394
      28A     -0.673471    29A     -0.640194    30A     -0.595268
      31A     -0.592165    32A     -0.580214    33A     -0.567928
      34A     -0.534297    35A     -0.531126    36A     -0.482522
      37A     -0.445289    38A     -0.423251    39A     -0.398612
      40A     -0.387752    41A     -0.372312    42A     -0.312129

  @DF-RHF Final Energy:  -813.00149553593280

   => Energetics <=

    Nuclear Repulsion Energy =            624.7743085940970786
    One-Electron Energy =               -2352.8094248707866427
    Two-Electron Energy =                 915.0336207407568736
    Total Energy =                       -813.0014955359328042
  Basis Set: (AUG-CC-PVTZ AUX)
    Blend: AUG-CC-PVTZ-RI
    Molecular point group: c1

    Geometry (in Angstrom), charge = 0, multiplicity = 1:

       Center              X                  Y                   Z               Mass
    ------------   -----------------  -----------------  -----------------  -----------------
         S            1.729061850460    -1.171369206980    -0.000108360739    31.972071174400
         N           -1.222046149540    -1.099924206980     0.000085639261    14.003074004430
         N            1.403567850460     1.397655793020    -0.000055360739    14.003074004430
         C           -0.721581149540     0.152988793020     0.000041639261    12.000000000000
         C            0.737443850460     0.253345793020    -0.000033360739    12.000000000000
         C           -1.519577149540     1.305709793020     0.000059639261    12.000000000000
         C           -2.901796149540     1.147600793020     0.000130639261    12.000000000000
         C           -3.436821149540    -0.142687206980     0.000177639261    12.000000000000
         C           -2.559016149540    -1.227550206980     0.000151639261    12.000000000000
         C            3.209619050460    -0.139737306980    -0.000169560739    12.000000000000
         C            2.750055850460     1.158962793020    -0.000123360739    12.000000000000
         H           -1.045234149540     2.282306793020     0.000020639261     1.007825032230
         H           -3.554159149540     2.017484793020     0.000147639261     1.007825032230
         H           -4.510618149540    -0.307356206980     0.000232639261     1.007825032230
         H           -2.935475149540    -2.249007206980     0.000185639261     1.007825032230
         H            4.116857850460    -0.585489206980    -0.000222360739     1.007825032230
         H            3.440275850460     1.995726793020    -0.000144360739     1.007825032230

  Basis Set: AUG-CC-PVTZ
    Blend: AUG-CC-PVTZ
  Basis Set: (AUG-CC-PVTZ AUX)
    Blend: AUG-CC-PVTZ-JKFIT
	 Reference Energy          =    -813.0014955359328042 [Eh]
	 Singles Energy            =      -0.0000000000000000 [Eh]
	 Same-Spin Energy          =      -0.5242557685287342 [Eh]
	 Opposite-Spin Energy      =      -1.5536172423969608 [Eh]
	 Correlation Energy        =      -2.0778730109256949 [Eh]
	 Total Energy              =    -815.0793685468585181 [Eh]

	 ================> DF-SCS-MP2 Energies <==================
	-----------------------------------------------------------
	 SCS Same-Spin Scale       =       0.3333333333333333 [-]
	 SCS Opposite-Spin Scale   =       1.2000000000000000 [-]
	 SCS Same-Spin Energy      =      -0.1747519228429114 [Eh]
	 SCS Opposite-Spin Energy  =      -1.8643406908763529 [Eh]
	 SCS Correlation Energy    =      -2.0390926137192644 [Eh]
	 SCS Total Energy          =    -815.0405881496520806 [Eh]
	-----------------------------------------------------------

  Dipole Moment: [D]
     X:    -0.8951      Y:     0.2714      Z:    -0.0000     Total:     0.9354

*** Psi4 exiting successfully. Buy a developer a beer!
