                               Psi4 1.3.2 release

  ==> Input File <==

--------------------------------------------------------------------------
#psi4
#
memory 32 gb

molecule  {
0 1
  S        1.7618360    -1.1877300    -0.0001100
  N       -1.1892720    -1.1162850     0.0000840
  N        1.4363420     1.3812950    -0.0000570
  C       -0.6888070     0.1366280     0.0000400
  C        0.7702180     0.2369850    -0.0000350
  C       -1.4868030     1.2893490     0.0000580
  C       -2.8690220     1.1312400     0.0001290
  C       -3.4040470    -0.1590480     0.0001760
  C       -2.5262420    -1.2439110     0.0001500
  C        3.1737947    -0.1783699    -0.0001681
  C        2.7828300     1.1426020    -0.0001250
  H       -1.0124600     2.2659460     0.0000190
  H       -3.5213850     2.0011240     0.0001460
  H       -4.4778440    -0.3237170     0.0002310
  H       -2.9027010    -2.2653680     0.0001840
  H        4.1496320    -0.6018500    -0.0002240
  H        3.4730500     1.9793660    -0.0001460
units angstrom
no_reorient  #important for SAPT in psi4, default
symmetry c1  #important for SAPT in psi4, default
}

set PROPERTIES_ORIGIN ["COM"]
properties('MP2/aug-cc-pvtz', properties = ['dipole'])
--------------------------------------------------------------------------

    Molecular point group: c1
  Charge       = 0
  Multiplicity = 1
  Basis Set: AUG-CC-PVTZ
    Blend: AUG-CC-PVTZ
  Basis Set: (AUG-CC-PVTZ AUX)
    Blend: AUG-CC-PVTZ-JKFIT

    Orbital Energies [Eh]
    ---------------------

    Doubly Occupied:

       1A    -91.994957     2A    -15.579456     3A    -15.574317
       4A    -11.315168     5A    -11.297799     6A    -11.285812
       7A    -11.271070     8A    -11.267955     9A    -11.265131
      10A    -11.251990    11A    -11.250603    12A     -8.994595
      13A     -6.675339    14A     -6.674806    15A     -6.674162
      16A     -1.287097    17A     -1.260236    18A     -1.096922
      19A     -1.068331    20A     -1.059026    21A     -0.987279
      22A     -0.877758    23A     -0.869576    24A     -0.793304
      25A     -0.766460    26A     -0.707575    27A     -0.680189
      28A     -0.670316    29A     -0.639820    30A     -0.594156
      31A     -0.588877    32A     -0.581064    33A     -0.561404
      34A     -0.535549    35A     -0.529790    36A     -0.498079
      37A     -0.444512    38A     -0.424431    39A     -0.398460
      40A     -0.391536    41A     -0.371792    42A     -0.308336

  @DF-RHF Final Energy:  -813.00928177603100

   => Energetics <=

    Nuclear Repulsion Energy =            626.3913837536130131
    One-Electron Energy =               -2356.0712570849063923
    Two-Electron Energy =                 916.6705915552624901
    Total Energy =                       -813.0092817760310027
  Basis Set: (AUG-CC-PVTZ AUX)
    Blend: AUG-CC-PVTZ-RI
    Molecular point group: c1

    Geometry (in Angstrom), charge = 0, multiplicity = 1:

       Center              X                  Y                   Z               Mass
    ------------   -----------------  -----------------  -----------------  -----------------
         S            1.734142431478    -1.169719700295    -0.000108590333    31.972071174400
         N           -1.216965568522    -1.098274700295     0.000085409667    14.003074004430
         N            1.408648431478     1.399305299705    -0.000055590333    14.003074004430
         C           -0.716500568522     0.154638299705     0.000041409667    12.000000000000
         C            0.742524431478     0.254995299705    -0.000033590333    12.000000000000
         C           -1.514496568522     1.307359299705     0.000059409667    12.000000000000
         C           -2.896715568522     1.149250299705     0.000130409667    12.000000000000
         C           -3.431740568522    -0.141037700295     0.000177409667    12.000000000000
         C           -2.553935568522    -1.225900700295     0.000151409667    12.000000000000
         C            3.146101131478    -0.160359600295    -0.000166690333    12.000000000000
         C            2.755136431478     1.160612299705    -0.000123590333    12.000000000000
         H           -1.040153568522     2.283956299705     0.000020409667     1.007825032230
         H           -3.549078568522     2.019134299705     0.000147409667     1.007825032230
         H           -4.505537568522    -0.305706700295     0.000232409667     1.007825032230
         H           -2.930394568522    -2.247357700295     0.000185409667     1.007825032230
         H            4.121938431478    -0.583839700295    -0.000222590333     1.007825032230
         H            3.445356431478     1.997376299705    -0.000144590333     1.007825032230

  Basis Set: AUG-CC-PVTZ
    Blend: AUG-CC-PVTZ
  Basis Set: (AUG-CC-PVTZ AUX)
    Blend: AUG-CC-PVTZ-JKFIT
	 Reference Energy          =    -813.0092817760310027 [Eh]
	 Singles Energy            =      -0.0000000000000000 [Eh]
	 Same-Spin Energy          =      -0.5250243080223347 [Eh]
	 Opposite-Spin Energy      =      -1.5535356059564749 [Eh]
	 Correlation Energy        =      -2.0785599139788093 [Eh]
	 Total Energy              =    -815.0878416900097818 [Eh]

	 ================> DF-SCS-MP2 Energies <==================
	-----------------------------------------------------------
	 SCS Same-Spin Scale       =       0.3333333333333333 [-]
	 SCS Opposite-Spin Scale   =       1.2000000000000000 [-]
	 SCS Same-Spin Energy      =      -0.1750081026741115 [Eh]
	 SCS Opposite-Spin Energy  =      -1.8642427271477697 [Eh]
	 SCS Correlation Energy    =      -2.0392508298218814 [Eh]
	 SCS Total Energy          =    -815.0485326058528699 [Eh]
	-----------------------------------------------------------

  Dipole Moment: [D]
     X:    -0.8235      Y:     0.2135      Z:    -0.0000     Total:     0.8507

*** Psi4 exiting successfully. Buy a developer a beer!
