                               Psi4 1.3.2 release

  ==> Input File <==

--------------------------------------------------------------------------
#psi4
#
memory 32 gb

molecule  {
0 1
  S        1.7618360    -1.1877300    -0.0001100
  N       -1.1892720    -1.1162850     0.0000840
  N        1.4363420     1.3812950    -0.0000570
  C       -0.6888070     0.1366280     0.0000400
  C        0.7702180     0.2369850    -0.0000350
  C       -1.4868030     1.2893490     0.0000580
  C       -2.8690220     1.1312400     0.0001290
  C       -3.4040470    -0.1590480     0.0001760
  C       -2.5262420    -1.2439110     0.0001500
  C        3.1506810    -0.1849920    -0.0001670
  C        2.7561280     1.2389711    -0.0001220
  H       -1.0124600     2.2659460     0.0000190
  H       -3.5213850     2.0011240     0.0001460
  H       -4.4778440    -0.3237170     0.0002310
  H       -2.9027010    -2.2653680     0.0001840
  H        4.1496320    -0.6018500    -0.0002240
  H        3.4730500     1.9793660    -0.0001460
units angstrom
no_reorient  #important for SAPT in psi4, default
symmetry c1  #important for SAPT in psi4, default
}

set PROPERTIES_ORIGIN ["COM"]
properties('MP2/aug-cc-pvtz', properties = ['dipole'])
--------------------------------------------------------------------------

    Molecular point group: c1
  Charge       = 0
  Multiplicity = 1
  Basis Set: AUG-CC-PVTZ
    Blend: AUG-CC-PVTZ
  Basis Set: (AUG-CC-PVTZ AUX)
    Blend: AUG-CC-PVTZ-JKFIT

    Orbital Energies [Eh]
    ---------------------

    Doubly Occupied:

       1A    -92.002613     2A    -15.576563     3A    -15.574933
       4A    -11.310987     5A    -11.296720     6A    -11.284320
       7A    -11.277130     8A    -11.276133     9A    -11.266166
      10A    -11.248878    11A    -11.247562    12A     -9.001833
      13A     -6.682529    14A     -6.681996    15A     -6.681497
      16A     -1.289547    17A     -1.260491    18A     -1.094934
      19A     -1.068238    20A     -1.059768    21A     -0.981420
      22A     -0.872820    23A     -0.868420    24A     -0.796423
      25A     -0.769613    26A     -0.704094    27A     -0.681027
      28A     -0.666254    29A     -0.645403    30A     -0.604304
      31A     -0.589860    32A     -0.581159    33A     -0.556611
      34A     -0.534585    35A     -0.527915    36A     -0.500386
      37A     -0.438242    38A     -0.423695    39A     -0.397052
      40A     -0.394748    41A     -0.371446    42A     -0.294028

  @DF-RHF Final Energy:  -812.99302374733747

   => Energetics <=

    Nuclear Repulsion Energy =            625.9623921957188486
    One-Electron Energy =               -2355.1461456436418302
    Two-Electron Energy =                 916.1907297005855071
    Total Energy =                       -812.9930237473374746
  Basis Set: (AUG-CC-PVTZ AUX)
    Blend: AUG-CC-PVTZ-RI
    Molecular point group: c1

    Geometry (in Angstrom), charge = 0, multiplicity = 1:

       Center              X                  Y                   Z               Mass
    ------------   -----------------  -----------------  -----------------  -----------------
         S            1.737831910108    -1.176366593516    -0.000108893989    31.972071174400
         N           -1.213276089892    -1.104921593516     0.000085106011    14.003074004430
         N            1.412337910108     1.392658406484    -0.000055893989    14.003074004430
         C           -0.712811089892     0.147991406484     0.000041106011    12.000000000000
         C            0.746213910108     0.248348406484    -0.000033893989    12.000000000000
         C           -1.510807089892     1.300712406484     0.000059106011    12.000000000000
         C           -2.893026089892     1.142603406484     0.000130106011    12.000000000000
         C           -3.428051089892    -0.147684593516     0.000177106011    12.000000000000
         C           -2.550246089892    -1.232547593516     0.000151106011    12.000000000000
         C            3.126676910108    -0.173628593516    -0.000165893989    12.000000000000
         C            2.732123910108     1.250334506484    -0.000120893989    12.000000000000
         H           -1.036464089892     2.277309406484     0.000020106011     1.007825032230
         H           -3.545389089892     2.012487406484     0.000147106011     1.007825032230
         H           -4.501848089892    -0.312353593516     0.000232106011     1.007825032230
         H           -2.926705089892    -2.254004593516     0.000185106011     1.007825032230
         H            4.125627910108    -0.590486593516    -0.000222893989     1.007825032230
         H            3.449045910108     1.990729406484    -0.000144893989     1.007825032230

  Basis Set: AUG-CC-PVTZ
    Blend: AUG-CC-PVTZ
  Basis Set: (AUG-CC-PVTZ AUX)
    Blend: AUG-CC-PVTZ-JKFIT
	 Reference Energy          =    -812.9930237473374746 [Eh]
	 Singles Energy            =      -0.0000000000000000 [Eh]
	 Same-Spin Energy          =      -0.5280975658638070 [Eh]
	 Opposite-Spin Energy      =      -1.5570144825088805 [Eh]
	 Correlation Energy        =      -2.0851120483726877 [Eh]
	 Total Energy              =    -815.0781357957101818 [Eh]

	 ================> DF-SCS-MP2 Energies <==================
	-----------------------------------------------------------
	 SCS Same-Spin Scale       =       0.3333333333333333 [-]
	 SCS Opposite-Spin Scale   =       1.2000000000000000 [-]
	 SCS Same-Spin Energy      =      -0.1760325219546023 [Eh]
	 SCS Opposite-Spin Energy  =      -1.8684173790106566 [Eh]
	 SCS Correlation Energy    =      -2.0444499009652590 [Eh]
	 SCS Total Energy          =    -815.0374736483026936 [Eh]
	-----------------------------------------------------------

  Dipole Moment: [D]
     X:    -0.6557      Y:     0.2658      Z:    -0.0000     Total:     0.7075

*** Psi4 exiting successfully. Buy a developer a beer!
