                               Psi4 1.4a3.dev225

  ==> Input File <==

--------------------------------------------------------------------------
#psi4
#
memory 32 gb

molecule  {
0 1
  S        1.7618360    -1.1877300    -0.0001100
  N       -1.1892720    -1.1162850     0.0000840
  N        1.4363420     1.3812950    -0.0000570
  C       -0.6702598     0.1830608     0.0000384
  C        0.7702180     0.2369850    -0.0000350
  C       -1.4868030     1.2893490     0.0000580
  C       -2.8690220     1.1312400     0.0001290
  C       -3.4040470    -0.1590480     0.0001760
  C       -2.5262420    -1.2439110     0.0001500
  C        3.1506810    -0.1849920    -0.0001670
  C        2.7828300     1.1426020    -0.0001250
  H       -1.0124600     2.2659460     0.0000190
  H       -3.5213850     2.0011240     0.0001460
  H       -4.4778440    -0.3237170     0.0002310
  H       -2.9027010    -2.2653680     0.0001840
  H        4.1496320    -0.6018500    -0.0002240
  H        3.4730500     1.9793660    -0.0001460
units angstrom
no_reorient  #important for SAPT in psi4, default
symmetry c1  #important for SAPT in psi4, default
}

set PROPERTIES_ORIGIN ["COM"]
properties('MP2/aug-cc-pvtz', properties = ['dipole'])
--------------------------------------------------------------------------

    Molecular point group: c1
  Charge       = 0
  Multiplicity = 1
  Basis Set: AUG-CC-PVTZ
    Blend: AUG-CC-PVTZ
  Basis Set: (AUG-CC-PVTZ AUX)
    Blend: AUG-CC-PVTZ-JKFIT

    Orbital Energies [Eh]
    ---------------------

    Doubly Occupied:

       1A    -91.997092     2A    -15.580678     3A    -15.573898
       4A    -11.312966     5A    -11.295525     6A    -11.285376
       7A    -11.270196     8A    -11.268506     9A    -11.265540
      10A    -11.251564    11A    -11.247652    12A     -8.996965
      13A     -6.677720    14A     -6.677192    15A     -6.676508
      16A     -1.285800    17A     -1.250480    18A     -1.094518
      19A     -1.072396    20A     -1.062980    21A     -0.987428
      22A     -0.880175    23A     -0.865631    24A     -0.792487
      25A     -0.765998    26A     -0.707272    27A     -0.678385
      28A     -0.667729    29A     -0.639624    30A     -0.595936
      31A     -0.585565    32A     -0.580569    33A     -0.558783
      34A     -0.532918    35A     -0.529411    36A     -0.502986
      37A     -0.442508    38A     -0.426050    39A     -0.398838
      40A     -0.390369    41A     -0.374600    42A     -0.305895

  @DF-RHF Final Energy:  -813.00447039569724

   => Energetics <=

    Nuclear Repulsion Energy =            626.8062690058277440
    One-Electron Energy =               -2356.9160622231338493
    Two-Electron Energy =                 917.1053228216088655
    Total Energy =                       -813.0044703956972398
  Basis Set: (AUG-CC-PVTZ AUX)
    Blend: AUG-CC-PVTZ-RI
    Molecular point group: c1

    Geometry (in Angstrom), charge = 0, multiplicity = 1:

       Center              X                  Y                   Z               Mass
    ------------   -----------------  -----------------  -----------------  -----------------
         S            1.734480638191    -1.172668182940    -0.000108553301    31.972071174400
         N           -1.216627361809    -1.101223182940     0.000085446699    14.003074004430
         N            1.408986638191     1.396356817060    -0.000055553301    14.003074004430
         C           -0.697615161809     0.198122617060     0.000039846699    12.000000000000
         C            0.742862638191     0.252046817060    -0.000033553301    12.000000000000
         C           -1.514158361809     1.304410817060     0.000059446699    12.000000000000
         C           -2.896377361809     1.146301817060     0.000130446699    12.000000000000
         C           -3.431402361809    -0.143986182940     0.000177446699    12.000000000000
         C           -2.553597361809    -1.228849182940     0.000151446699    12.000000000000
         C            3.123325638191    -0.169930182940    -0.000165553301    12.000000000000
         C            2.755474638191     1.157663817060    -0.000123553301    12.000000000000
         H           -1.039815361809     2.281007817060     0.000020446699     1.007825032230
         H           -3.548740361809     2.016185817060     0.000147446699     1.007825032230
         H           -4.505199361809    -0.308655182940     0.000232446699     1.007825032230
         H           -2.930056361809    -2.250306182940     0.000185446699     1.007825032230
         H            4.122276638191    -0.586788182940    -0.000222553301     1.007825032230
         H            3.445694638191     1.994427817060    -0.000144553301     1.007825032230

  Basis Set: AUG-CC-PVTZ
    Blend: AUG-CC-PVTZ
  Basis Set: (AUG-CC-PVTZ AUX)
    Blend: AUG-CC-PVTZ-JKFIT
	 Reference Energy          =    -813.0044703956972398 [Eh]
	 Singles Energy            =      -0.0000000000000000 [Eh]
	 Same-Spin Energy          =      -0.5258925714949110 [Eh]
	 Opposite-Spin Energy      =      -1.5550777020305580 [Eh]
	 Correlation Energy        =      -2.0809702735254687 [Eh]
	 Total Energy              =    -815.0854406692227485 [Eh]

	 ================> DF-SCS-MP2 Energies <==================
	-----------------------------------------------------------
	 SCS Same-Spin Scale       =       0.3333333333333333 [-]
	 SCS Opposite-Spin Scale   =       1.2000000000000000 [-]
	 SCS Same-Spin Energy      =      -0.1752975238316370 [Eh]
	 SCS Opposite-Spin Energy  =      -1.8660932424366694 [Eh]
	 SCS Correlation Energy    =      -2.0413907662683064 [Eh]
	 SCS Total Energy          =    -815.0458611619654903 [Eh]
	-----------------------------------------------------------

  Dipole Moment: [D]
     X:    -0.7350      Y:     0.1906      Z:    -0.0000     Total:     0.7593

*** Psi4 exiting successfully. Buy a developer a beer!
