                               Psi4 1.3.2 release

  ==> Input File <==

--------------------------------------------------------------------------
#psi4
#
memory 32 gb

molecule  {
0 1
  S        1.7618360    -1.1877300    -0.0001100
  N       -1.1892720    -1.1162850     0.0000840
  N        1.4363420     1.3812950    -0.0000570
  C       -0.6888070     0.1366280     0.0000400
  C        0.7702180     0.2369850    -0.0000350
  C       -1.4868030     1.2893490     0.0000580
  C       -2.8690220     1.1312400     0.0001290
  C       -3.4040470    -0.1590480     0.0001760
  C       -2.5262420    -1.2439110     0.0001500
  C        3.2874372    -0.1392684    -0.0001732
  C        2.7828300     1.1426020    -0.0001250
  H       -1.0124600     2.2659460     0.0000190
  H       -3.5213850     2.0011240     0.0001460
  H       -4.4778440    -0.3237170     0.0002310
  H       -2.9027010    -2.2653680     0.0001840
  H        4.1496320    -0.6018500    -0.0002240
  H        3.4730500     1.9793660    -0.0001460
units angstrom
no_reorient  #important for SAPT in psi4, default
symmetry c1  #important for SAPT in psi4, default
}

set PROPERTIES_ORIGIN ["COM"]
properties('MP2/aug-cc-pvtz', properties = ['dipole'])
--------------------------------------------------------------------------

    Molecular point group: c1
  Charge       = 0
  Multiplicity = 1
  Basis Set: AUG-CC-PVTZ
    Blend: AUG-CC-PVTZ
  Basis Set: (AUG-CC-PVTZ AUX)
    Blend: AUG-CC-PVTZ-JKFIT

    Orbital Energies [Eh]
    ---------------------

    Doubly Occupied:

       1A    -91.989855     2A    -15.581853     3A    -15.574393
       4A    -11.321624     5A    -11.299395     6A    -11.287204
       7A    -11.277284     8A    -11.269634     9A    -11.267063
      10A    -11.254800    11A    -11.253581    12A     -8.988188
      13A     -6.668902    14A     -6.668259    15A     -6.667753
      16A     -1.286115    17A     -1.260023    18A     -1.098794
      19A     -1.070023    20A     -1.043924    21A     -0.990823
      22A     -0.881728    23A     -0.870848    24A     -0.807855
      25A     -0.767163    26A     -0.713048    27A     -0.682592
      28A     -0.674613    29A     -0.640306    30A     -0.596193
      31A     -0.593845    32A     -0.579877    33A     -0.570603
      34A     -0.533630    35A     -0.531899    36A     -0.471878
      37A     -0.445740    38A     -0.421933    39A     -0.399123
      40A     -0.385543    41A     -0.372161    42A     -0.314693

  @DF-RHF Final Energy:  -812.99073684878965

   => Energetics <=

    Nuclear Repulsion Energy =            623.7546765281967964
    One-Electron Energy =               -2350.7413017745438992
    Two-Electron Energy =                 913.9958883975574508
    Total Energy =                       -812.9907368487896520
  Basis Set: (AUG-CC-PVTZ AUX)
    Blend: AUG-CC-PVTZ-RI
    Molecular point group: c1

    Geometry (in Angstrom), charge = 0, multiplicity = 1:

       Center              X                  Y                   Z               Mass
    ------------   -----------------  -----------------  -----------------  -----------------
         S            1.725725776181    -1.172615657767    -0.000108212614    31.972071174400
         N           -1.225382223819    -1.101170657767     0.000085787386    14.003074004430
         N            1.400231776181     1.396409342233    -0.000055212614    14.003074004430
         C           -0.724917223819     0.151742342233     0.000041787386    12.000000000000
         C            0.734107776181     0.252099342233    -0.000033212614    12.000000000000
         C           -1.522913223819     1.304463342233     0.000059787386    12.000000000000
         C           -2.905132223819     1.146354342233     0.000130787386    12.000000000000
         C           -3.440157223819    -0.143933657767     0.000177787386    12.000000000000
         C           -2.562352223819    -1.228796657767     0.000151787386    12.000000000000
         C            3.251326976181    -0.124154057767    -0.000171412614    12.000000000000
         C            2.746719776181     1.157716342233    -0.000123212614    12.000000000000
         H           -1.048570223819     2.281060342233     0.000020787386     1.007825032230
         H           -3.557495223819     2.016238342233     0.000147787386     1.007825032230
         H           -4.513954223819    -0.308602657767     0.000232787386     1.007825032230
         H           -2.938811223819    -2.250253657767     0.000185787386     1.007825032230
         H            4.113521776181    -0.586735657767    -0.000222212614     1.007825032230
         H            3.436939776181     1.994480342233    -0.000144212614     1.007825032230

  Basis Set: AUG-CC-PVTZ
    Blend: AUG-CC-PVTZ
  Basis Set: (AUG-CC-PVTZ AUX)
    Blend: AUG-CC-PVTZ-JKFIT
	 Reference Energy          =    -812.9907368487896520 [Eh]
	 Singles Energy            =      -0.0000000000000000 [Eh]
	 Same-Spin Energy          =      -0.5239000340810389 [Eh]
	 Opposite-Spin Energy      =      -1.5539479655881174 [Eh]
	 Correlation Energy        =      -2.0778479996691566 [Eh]
	 Total Energy              =    -815.0685848484588405 [Eh]

	 ================> DF-SCS-MP2 Energies <==================
	-----------------------------------------------------------
	 SCS Same-Spin Scale       =       0.3333333333333333 [-]
	 SCS Opposite-Spin Scale   =       1.2000000000000000 [-]
	 SCS Same-Spin Energy      =      -0.1746333446936796 [Eh]
	 SCS Opposite-Spin Energy  =      -1.8647375587057409 [Eh]
	 SCS Correlation Energy    =      -2.0393709033994205 [Eh]
	 SCS Total Energy          =    -815.0301077521891102 [Eh]
	-----------------------------------------------------------

  Dipole Moment: [D]
     X:    -0.9405      Y:     0.3113      Z:    -0.0000     Total:     0.9907

*** Psi4 exiting successfully. Buy a developer a beer!
