                               Psi4 1.3.2 release

  ==> Input File <==

--------------------------------------------------------------------------
#psi4
#
memory 32 gb

molecule  {
0 1
  S        1.7618360    -1.1877300    -0.0001100
  N       -1.1892720    -1.1162850     0.0000840
  N        1.4363420     1.3812950    -0.0000570
  C       -0.6026273     0.0986653     0.0000365
  C        0.7702180     0.2369850    -0.0000350
  C       -1.4868030     1.2893490     0.0000580
  C       -2.8690220     1.1312400     0.0001290
  C       -3.4040470    -0.1590480     0.0001760
  C       -2.5262420    -1.2439110     0.0001500
  C        3.1506810    -0.1849920    -0.0001670
  C        2.7828300     1.1426020    -0.0001250
  H       -1.0124600     2.2659460     0.0000190
  H       -3.5213850     2.0011240     0.0001460
  H       -4.4778440    -0.3237170     0.0002310
  H       -2.9027010    -2.2653680     0.0001840
  H        4.1496320    -0.6018500    -0.0002240
  H        3.4730500     1.9793660    -0.0001460
units angstrom
no_reorient  #important for SAPT in psi4, default
symmetry c1  #important for SAPT in psi4, default
}

set PROPERTIES_ORIGIN ["COM"]
properties('MP2/aug-cc-pvtz', properties = ['dipole'])
--------------------------------------------------------------------------

    Molecular point group: c1
  Charge       = 0
  Multiplicity = 1
  Basis Set: AUG-CC-PVTZ
    Blend: AUG-CC-PVTZ
  Basis Set: (AUG-CC-PVTZ AUX)
    Blend: AUG-CC-PVTZ-JKFIT

    Orbital Energies [Eh]
    ---------------------

    Doubly Occupied:

       1A    -91.997552     2A    -15.579069     3A    -15.577582
       4A    -11.311101     5A    -11.299962     6A    -11.282956
       7A    -11.273353     8A    -11.269174     9A    -11.263819
      10A    -11.257105    11A    -11.251137    12A     -8.997761
      13A     -6.678528    14A     -6.677928    15A     -6.677290
      16A     -1.291543    17A     -1.255753    18A     -1.093674
      19A     -1.072965    20A     -1.065524    21A     -0.986474
      22A     -0.885903    23A     -0.862856    24A     -0.792036
      25A     -0.772976    26A     -0.707429    27A     -0.684656
      28A     -0.664428    29A     -0.635935    30A     -0.596767
      31A     -0.588654    32A     -0.586253    33A     -0.555977
      34A     -0.538415    35A     -0.531673    36A     -0.504855
      37A     -0.444252    38A     -0.414675    39A     -0.404500
      40A     -0.392973    41A     -0.369957    42A     -0.299457

  @DF-RHF Final Energy:  -812.99454869598765

   => Energetics <=

    Nuclear Repulsion Energy =            627.3178141638693432
    One-Electron Energy =               -2357.8349719824877866
    Two-Electron Energy =                 917.5226091226307972
    Total Energy =                       -812.9945486959876462
  Basis Set: (AUG-CC-PVTZ AUX)
    Blend: AUG-CC-PVTZ-RI
    Molecular point group: c1

    Geometry (in Angstrom), charge = 0, multiplicity = 1:

       Center              X                  Y                   Z               Mass
    ------------   -----------------  -----------------  -----------------  -----------------
         S            1.729471601613    -1.166417635547    -0.000108412583    31.972071174400
         N           -1.221636398387    -1.094972635547     0.000085587417    14.003074004430
         N            1.403977601613     1.402607364453    -0.000055412583    14.003074004430
         C           -0.634991698387     0.119977664453     0.000038087417    12.000000000000
         C            0.737853601613     0.258297364453    -0.000033412583    12.000000000000
         C           -1.519167398387     1.310661364453     0.000059587417    12.000000000000
         C           -2.901386398387     1.152552364453     0.000130587417    12.000000000000
         C           -3.436411398387    -0.137735635547     0.000177587417    12.000000000000
         C           -2.558606398387    -1.222598635547     0.000151587417    12.000000000000
         C            3.118316601613    -0.163679635547    -0.000165412583    12.000000000000
         C            2.750465601613     1.163914364453    -0.000123412583    12.000000000000
         H           -1.044824398387     2.287258364453     0.000020587417     1.007825032230
         H           -3.553749398387     2.022436364453     0.000147587417     1.007825032230
         H           -4.510208398387    -0.302404635547     0.000232587417     1.007825032230
         H           -2.935065398387    -2.244055635547     0.000185587417     1.007825032230
         H            4.117267601613    -0.580537635547    -0.000222412583     1.007825032230
         H            3.440685601613     2.000678364453    -0.000144412583     1.007825032230

  Basis Set: AUG-CC-PVTZ
    Blend: AUG-CC-PVTZ
  Basis Set: (AUG-CC-PVTZ AUX)
    Blend: AUG-CC-PVTZ-JKFIT
	 Reference Energy          =    -812.9945486959876462 [Eh]
	 Singles Energy            =      -0.0000000000000000 [Eh]
	 Same-Spin Energy          =      -0.5272302090265713 [Eh]
	 Opposite-Spin Energy      =      -1.5564062516791020 [Eh]
	 Correlation Energy        =      -2.0836364607056730 [Eh]
	 Total Energy              =    -815.0781851566932801 [Eh]

	 ================> DF-SCS-MP2 Energies <==================
	-----------------------------------------------------------
	 SCS Same-Spin Scale       =       0.3333333333333333 [-]
	 SCS Opposite-Spin Scale   =       1.2000000000000000 [-]
	 SCS Same-Spin Energy      =      -0.1757434030088571 [Eh]
	 SCS Opposite-Spin Energy  =      -1.8676875020149222 [Eh]
	 SCS Correlation Energy    =      -2.0434309050237793 [Eh]
	 SCS Total Energy          =    -815.0379796010114433 [Eh]
	-----------------------------------------------------------

  Dipole Moment: [D]
     X:    -0.4286      Y:     0.1984      Z:    -0.0000     Total:     0.4723

*** Psi4 exiting successfully. Buy a developer a beer!
