                               Psi4 1.4a3.dev225

  ==> Input File <==

--------------------------------------------------------------------------
#psi4
#
memory 32 gb

molecule  {
0 1
  S        1.7618360    -1.1877300    -0.0001100
  N       -1.1892720    -1.1162850     0.0000840
  N        1.4363420     1.3812950    -0.0000570
  C       -0.6888070     0.1366280     0.0000400
  C        0.7502651     0.2356126    -0.0000340
  C       -1.4868030     1.2893490     0.0000580
  C       -2.8690220     1.1312400     0.0001290
  C       -3.4040470    -0.1590480     0.0001760
  C       -2.5262420    -1.2439110     0.0001500
  C        3.1506810    -0.1849920    -0.0001670
  C        2.7828300     1.1426020    -0.0001250
  H       -1.0124600     2.2659460     0.0000190
  H       -3.5213850     2.0011240     0.0001460
  H       -4.4778440    -0.3237170     0.0002310
  H       -2.9027010    -2.2653680     0.0001840
  H        4.1496320    -0.6018500    -0.0002240
  H        3.4730500     1.9793660    -0.0001460
units angstrom
no_reorient  #important for SAPT in psi4, default
symmetry c1  #important for SAPT in psi4, default
}

set PROPERTIES_ORIGIN ["COM"]
properties('MP2/aug-cc-pvtz', properties = ['dipole'])
--------------------------------------------------------------------------

    Molecular point group: c1
  Charge       = 0
  Multiplicity = 1
  Basis Set: AUG-CC-PVTZ
    Blend: AUG-CC-PVTZ
  Basis Set: (AUG-CC-PVTZ AUX)
    Blend: AUG-CC-PVTZ-JKFIT

    Orbital Energies [Eh]
    ---------------------

    Doubly Occupied:

       1A    -91.995767     2A    -15.579224     3A    -15.575289
       4A    -11.314430     5A    -11.296423     6A    -11.285787
       7A    -11.270204     8A    -11.267865     9A    -11.265532
      10A    -11.251858    11A    -11.250492    12A     -8.995517
      13A     -6.676274    14A     -6.675737    15A     -6.675095
      16A     -1.285545    17A     -1.258858    18A     -1.096969
      19A     -1.070876    20A     -1.060517    21A     -0.986049
      22A     -0.879491    23A     -0.870026    24A     -0.789724
      25A     -0.767675    26A     -0.706554    27A     -0.680204
      28A     -0.669584    29A     -0.640360    30A     -0.595303
      31A     -0.588250    32A     -0.581278    33A     -0.557422
      34A     -0.534950    35A     -0.531264    36A     -0.502072
      37A     -0.442689    38A     -0.424266    39A     -0.399868
      40A     -0.392001    41A     -0.371956    42A     -0.305189

  @DF-RHF Final Energy:  -813.00764365261591

   => Energetics <=

    Nuclear Repulsion Energy =            626.8836172235166941
    One-Electron Energy =               -2357.0536542505810758
    Two-Electron Energy =                 917.1623933744484702
    Total Energy =                       -813.0076436526159114
  Basis Set: (AUG-CC-PVTZ AUX)
    Blend: AUG-CC-PVTZ-RI
    Molecular point group: c1

    Geometry (in Angstrom), charge = 0, multiplicity = 1:

       Center              X                  Y                   Z               Mass
    ------------   -----------------  -----------------  -----------------  -----------------
         S            1.737332054436    -1.169127607101    -0.000108745864    31.972071174400
         N           -1.213775945564    -1.097682607101     0.000085254136    14.003074004430
         N            1.411838054436     1.399897392899    -0.000055745864    14.003074004430
         C           -0.713310945564     0.155230392899     0.000041254136    12.000000000000
         C            0.725761154436     0.254214992899    -0.000032745864    12.000000000000
         C           -1.511306945564     1.307951392899     0.000059254136    12.000000000000
         C           -2.893525945564     1.149842392899     0.000130254136    12.000000000000
         C           -3.428550945564    -0.140445607101     0.000177254136    12.000000000000
         C           -2.550745945564    -1.225308607101     0.000151254136    12.000000000000
         C            3.126177054436    -0.166389607101    -0.000165745864    12.000000000000
         C            2.758326054436     1.161204392899    -0.000123745864    12.000000000000
         H           -1.036963945564     2.284548392899     0.000020254136     1.007825032230
         H           -3.545888945564     2.019726392899     0.000147254136     1.007825032230
         H           -4.502347945564    -0.305114607101     0.000232254136     1.007825032230
         H           -2.927204945564    -2.246765607101     0.000185254136     1.007825032230
         H            4.125128054436    -0.583247607101    -0.000222745864     1.007825032230
         H            3.448546054436     1.997968392899    -0.000144745864     1.007825032230

  Basis Set: AUG-CC-PVTZ
    Blend: AUG-CC-PVTZ
  Basis Set: (AUG-CC-PVTZ AUX)
    Blend: AUG-CC-PVTZ-JKFIT
	 Reference Energy          =    -813.0076436526159114 [Eh]
	 Singles Energy            =      -0.0000000000000000 [Eh]
	 Same-Spin Energy          =      -0.5258811354049355 [Eh]
	 Opposite-Spin Energy      =      -1.5544545603197633 [Eh]
	 Correlation Energy        =      -2.0803356957246990 [Eh]
	 Total Energy              =    -815.0879793483405820 [Eh]

	 ================> DF-SCS-MP2 Energies <==================
	-----------------------------------------------------------
	 SCS Same-Spin Scale       =       0.3333333333333333 [-]
	 SCS Opposite-Spin Scale   =       1.2000000000000000 [-]
	 SCS Same-Spin Energy      =      -0.1752937118016452 [Eh]
	 SCS Opposite-Spin Energy  =      -1.8653454723837157 [Eh]
	 SCS Correlation Energy    =      -2.0406391841853608 [Eh]
	 SCS Total Energy          =    -815.0482828368012633 [Eh]
	-----------------------------------------------------------

  Dipole Moment: [D]
     X:    -0.8018      Y:     0.2091      Z:    -0.0000     Total:     0.8287

*** Psi4 exiting successfully. Buy a developer a beer!
