                               Psi4 1.3.2 release

  ==> Input File <==

--------------------------------------------------------------------------
#psi4
#
memory 32 gb

molecule  {
0 1
  S        1.7618360    -1.1877300    -0.0001100
  N       -1.1892720    -1.1162850     0.0000840
  N        1.4363420     1.3812950    -0.0000570
  C       -0.6888070     0.1366280     0.0000400
  C        0.7517351     0.3889449    -0.0000370
  C       -1.4868030     1.2893490     0.0000580
  C       -2.8690220     1.1312400     0.0001290
  C       -3.4040470    -0.1590480     0.0001760
  C       -2.5262420    -1.2439110     0.0001500
  C        3.1506810    -0.1849920    -0.0001670
  C        2.7828300     1.1426020    -0.0001250
  H       -1.0124600     2.2659460     0.0000190
  H       -3.5213850     2.0011240     0.0001460
  H       -4.4778440    -0.3237170     0.0002310
  H       -2.9027010    -2.2653680     0.0001840
  H        4.1496320    -0.6018500    -0.0002240
  H        3.4730500     1.9793660    -0.0001460
units angstrom
no_reorient  #important for SAPT in psi4, default
symmetry c1  #important for SAPT in psi4, default
}

set PROPERTIES_ORIGIN ["COM"]
properties('MP2/aug-cc-pvtz', properties = ['dipole'])
--------------------------------------------------------------------------

    Molecular point group: c1
  Charge       = 0
  Multiplicity = 1
  Basis Set: AUG-CC-PVTZ
    Blend: AUG-CC-PVTZ
  Basis Set: (AUG-CC-PVTZ AUX)
    Blend: AUG-CC-PVTZ-JKFIT

    Orbital Energies [Eh]
    ---------------------

    Doubly Occupied:

       1A    -91.976096     2A    -15.584185     3A    -15.572158
       4A    -11.314002     5A    -11.300926     6A    -11.289143
       7A    -11.269730     8A    -11.269496     9A    -11.268339
      10A    -11.254529    11A    -11.251756    12A     -8.975692
      13A     -6.656504    14A     -6.655648    15A     -6.655104
      16A     -1.317575    17A     -1.268367    18A     -1.098678
      19A     -1.075838    20A     -1.058203    21A     -0.979585
      22A     -0.881923    23A     -0.871378    24A     -0.802030
      25A     -0.766302    26A     -0.705425    27A     -0.685517
      28A     -0.670401    29A     -0.645293    30A     -0.608380
      31A     -0.592192    32A     -0.591058    33A     -0.554763
      34A     -0.541547    35A     -0.532376    36A     -0.494575
      37A     -0.441598    38A     -0.409651    39A     -0.403896
      40A     -0.395690    41A     -0.367765    42A     -0.307874

  @DF-RHF Final Energy:  -812.99369344043566

   => Energetics <=

    Nuclear Repulsion Energy =            626.4986438036955860
    One-Electron Energy =               -2356.2622989506062368
    Two-Electron Energy =                 916.7699617064749873
    Total Energy =                       -812.9936934404356634
  Basis Set: (AUG-CC-PVTZ AUX)
    Blend: AUG-CC-PVTZ-RI
    Molecular point group: c1

    Geometry (in Angstrom), charge = 0, multiplicity = 1:

       Center              X                  Y                   Z               Mass
    ------------   -----------------  -----------------  -----------------  -----------------
         S            1.737223182462    -1.180483790878    -0.000108523676    31.972071174400
         N           -1.213884817538    -1.109038790878     0.000085476324    14.003074004430
         N            1.411729182462     1.388541209122    -0.000055523676    14.003074004430
         C           -0.713419817538     0.143874209122     0.000041476324    12.000000000000
         C            0.727122282462     0.396191109122    -0.000035523676    12.000000000000
         C           -1.511415817538     1.296595209122     0.000059476324    12.000000000000
         C           -2.893634817538     1.138486209122     0.000130476324    12.000000000000
         C           -3.428659817538    -0.151801790878     0.000177476324    12.000000000000
         C           -2.550854817538    -1.236664790878     0.000151476324    12.000000000000
         C            3.126068182462    -0.177745790878    -0.000165523676    12.000000000000
         C            2.758217182462     1.149848209122    -0.000123523676    12.000000000000
         H           -1.037072817538     2.273192209122     0.000020476324     1.007825032230
         H           -3.545997817538     2.008370209122     0.000147476324     1.007825032230
         H           -4.502456817538    -0.316470790878     0.000232476324     1.007825032230
         H           -2.927313817538    -2.258121790878     0.000185476324     1.007825032230
         H            4.125019182462    -0.594603790878    -0.000222523676     1.007825032230
         H            3.448437182462     1.986612209122    -0.000144523676     1.007825032230

  Basis Set: AUG-CC-PVTZ
    Blend: AUG-CC-PVTZ
  Basis Set: (AUG-CC-PVTZ AUX)
    Blend: AUG-CC-PVTZ-JKFIT
	 Reference Energy          =    -812.9936934404356634 [Eh]
	 Singles Energy            =      -0.0000000000000000 [Eh]
	 Same-Spin Energy          =      -0.5233040940037734 [Eh]
	 Opposite-Spin Energy      =      -1.5511751331474597 [Eh]
	 Correlation Energy        =      -2.0744792271512331 [Eh]
	 Total Energy              =    -815.0681726675868504 [Eh]

	 ================> DF-SCS-MP2 Energies <==================
	-----------------------------------------------------------
	 SCS Same-Spin Scale       =       0.3333333333333333 [-]
	 SCS Opposite-Spin Scale   =       1.2000000000000000 [-]
	 SCS Same-Spin Energy      =      -0.1744346980012578 [Eh]
	 SCS Opposite-Spin Energy  =      -1.8614101597769515 [Eh]
	 SCS Correlation Energy    =      -2.0358448577782093 [Eh]
	 SCS Total Energy          =    -815.0295382982138790 [Eh]
	-----------------------------------------------------------

  Dipole Moment: [D]
     X:    -1.3612      Y:     0.7806      Z:     0.0000     Total:     1.5692

*** Psi4 exiting successfully. Buy a developer a beer!
