                               Psi4 1.3.2 release

  ==> Input File <==

--------------------------------------------------------------------------
#psi4
#
memory 32 gb

molecule  {
0 1
  S        1.7618360    -1.1877300    -0.0001100
  N       -1.1892720    -1.1162850     0.0000840
  N        1.4323813     1.3577592    -0.0000572
  C       -0.6888070     0.1366280     0.0000400
  C        0.7702180     0.2369850    -0.0000350
  C       -1.4868030     1.2893490     0.0000580
  C       -2.8690220     1.1312400     0.0001290
  C       -3.4040470    -0.1590480     0.0001760
  C       -2.5262420    -1.2439110     0.0001500
  C        3.1506810    -0.1849920    -0.0001670
  C        2.7828300     1.1426020    -0.0001250
  H       -1.0124600     2.2659460     0.0000190
  H       -3.5213850     2.0011240     0.0001460
  H       -4.4778440    -0.3237170     0.0002310
  H       -2.9027010    -2.2653680     0.0001840
  H        4.1496320    -0.6018500    -0.0002240
  H        3.4730500     1.9793660    -0.0001460
units angstrom
no_reorient  #important for SAPT in psi4, default
symmetry c1  #important for SAPT in psi4, default
}

set PROPERTIES_ORIGIN ["COM"]
properties('MP2/aug-cc-pvtz', properties = ['dipole'])
--------------------------------------------------------------------------

    Molecular point group: c1
  Charge       = 0
  Multiplicity = 1
  Basis Set: AUG-CC-PVTZ
    Blend: AUG-CC-PVTZ
  Basis Set: (AUG-CC-PVTZ AUX)
    Blend: AUG-CC-PVTZ-JKFIT

    Orbital Energies [Eh]
    ---------------------

    Doubly Occupied:

       1A    -91.993333     2A    -15.578760     3A    -15.571403
       4A    -11.310792     5A    -11.297064     6A    -11.285320
       7A    -11.270179     8A    -11.267489     9A    -11.265565
      10A    -11.251236    11A    -11.249812    12A     -8.993571
      13A     -6.674343    14A     -6.673805    15A     -6.673110
      16A     -1.292061    17A     -1.261791    18A     -1.096392
      19A     -1.069330    20A     -1.061179    21A     -0.987900
      22A     -0.877072    23A     -0.869222    24A     -0.793040
      25A     -0.766382    26A     -0.706803    27A     -0.680519
      28A     -0.668734    29A     -0.640529    30A     -0.595635
      31A     -0.589150    32A     -0.583420    33A     -0.558693
      34A     -0.536822    35A     -0.529731    36A     -0.502389
      37A     -0.442431    38A     -0.422428    39A     -0.399439
      40A     -0.392720    41A     -0.370649    42A     -0.308516

  @DF-RHF Final Energy:  -813.01105998094738

   => Energetics <=

    Nuclear Repulsion Energy =            627.6327964755771518
    One-Electron Energy =               -2358.5701861051088599
    Two-Electron Energy =                 917.9263296485843284
    Total Energy =                       -813.0110599809473797
  Basis Set: (AUG-CC-PVTZ AUX)
    Blend: AUG-CC-PVTZ-RI
    Molecular point group: c1

    Geometry (in Angstrom), charge = 0, multiplicity = 1:

       Center              X                  Y                   Z               Mass
    ------------   -----------------  -----------------  -----------------  -----------------
         S            1.736196596127    -1.167195161973    -0.000108654517    31.972071174400
         N           -1.214911403873    -1.095750161973     0.000085345483    14.003074004430
         N            1.406741896127     1.378294038027    -0.000055854517    14.003074004430
         C           -0.714446403873     0.157162838027     0.000041345483    12.000000000000
         C            0.744578596127     0.257519838027    -0.000033654517    12.000000000000
         C           -1.512442403873     1.309883838027     0.000059345483    12.000000000000
         C           -2.894661403873     1.151774838027     0.000130345483    12.000000000000
         C           -3.429686403873    -0.138513161973     0.000177345483    12.000000000000
         C           -2.551881403873    -1.223376161973     0.000151345483    12.000000000000
         C            3.125041596127    -0.164457161973    -0.000165654517    12.000000000000
         C            2.757190596127     1.163136838027    -0.000123654517    12.000000000000
         H           -1.038099403873     2.286480838027     0.000020345483     1.007825032230
         H           -3.547024403873     2.021658838027     0.000147345483     1.007825032230
         H           -4.503483403873    -0.303182161973     0.000232345483     1.007825032230
         H           -2.928340403873    -2.244833161973     0.000185345483     1.007825032230
         H            4.123992596127    -0.581315161973    -0.000222654517     1.007825032230
         H            3.447410596127     1.999900838027    -0.000144654517     1.007825032230

  Basis Set: AUG-CC-PVTZ
    Blend: AUG-CC-PVTZ
  Basis Set: (AUG-CC-PVTZ AUX)
    Blend: AUG-CC-PVTZ-JKFIT
	 Reference Energy          =    -813.0110599809473797 [Eh]
	 Singles Energy            =      -0.0000000000000000 [Eh]
	 Same-Spin Energy          =      -0.5247765101853021 [Eh]
	 Opposite-Spin Energy      =      -1.5525310214421812 [Eh]
	 Correlation Energy        =      -2.0773075316274836 [Eh]
	 Total Energy              =    -815.0883675125749050 [Eh]

	 ================> DF-SCS-MP2 Energies <==================
	-----------------------------------------------------------
	 SCS Same-Spin Scale       =       0.3333333333333333 [-]
	 SCS Opposite-Spin Scale   =       1.2000000000000000 [-]
	 SCS Same-Spin Energy      =      -0.1749255033951007 [Eh]
	 SCS Opposite-Spin Energy  =      -1.8630372257306174 [Eh]
	 SCS Correlation Energy    =      -2.0379627291257183 [Eh]
	 SCS Total Energy          =    -815.0490227100731317 [Eh]
	-----------------------------------------------------------

  Dipole Moment: [D]
     X:    -0.8272      Y:     0.2784      Z:    -0.0000     Total:     0.8728

*** Psi4 exiting successfully. Buy a developer a beer!
