                               Psi4 1.3.2 release

  ==> Input File <==

--------------------------------------------------------------------------
#psi4
#
memory 32 gb

molecule  {
0 1
  S        1.7618360    -1.1877300    -0.0001100
  N       -1.1892720    -1.1162850     0.0000840
  N        1.4363420     1.3812950    -0.0000570
  C       -0.6888070     0.1366280     0.0000400
  C        0.7727155     0.0839256    -0.0000322
  C       -1.4868030     1.2893490     0.0000580
  C       -2.8690220     1.1312400     0.0001290
  C       -3.4040470    -0.1590480     0.0001760
  C       -2.5262420    -1.2439110     0.0001500
  C        3.1506810    -0.1849920    -0.0001670
  C        2.7828300     1.1426020    -0.0001250
  H       -1.0124600     2.2659460     0.0000190
  H       -3.5213850     2.0011240     0.0001460
  H       -4.4778440    -0.3237170     0.0002310
  H       -2.9027010    -2.2653680     0.0001840
  H        4.1496320    -0.6018500    -0.0002240
  H        3.4730500     1.9793660    -0.0001460
units angstrom
no_reorient  #important for SAPT in psi4, default
symmetry c1  #important for SAPT in psi4, default
}

set PROPERTIES_ORIGIN ["COM"]
properties('MP2/aug-cc-pvtz', properties = ['dipole'])
--------------------------------------------------------------------------

    Molecular point group: c1
  Charge       = 0
  Multiplicity = 1
  Basis Set: AUG-CC-PVTZ
    Blend: AUG-CC-PVTZ
  Basis Set: (AUG-CC-PVTZ AUX)
    Blend: AUG-CC-PVTZ-JKFIT

    Orbital Energies [Eh]
    ---------------------

    Doubly Occupied:

       1A    -92.008791     2A    -15.575308     3A    -15.574666
       4A    -11.312932     5A    -11.297804     6A    -11.283102
       7A    -11.271589     8A    -11.267227     9A    -11.259489
      10A    -11.250381    11A    -11.249925    12A     -9.010566
      13A     -6.691595    14A     -6.690743    15A     -6.690202
      16A     -1.277399    17A     -1.245326    18A     -1.097535
      19A     -1.074003    20A     -1.061809    21A     -0.987429
      22A     -0.876836    23A     -0.867740    24A     -0.778587
      25A     -0.769348    26A     -0.707785    27A     -0.675868
      28A     -0.668757    29A     -0.637562    30A     -0.593136
      31A     -0.578792    32A     -0.576824    33A     -0.561108
      34A     -0.533979    35A     -0.524169    36A     -0.509254
      37A     -0.439090    38A     -0.430989    39A     -0.399264
      40A     -0.383546    41A     -0.376167    42A     -0.302384

  @DF-RHF Final Energy:  -812.97927727781621

   => Energetics <=

    Nuclear Repulsion Energy =            627.6210585356565161
    One-Electron Energy =               -2358.4626586258036696
    Two-Electron Energy =                 917.8623228123308309
    Total Energy =                       -812.9792772778162089
  Basis Set: (AUG-CC-PVTZ AUX)
    Blend: AUG-CC-PVTZ-RI
    Molecular point group: c1

    Geometry (in Angstrom), charge = 0, multiplicity = 1:

       Center              X                  Y                   Z               Mass
    ------------   -----------------  -----------------  -----------------  -----------------
         S            1.735669320176    -1.157893278466    -0.000108879177    31.972071174400
         N           -1.215438679824    -1.086448278466     0.000085120823    14.003074004430
         N            1.410175320176     1.411131721534    -0.000055879177    14.003074004430
         C           -0.714973679824     0.166464721534     0.000041120823    12.000000000000
         C            0.746548820176     0.113762321534    -0.000031079177    12.000000000000
         C           -1.512969679824     1.319185721534     0.000059120823    12.000000000000
         C           -2.895188679824     1.161076721534     0.000130120823    12.000000000000
         C           -3.430213679824    -0.129211278466     0.000177120823    12.000000000000
         C           -2.552408679824    -1.214074278466     0.000151120823    12.000000000000
         C            3.124514320176    -0.155155278466    -0.000165879177    12.000000000000
         C            2.756663320176     1.172438721534    -0.000123879177    12.000000000000
         H           -1.038626679824     2.295782721534     0.000020120823     1.007825032230
         H           -3.547551679824     2.030960721534     0.000147120823     1.007825032230
         H           -4.504010679824    -0.293880278466     0.000232120823     1.007825032230
         H           -2.928867679824    -2.235531278466     0.000185120823     1.007825032230
         H            4.123465320176    -0.572013278466    -0.000222879177     1.007825032230
         H            3.446883320176     2.009202721534    -0.000144879177     1.007825032230

  Basis Set: AUG-CC-PVTZ
    Blend: AUG-CC-PVTZ
  Basis Set: (AUG-CC-PVTZ AUX)
    Blend: AUG-CC-PVTZ-JKFIT
	 Reference Energy          =    -812.9792772778162089 [Eh]
	 Singles Energy            =      -0.0000000000000000 [Eh]
	 Same-Spin Energy          =      -0.5290676851970486 [Eh]
	 Opposite-Spin Energy      =      -1.5589462224427886 [Eh]
	 Correlation Energy        =      -2.0880139076398372 [Eh]
	 Total Energy              =    -815.0672911854560425 [Eh]

	 ================> DF-SCS-MP2 Energies <==================
	-----------------------------------------------------------
	 SCS Same-Spin Scale       =       0.3333333333333333 [-]
	 SCS Opposite-Spin Scale   =       1.2000000000000000 [-]
	 SCS Same-Spin Energy      =      -0.1763558950656829 [Eh]
	 SCS Opposite-Spin Energy  =      -1.8707354669313463 [Eh]
	 SCS Correlation Energy    =      -2.0470913619970292 [Eh]
	 SCS Total Energy          =    -815.0263686398131995 [Eh]
	-----------------------------------------------------------

  Dipole Moment: [D]
     X:    -0.4601      Y:    -0.0757      Z:    -0.0000     Total:     0.4663

*** Psi4 exiting successfully. Buy a developer a beer!
