                               Psi4 1.4a3.dev225

  ==> Input File <==

--------------------------------------------------------------------------
#psi4
#
memory 32 gb

molecule  {
0 1
  S        1.7618360    -1.1877300    -0.0001100
  N       -1.1892720    -1.1162850     0.0000840
  N        1.4363420     1.3812950    -0.0000570
  C       -0.6888070     0.1366280     0.0000400
  C        0.7702180     0.2369850    -0.0000350
  C       -1.4868030     1.2893490     0.0000580
  C       -2.8690220     1.1312400     0.0001290
  C       -3.4040470    -0.1590480     0.0001760
  C       -2.5262420    -1.2439110     0.0001500
  C        3.1506810    -0.1849920    -0.0001670
  C        2.7828300     1.1426020    -0.0001250
  H       -1.0124600     2.2659460     0.0000190
  H       -3.5213850     2.0011240     0.0001460
  H       -4.4778440    -0.3237170     0.0002310
  H       -2.9027010    -2.2653680     0.0001840
  H        4.1311746    -0.5941478    -0.0002229
  H        3.4730500     1.9793660    -0.0001460
units angstrom
no_reorient  #important for SAPT in psi4, default
symmetry c1  #important for SAPT in psi4, default
}

set PROPERTIES_ORIGIN ["COM"]
properties('MP2/aug-cc-pvtz', properties = ['dipole'])
--------------------------------------------------------------------------

    Molecular point group: c1
  Charge       = 0
  Multiplicity = 1
  Basis Set: AUG-CC-PVTZ
    Blend: AUG-CC-PVTZ
  Basis Set: (AUG-CC-PVTZ AUX)
    Blend: AUG-CC-PVTZ-JKFIT

    Orbital Energies [Eh]
    ---------------------

    Doubly Occupied:

       1A    -91.995584     2A    -15.578910     3A    -15.574254
       4A    -11.313778     5A    -11.297409     6A    -11.285484
       7A    -11.270063     8A    -11.267571     9A    -11.262957
      10A    -11.251378    11A    -11.249951    12A     -8.995622
      13A     -6.676391    14A     -6.675841    15A     -6.675178
      16A     -1.287473    17A     -1.260266    18A     -1.096548
      19A     -1.068710    20A     -1.062547    21A     -0.986725
      22A     -0.877235    23A     -0.869300    24A     -0.792727
      25A     -0.766813    26A     -0.708077    27A     -0.680423
      28A     -0.669619    29A     -0.639740    30A     -0.593898
      31A     -0.588234    32A     -0.581432    33A     -0.559866
      34A     -0.535994    35A     -0.529513    36A     -0.502834
      37A     -0.444215    38A     -0.424663    39A     -0.398844
      40A     -0.392528    41A     -0.371477    42A     -0.307075

  @DF-RHF Final Energy:  -813.00958901649653

   => Energetics <=

    Nuclear Repulsion Energy =            627.0673402587991632
    One-Electron Energy =               -2357.4195680440943761
    Two-Electron Energy =                 917.3426387687987926
    Total Energy =                       -813.0095890164965340
  Basis Set: (AUG-CC-PVTZ AUX)
    Blend: AUG-CC-PVTZ-RI
    Molecular point group: c1

    Geometry (in Angstrom), charge = 0, multiplicity = 1:

       Center              X                  Y                   Z               Mass
    ------------   -----------------  -----------------  -----------------  -----------------
         S            1.735969099710    -1.169277159606    -0.000108678644    31.972071174400
         N           -1.215138900290    -1.097832159606     0.000085321356    14.003074004430
         N            1.410475099710     1.399747840394    -0.000055678644    14.003074004430
         C           -0.714673900290     0.155080840394     0.000041321356    12.000000000000
         C            0.744351099710     0.255437840394    -0.000033678644    12.000000000000
         C           -1.512669900290     1.307801840394     0.000059321356    12.000000000000
         C           -2.894888900290     1.149692840394     0.000130321356    12.000000000000
         C           -3.429913900290    -0.140595159606     0.000177321356    12.000000000000
         C           -2.552108900290    -1.225458159606     0.000151321356    12.000000000000
         C            3.124814099710    -0.166539159606    -0.000165678644    12.000000000000
         C            2.756963099710     1.161054840394    -0.000123678644    12.000000000000
         H           -1.038326900290     2.284398840394     0.000020321356     1.007825032230
         H           -3.547251900290     2.019576840394     0.000147321356     1.007825032230
         H           -4.503710900290    -0.305264159606     0.000232321356     1.007825032230
         H           -2.928567900290    -2.246915159606     0.000185321356     1.007825032230
         H            4.105307699710    -0.575694959606    -0.000221578644     1.007825032230
         H            3.447183099710     1.997818840394    -0.000144678644     1.007825032230

  Basis Set: AUG-CC-PVTZ
    Blend: AUG-CC-PVTZ
  Basis Set: (AUG-CC-PVTZ AUX)
    Blend: AUG-CC-PVTZ-JKFIT
	 Reference Energy          =    -813.0095890164965340 [Eh]
	 Singles Energy            =      -0.0000000000000000 [Eh]
	 Same-Spin Energy          =      -0.5252993728619411 [Eh]
	 Opposite-Spin Energy      =      -1.5535289638038359 [Eh]
	 Correlation Energy        =      -2.0788283366657767 [Eh]
	 Total Energy              =    -815.0884173531622992 [Eh]

	 ================> DF-SCS-MP2 Energies <==================
	-----------------------------------------------------------
	 SCS Same-Spin Scale       =       0.3333333333333333 [-]
	 SCS Opposite-Spin Scale   =       1.2000000000000000 [-]
	 SCS Same-Spin Energy      =      -0.1750997909539803 [Eh]
	 SCS Opposite-Spin Energy  =      -1.8642347565646029 [Eh]
	 SCS Correlation Energy    =      -2.0393345475185831 [Eh]
	 SCS Total Energy          =    -815.0489235640151264 [Eh]
	-----------------------------------------------------------

  Dipole Moment: [D]
     X:    -0.8019      Y:     0.1968      Z:    -0.0000     Total:     0.8257

*** Psi4 exiting successfully. Buy a developer a beer!
