                               Psi4 1.4a3.dev225

  ==> Input File <==

--------------------------------------------------------------------------
#psi4
#
memory 32 gb

molecule  {
0 1
  S        1.7618360    -1.1877300    -0.0001100
  N       -1.1892720    -1.1162850     0.0000840
  N        1.4363420     1.3812950    -0.0000570
  C       -0.6888070     0.1366280     0.0000400
  C        0.7702180     0.2369850    -0.0000350
  C       -1.4754192     1.2729049     0.0000577
  C       -2.8690220     1.1312400     0.0001290
  C       -3.4040470    -0.1590480     0.0001760
  C       -2.5262420    -1.2439110     0.0001500
  C        3.1506810    -0.1849920    -0.0001670
  C        2.7828300     1.1426020    -0.0001250
  H       -1.0124600     2.2659460     0.0000190
  H       -3.5213850     2.0011240     0.0001460
  H       -4.4778440    -0.3237170     0.0002310
  H       -2.9027010    -2.2653680     0.0001840
  H        4.1496320    -0.6018500    -0.0002240
  H        3.4730500     1.9793660    -0.0001460
units angstrom
no_reorient  #important for SAPT in psi4, default
symmetry c1  #important for SAPT in psi4, default
}

set PROPERTIES_ORIGIN ["COM"]
properties('MP2/aug-cc-pvtz', properties = ['dipole'])
--------------------------------------------------------------------------

    Molecular point group: c1
  Charge       = 0
  Multiplicity = 1
  Basis Set: AUG-CC-PVTZ
    Blend: AUG-CC-PVTZ
  Basis Set: (AUG-CC-PVTZ AUX)
    Blend: AUG-CC-PVTZ-JKFIT

    Orbital Energies [Eh]
    ---------------------

    Doubly Occupied:

       1A    -91.995318     2A    -15.578640     3A    -15.573723
       4A    -11.313393     5A    -11.294673     6A    -11.285961
       7A    -11.269760     8A    -11.269148     9A    -11.264554
      10A    -11.251722    11A    -11.249453    12A     -8.995348
      13A     -6.676116    14A     -6.675567    15A     -6.674903
      16A     -1.287567    17A     -1.260552    18A     -1.095663
      19A     -1.069813    20A     -1.062106    21A     -0.986531
      22A     -0.876976    23A     -0.869819    24A     -0.790876
      25A     -0.766939    26A     -0.706766    27A     -0.679084
      28A     -0.669469    29A     -0.639790    30A     -0.593180
      31A     -0.588394    32A     -0.581847    33A     -0.559051
      34A     -0.536278    35A     -0.526204    36A     -0.502544
      37A     -0.444194    38A     -0.425028    39A     -0.398479
      40A     -0.391845    41A     -0.372002    42A     -0.307759

  @DF-RHF Final Energy:  -813.00911641884375

   => Energetics <=

    Nuclear Repulsion Energy =            627.2872383212315981
    One-Electron Energy =               -2357.8786415706813386
    Two-Electron Energy =                 917.5822868306059945
    Total Energy =                       -813.0091164188437460
  Basis Set: (AUG-CC-PVTZ AUX)
    Blend: AUG-CC-PVTZ-RI
    Molecular point group: c1

    Geometry (in Angstrom), charge = 0, multiplicity = 1:

       Center              X                  Y                   Z               Mass
    ------------   -----------------  -----------------  -----------------  -----------------
         S            1.735011177985    -1.168011358307    -0.000108649583    31.972071174400
         N           -1.216096822015    -1.096566358307     0.000085350417    14.003074004430
         N            1.409517177985     1.401013641693    -0.000055649583    14.003074004430
         C           -0.715631822015     0.156346641693     0.000041350417    12.000000000000
         C            0.743393177985     0.256703641693    -0.000033649583    12.000000000000
         C           -1.502244022015     1.292623541693     0.000059050417    12.000000000000
         C           -2.895846822015     1.150958641693     0.000130350417    12.000000000000
         C           -3.430871822015    -0.139329358307     0.000177350417    12.000000000000
         C           -2.553066822015    -1.224192358307     0.000151350417    12.000000000000
         C            3.123856177985    -0.165273358307    -0.000165649583    12.000000000000
         C            2.756005177985     1.162320641693    -0.000123649583    12.000000000000
         H           -1.039284822015     2.285664641693     0.000020350417     1.007825032230
         H           -3.548209822015     2.020842641693     0.000147350417     1.007825032230
         H           -4.504668822015    -0.303998358307     0.000232350417     1.007825032230
         H           -2.929525822015    -2.245649358307     0.000185350417     1.007825032230
         H            4.122807177985    -0.582131358307    -0.000222649583     1.007825032230
         H            3.446225177985     1.999084641693    -0.000144649583     1.007825032230

  Basis Set: AUG-CC-PVTZ
    Blend: AUG-CC-PVTZ
  Basis Set: (AUG-CC-PVTZ AUX)
    Blend: AUG-CC-PVTZ-JKFIT
	 Reference Energy          =    -813.0091164188437460 [Eh]
	 Singles Energy            =      -0.0000000000000000 [Eh]
	 Same-Spin Energy          =      -0.5253352267128185 [Eh]
	 Opposite-Spin Energy      =      -1.5536300863223973 [Eh]
	 Correlation Energy        =      -2.0789653130352157 [Eh]
	 Total Energy              =    -815.0880817318790150 [Eh]

	 ================> DF-SCS-MP2 Energies <==================
	-----------------------------------------------------------
	 SCS Same-Spin Scale       =       0.3333333333333333 [-]
	 SCS Opposite-Spin Scale   =       1.2000000000000000 [-]
	 SCS Same-Spin Energy      =      -0.1751117422376062 [Eh]
	 SCS Opposite-Spin Energy  =      -1.8643561035868768 [Eh]
	 SCS Correlation Energy    =      -2.0394678458244830 [Eh]
	 SCS Total Energy          =    -815.0485842646681931 [Eh]
	-----------------------------------------------------------

  Dipole Moment: [D]
     X:    -0.8342      Y:     0.1954      Z:    -0.0000     Total:     0.8568

*** Psi4 exiting successfully. Buy a developer a beer!
