                               Psi4 1.4a3.dev225

  ==> Input File <==

--------------------------------------------------------------------------
#psi4
#
memory 32 gb

molecule  {
0 1
  S        1.7618360    -1.1877300    -0.0001100
  N       -1.1892720    -1.1162850     0.0000840
  N        1.4363420     1.3812950    -0.0000570
  C       -0.7073542     0.0901952     0.0000416
  C        0.7702180     0.2369850    -0.0000350
  C       -1.4868030     1.2893490     0.0000580
  C       -2.8690220     1.1312400     0.0001290
  C       -3.4040470    -0.1590480     0.0001760
  C       -2.5262420    -1.2439110     0.0001500
  C        3.1506810    -0.1849920    -0.0001670
  C        2.7828300     1.1426020    -0.0001250
  H       -1.0124600     2.2659460     0.0000190
  H       -3.5213850     2.0011240     0.0001460
  H       -4.4778440    -0.3237170     0.0002310
  H       -2.9027010    -2.2653680     0.0001840
  H        4.1496320    -0.6018500    -0.0002240
  H        3.4730500     1.9793660    -0.0001460
units angstrom
no_reorient  #important for SAPT in psi4, default
symmetry c1  #important for SAPT in psi4, default
}

set PROPERTIES_ORIGIN ["COM"]
properties('MP2/aug-cc-pvtz', properties = ['dipole'])
--------------------------------------------------------------------------

    Molecular point group: c1
  Charge       = 0
  Multiplicity = 1
  Basis Set: AUG-CC-PVTZ
    Blend: AUG-CC-PVTZ
  Basis Set: (AUG-CC-PVTZ AUX)
    Blend: AUG-CC-PVTZ-JKFIT

    Orbital Energies [Eh]
    ---------------------

    Doubly Occupied:

       1A    -91.994315     2A    -15.576585     3A    -15.574773
       4A    -11.314488     5A    -11.298932     6A    -11.285570
       7A    -11.270047     8A    -11.266470     9A    -11.264617
      10A    -11.252137    11A    -11.251375    12A     -8.994495
      13A     -6.675274    14A     -6.674703    15A     -6.674057
      16A     -1.293112    17A     -1.268547    18A     -1.099057
      19A     -1.064784    20A     -1.060899    21A     -0.985727
      22A     -0.875996    23A     -0.870855    24A     -0.789378
      25A     -0.766976    26A     -0.707520    27A     -0.683623
      28A     -0.668039    29A     -0.639335    30A     -0.591632
      31A     -0.589842    32A     -0.583375    33A     -0.559013
      34A     -0.539393    35A     -0.528480    36A     -0.502482
      37A     -0.445770    38A     -0.421622    39A     -0.402698
      40A     -0.392015    41A     -0.368091    42A     -0.308325

  @DF-RHF Final Energy:  -813.00842893936749

   => Energetics <=

    Nuclear Repulsion Energy =            627.1389557476757091
    One-Electron Energy =               -2357.5459212623927669
    Two-Electron Energy =                 917.3985365753495671
    Total Energy =                       -813.0084289393674908
  Basis Set: (AUG-CC-PVTZ AUX)
    Blend: AUG-CC-PVTZ-RI
    Molecular point group: c1

    Geometry (in Angstrom), charge = 0, multiplicity = 1:

       Center              X                  Y                   Z               Mass
    ------------   -----------------  -----------------  -----------------  -----------------
         S            1.737227944685    -1.165790318197    -0.000108790302    31.972071174400
         N           -1.213880055315    -1.094345318197     0.000085209698    14.003074004430
         N            1.411733944685     1.403234681803    -0.000055790302    14.003074004430
         C           -0.731962255315     0.112134881803     0.000042809698    12.000000000000
         C            0.745609944685     0.258924681803    -0.000033790302    12.000000000000
         C           -1.511411055315     1.311288681803     0.000059209698    12.000000000000
         C           -2.893630055315     1.153179681803     0.000130209698    12.000000000000
         C           -3.428655055315    -0.137108318197     0.000177209698    12.000000000000
         C           -2.550850055315    -1.221971318197     0.000151209698    12.000000000000
         C            3.126072944685    -0.163052318197    -0.000165790302    12.000000000000
         C            2.758221944685     1.164541681803    -0.000123790302    12.000000000000
         H           -1.037068055315     2.287885681803     0.000020209698     1.007825032230
         H           -3.545993055315     2.023063681803     0.000147209698     1.007825032230
         H           -4.502452055315    -0.301777318197     0.000232209698     1.007825032230
         H           -2.927309055315    -2.243428318197     0.000185209698     1.007825032230
         H            4.125023944685    -0.579910318197    -0.000222790302     1.007825032230
         H            3.448441944685     2.001305681803    -0.000144790302     1.007825032230

  Basis Set: AUG-CC-PVTZ
    Blend: AUG-CC-PVTZ
  Basis Set: (AUG-CC-PVTZ AUX)
    Blend: AUG-CC-PVTZ-JKFIT
	 Reference Energy          =    -813.0084289393674908 [Eh]
	 Singles Energy            =      -0.0000000000000000 [Eh]
	 Same-Spin Energy          =      -0.5246969253794354 [Eh]
	 Opposite-Spin Energy      =      -1.5524324042082389 [Eh]
	 Correlation Energy        =      -2.0771293295876743 [Eh]
	 Total Energy              =    -815.0855582689551966 [Eh]

	 ================> DF-SCS-MP2 Energies <==================
	-----------------------------------------------------------
	 SCS Same-Spin Scale       =       0.3333333333333333 [-]
	 SCS Opposite-Spin Scale   =       1.2000000000000000 [-]
	 SCS Same-Spin Energy      =      -0.1748989751264785 [Eh]
	 SCS Opposite-Spin Energy  =      -1.8629188850498866 [Eh]
	 SCS Correlation Energy    =      -2.0378178601763648 [Eh]
	 SCS Total Energy          =    -815.0462467995438374 [Eh]
	-----------------------------------------------------------

  Dipole Moment: [D]
     X:    -0.8578      Y:     0.1875      Z:    -0.0000     Total:     0.8781

*** Psi4 exiting successfully. Buy a developer a beer!
