                               Psi4 1.3.2 release

  ==> Input File <==

--------------------------------------------------------------------------
#psi4
#
memory 32 gb

molecule  {
0 1
  S        1.7618360    -1.1877300    -0.0001100
  N       -1.1892720    -1.1162850     0.0000840
  N        1.4363420     1.3812950    -0.0000570
  C       -0.5605835     0.0774516     0.0000348
  C        0.7702180     0.2369850    -0.0000350
  C       -1.4868030     1.2893490     0.0000580
  C       -2.8690220     1.1312400     0.0001290
  C       -3.4040470    -0.1590480     0.0001760
  C       -2.5262420    -1.2439110     0.0001500
  C        3.1506810    -0.1849920    -0.0001670
  C        2.7828300     1.1426020    -0.0001250
  H       -1.0124600     2.2659460     0.0000190
  H       -3.5213850     2.0011240     0.0001460
  H       -4.4778440    -0.3237170     0.0002310
  H       -2.9027010    -2.2653680     0.0001840
  H        4.1496320    -0.6018500    -0.0002240
  H        3.4730500     1.9793660    -0.0001460
units angstrom
no_reorient  #important for SAPT in psi4, default
symmetry c1  #important for SAPT in psi4, default
}

set PROPERTIES_ORIGIN ["COM"]
properties('MP2/aug-cc-pvtz', properties = ['dipole'])
--------------------------------------------------------------------------

    Molecular point group: c1
  Charge       = 0
  Multiplicity = 1
  Basis Set: AUG-CC-PVTZ
    Blend: AUG-CC-PVTZ
  Basis Set: (AUG-CC-PVTZ AUX)
    Blend: AUG-CC-PVTZ-JKFIT

    Orbital Energies [Eh]
    ---------------------

    Doubly Occupied:

       1A    -91.998346     2A    -15.581384     3A    -15.577038
       4A    -11.309134     5A    -11.300922     6A    -11.281854
       7A    -11.275017     8A    -11.271293     9A    -11.262080
      10A    -11.260020    11A    -11.251041    12A     -8.998676
      13A     -6.679443    14A     -6.678810    15A     -6.678187
      16A     -1.294003    17A     -1.253375    18A     -1.094727
      19A     -1.075384    20A     -1.067155    21A     -0.985760
      22A     -0.890723    23A     -0.860281    24A     -0.792395
      25A     -0.775763    26A     -0.707780    27A     -0.686667
      28A     -0.662459    29A     -0.634774    30A     -0.598943
      31A     -0.589372    32A     -0.587564    33A     -0.553686
      34A     -0.541091    35A     -0.529527    36A     -0.505813
      37A     -0.445002    38A     -0.407805    39A     -0.407662
      40A     -0.393525    41A     -0.369471    42A     -0.295169

  @DF-RHF Final Energy:  -812.97833143810180

   => Energetics <=

    Nuclear Repulsion Energy =            627.5610940284641401
    One-Electron Energy =               -2358.2606092982996415
    Two-Electron Energy =                 917.7211838317336969
    Total Energy =                       -812.9783314381018045
  Basis Set: (AUG-CC-PVTZ AUX)
    Blend: AUG-CC-PVTZ-RI
    Molecular point group: c1

    Geometry (in Angstrom), charge = 0, multiplicity = 1:

       Center              X                  Y                   Z               Mass
    ------------   -----------------  -----------------  -----------------  -----------------
         S            1.726357729849    -1.164846494465    -0.000108286676    31.972071174400
         N           -1.224750270151    -1.093401494465     0.000085713324    14.003074004430
         N            1.400863729849     1.404178505535    -0.000055286676    14.003074004430
         C           -0.596061770151     0.100335105535     0.000036513324    12.000000000000
         C            0.734739729849     0.259868505535    -0.000033286676    12.000000000000
         C           -1.522281270151     1.312232505535     0.000059713324    12.000000000000
         C           -2.904500270151     1.154123505535     0.000130713324    12.000000000000
         C           -3.439525270151    -0.136164494465     0.000177713324    12.000000000000
         C           -2.561720270151    -1.221027494465     0.000151713324    12.000000000000
         C            3.115202729849    -0.162108494465    -0.000165286676    12.000000000000
         C            2.747351729849     1.165485505535    -0.000123286676    12.000000000000
         H           -1.047938270151     2.288829505535     0.000020713324     1.007825032230
         H           -3.556863270151     2.024007505535     0.000147713324     1.007825032230
         H           -4.513322270151    -0.300833494465     0.000232713324     1.007825032230
         H           -2.938179270151    -2.242484494465     0.000185713324     1.007825032230
         H            4.114153729849    -0.578966494465    -0.000222286676     1.007825032230
         H            3.437571729849     2.002249505535    -0.000144286676     1.007825032230

  Basis Set: AUG-CC-PVTZ
    Blend: AUG-CC-PVTZ
  Basis Set: (AUG-CC-PVTZ AUX)
    Blend: AUG-CC-PVTZ-JKFIT
	 Reference Energy          =    -812.9783314381018045 [Eh]
	 Singles Energy            =      -0.0000000000000000 [Eh]
	 Same-Spin Energy          =      -0.5284706096478389 [Eh]
	 Opposite-Spin Energy      =      -1.5584089867312065 [Eh]
	 Correlation Energy        =      -2.0868795963790454 [Eh]
	 Total Energy              =    -815.0652110344808534 [Eh]

	 ================> DF-SCS-MP2 Energies <==================
	-----------------------------------------------------------
	 SCS Same-Spin Scale       =       0.3333333333333333 [-]
	 SCS Opposite-Spin Scale   =       1.2000000000000000 [-]
	 SCS Same-Spin Energy      =      -0.1761568698826129 [Eh]
	 SCS Opposite-Spin Energy  =      -1.8700907840774477 [Eh]
	 SCS Correlation Energy    =      -2.0462476539600605 [Eh]
	 SCS Total Energy          =    -815.0245790920619129 [Eh]
	-----------------------------------------------------------

  Dipole Moment: [D]
     X:    -0.2350      Y:     0.1982      Z:    -0.0000     Total:     0.3074

*** Psi4 exiting successfully. Buy a developer a beer!
