                               Psi4 1.3.2 release

  ==> Input File <==

--------------------------------------------------------------------------
#psi4
#
memory 32 gb

molecule  {
0 1
  S        1.6646296    -1.0370631    -0.0001023
  N       -1.1892720    -1.1162850     0.0000840
  N        1.4363420     1.3812950    -0.0000570
  C       -0.6888070     0.1366280     0.0000400
  C        0.7702180     0.2369850    -0.0000350
  C       -1.4868030     1.2893490     0.0000580
  C       -2.8690220     1.1312400     0.0001290
  C       -3.4040470    -0.1590480     0.0001760
  C       -2.5262420    -1.2439110     0.0001500
  C        3.1506810    -0.1849920    -0.0001670
  C        2.7828300     1.1426020    -0.0001250
  H       -1.0124600     2.2659460     0.0000190
  H       -3.5213850     2.0011240     0.0001460
  H       -4.4778440    -0.3237170     0.0002310
  H       -2.9027010    -2.2653680     0.0001840
  H        4.1496320    -0.6018500    -0.0002240
  H        3.4730500     1.9793660    -0.0001460
units angstrom
no_reorient  #important for SAPT in psi4, default
symmetry c1  #important for SAPT in psi4, default
}

set PROPERTIES_ORIGIN ["COM"]
properties('MP2/aug-cc-pvtz', properties = ['dipole'])
--------------------------------------------------------------------------

    Molecular point group: c1
  Charge       = 0
  Multiplicity = 1
  Basis Set: AUG-CC-PVTZ
    Blend: AUG-CC-PVTZ
  Basis Set: (AUG-CC-PVTZ AUX)
    Blend: AUG-CC-PVTZ-JKFIT

    Orbital Energies [Eh]
    ---------------------

    Doubly Occupied:

       1A    -91.989356     2A    -15.578347     3A    -15.562700
       4A    -11.297295     5A    -11.294377     6A    -11.285409
       7A    -11.270903     8A    -11.267138     9A    -11.261292
      10A    -11.250778    11A    -11.248788    12A     -8.994898
      13A     -6.676168    14A     -6.674973    15A     -6.674261
      16A     -1.300430    17A     -1.262548    18A     -1.098305
      19A     -1.076943    20A     -1.066834    21A     -1.000298
      22A     -0.877525    23A     -0.869304    24A     -0.793816
      25A     -0.769646    26A     -0.707161    27A     -0.679640
      28A     -0.669211    29A     -0.642347    30A     -0.597692
      31A     -0.594739    32A     -0.587419    33A     -0.574871
      34A     -0.540139    35A     -0.530511    36A     -0.492804
      37A     -0.443229    38A     -0.419320    39A     -0.399122
      40A     -0.384038    41A     -0.375562    42A     -0.314895

  @DF-RHF Final Energy:  -812.99112300321281

   => Energetics <=

    Nuclear Repulsion Energy =            635.8235468779715802
    One-Electron Energy =               -2374.8392691238141197
    Two-Electron Energy =                 926.0245992426296198
    Total Energy =                       -812.9911230032128060
  Basis Set: (AUG-CC-PVTZ AUX)
    Blend: AUG-CC-PVTZ-RI
    Molecular point group: c1

    Geometry (in Angstrom), charge = 0, multiplicity = 1:

       Center              X                  Y                   Z               Mass
    ------------   -----------------  -----------------  -----------------  -----------------
         S            1.657829417070    -1.048293119368    -0.000102491226    31.972071174400
         N           -1.196072182930    -1.127515019368     0.000083808774    14.003074004430
         N            1.429541817070     1.370064980632    -0.000057191226    14.003074004430
         C           -0.695607182930     0.125397980632     0.000039808774    12.000000000000
         C            0.763417817070     0.225754980632    -0.000035191226    12.000000000000
         C           -1.493603182930     1.278118980632     0.000057808774    12.000000000000
         C           -2.875822182930     1.120009980632     0.000128808774    12.000000000000
         C           -3.410847182930    -0.170278019368     0.000175808774    12.000000000000
         C           -2.533042182930    -1.255141019368     0.000149808774    12.000000000000
         C            3.143880817070    -0.196222019368    -0.000167191226    12.000000000000
         C            2.776029817070     1.131371980632    -0.000125191226    12.000000000000
         H           -1.019260182930     2.254715980632     0.000018808774     1.007825032230
         H           -3.528185182930     1.989893980632     0.000145808774     1.007825032230
         H           -4.484644182930    -0.334947019368     0.000230808774     1.007825032230
         H           -2.909501182930    -2.276598019368     0.000183808774     1.007825032230
         H            4.142831817070    -0.613080019368    -0.000224191226     1.007825032230
         H            3.466249817070     1.968135980632    -0.000146191226     1.007825032230

  Basis Set: AUG-CC-PVTZ
    Blend: AUG-CC-PVTZ
  Basis Set: (AUG-CC-PVTZ AUX)
    Blend: AUG-CC-PVTZ-JKFIT
	 Reference Energy          =    -812.9911230032128060 [Eh]
	 Singles Energy            =      -0.0000000000000000 [Eh]
	 Same-Spin Energy          =      -0.5266055022399163 [Eh]
	 Opposite-Spin Energy      =      -1.5521804963361585 [Eh]
	 Correlation Energy        =      -2.0787859985760750 [Eh]
	 Total Energy              =    -815.0699090017889148 [Eh]

	 ================> DF-SCS-MP2 Energies <==================
	-----------------------------------------------------------
	 SCS Same-Spin Scale       =       0.3333333333333333 [-]
	 SCS Opposite-Spin Scale   =       1.2000000000000000 [-]
	 SCS Same-Spin Energy      =      -0.1755351674133054 [Eh]
	 SCS Opposite-Spin Energy  =      -1.8626165956033902 [Eh]
	 SCS Correlation Energy    =      -2.0381517630166957 [Eh]
	 SCS Total Energy          =    -815.0292747662294914 [Eh]
	-----------------------------------------------------------

  Dipole Moment: [D]
     X:    -0.7386      Y:     0.0954      Z:    -0.0000     Total:     0.7447

*** Psi4 exiting successfully. Buy a developer a beer!
