                               Psi4 1.4a3.dev225

  ==> Input File <==

--------------------------------------------------------------------------
#psi4
#
memory 32 gb

molecule  {
0 1
  S        1.7618360    -1.1877300    -0.0001100
  N       -1.1892720    -1.1162850     0.0000840
  N        1.4363420     1.3812950    -0.0000570
  C       -0.6888070     0.1366280     0.0000400
  C        0.7702180     0.2369850    -0.0000350
  C       -1.4868030     1.2893490     0.0000580
  C       -2.8690220     1.1312400     0.0001290
  C       -3.4040470    -0.1590480     0.0001760
  C       -2.5262420    -1.2439110     0.0001500
  C        3.1506810    -0.1849920    -0.0001670
  C        2.7828300     1.1426020    -0.0001250
  H       -1.0124600     2.2659460     0.0000190
  H       -3.5213850     2.0011240     0.0001460
  H       -4.4778440    -0.3237170     0.0002310
  H       -2.9027010    -2.2653680     0.0001840
  H        4.1496320    -0.6018500    -0.0002240
  H        3.4603236     1.9639375    -0.0001456
units angstrom
no_reorient  #important for SAPT in psi4, default
symmetry c1  #important for SAPT in psi4, default
}

set PROPERTIES_ORIGIN ["COM"]
properties('MP2/aug-cc-pvtz', properties = ['dipole'])
--------------------------------------------------------------------------

    Molecular point group: c1
  Charge       = 0
  Multiplicity = 1
  Basis Set: AUG-CC-PVTZ
    Blend: AUG-CC-PVTZ
  Basis Set: (AUG-CC-PVTZ AUX)
    Blend: AUG-CC-PVTZ-JKFIT

    Orbital Energies [Eh]
    ---------------------

    Doubly Occupied:

       1A    -91.995614     2A    -15.578873     3A    -15.574171
       4A    -11.313663     5A    -11.297372     6A    -11.285457
       7A    -11.267953     8A    -11.267547     9A    -11.264922
      10A    -11.251345    11A    -11.249918    12A     -8.995643
      13A     -6.676411    14A     -6.675862    15A     -6.675198
      16A     -1.287441    17A     -1.260244    18A     -1.096514
      19A     -1.068516    20A     -1.062252    21A     -0.987165
      22A     -0.877274    23A     -0.869306    24A     -0.791498
      25A     -0.767697    26A     -0.707204    27A     -0.681305
      28A     -0.668941    29A     -0.640363    30A     -0.594312
      31A     -0.588576    32A     -0.581391    33A     -0.558414
      34A     -0.535960    35A     -0.529309    36A     -0.503654
      37A     -0.444244    38A     -0.424620    39A     -0.398805
      40A     -0.392490    41A     -0.371459    42A     -0.307040

  @DF-RHF Final Energy:  -813.00959342200304

   => Energetics <=

    Nuclear Repulsion Energy =            627.0655103904643966
    One-Electron Energy =               -2357.4183247673145161
    Two-Electron Energy =                 917.3432209548470837
    Total Energy =                       -813.0095934220030358
  Basis Set: (AUG-CC-PVTZ AUX)
    Blend: AUG-CC-PVTZ-RI
    Molecular point group: c1

    Geometry (in Angstrom), charge = 0, multiplicity = 1:

       Center              X                  Y                   Z               Mass
    ------------   -----------------  -----------------  -----------------  -----------------
         S            1.735933451883    -1.169133282587    -0.000108674290    31.972071174400
         N           -1.215174548117    -1.097688282587     0.000085325710    14.003074004430
         N            1.410439451883     1.399891717413    -0.000055674290    14.003074004430
         C           -0.714709548117     0.155224717413     0.000041325710    12.000000000000
         C            0.744315451883     0.255581717413    -0.000033674290    12.000000000000
         C           -1.512705548117     1.307945717413     0.000059325710    12.000000000000
         C           -2.894924548117     1.149836717413     0.000130325710    12.000000000000
         C           -3.429949548117    -0.140451282587     0.000177325710    12.000000000000
         C           -2.552144548117    -1.225314282587     0.000151325710    12.000000000000
         C            3.124778451883    -0.166395282587    -0.000165674290    12.000000000000
         C            2.756927451883     1.161198717413    -0.000123674290    12.000000000000
         H           -1.038362548117     2.284542717413     0.000020325710     1.007825032230
         H           -3.547287548117     2.019720717413     0.000147325710     1.007825032230
         H           -4.503746548117    -0.305120282587     0.000232325710     1.007825032230
         H           -2.928603548117    -2.246771282587     0.000185325710     1.007825032230
         H            4.123729451883    -0.583253282587    -0.000222674290     1.007825032230
         H            3.434421051883     1.982534217413    -0.000144274290     1.007825032230

  Basis Set: AUG-CC-PVTZ
    Blend: AUG-CC-PVTZ
  Basis Set: (AUG-CC-PVTZ AUX)
    Blend: AUG-CC-PVTZ-JKFIT
	 Reference Energy          =    -813.0095934220030358 [Eh]
	 Singles Energy            =      -0.0000000000000000 [Eh]
	 Same-Spin Energy          =      -0.5252995501614546 [Eh]
	 Opposite-Spin Energy      =      -1.5535109054617757 [Eh]
	 Correlation Energy        =      -2.0788104556232305 [Eh]
	 Total Energy              =    -815.0884038776263196 [Eh]

	 ================> DF-SCS-MP2 Energies <==================
	-----------------------------------------------------------
	 SCS Same-Spin Scale       =       0.3333333333333333 [-]
	 SCS Opposite-Spin Scale   =       1.2000000000000000 [-]
	 SCS Same-Spin Energy      =      -0.1750998500538182 [Eh]
	 SCS Opposite-Spin Energy  =      -1.8642130865541309 [Eh]
	 SCS Correlation Energy    =      -2.0393129366079492 [Eh]
	 SCS Total Energy          =    -815.0489063586110206 [Eh]
	-----------------------------------------------------------

  Dipole Moment: [D]
     X:    -0.7940      Y:     0.1956      Z:    -0.0000     Total:     0.8177

*** Psi4 exiting successfully. Buy a developer a beer!
