                               Psi4 1.3.2 release

  ==> Input File <==

--------------------------------------------------------------------------
#psi4
#
memory 32 gb

molecule  {
0 1
  S        1.7618360    -1.1877300    -0.0001100
  N       -1.1892720    -1.1162850     0.0000840
  N        1.4363420     1.3812950    -0.0000570
  C       -0.6146184     0.3223591     0.0000335
  C        0.7702180     0.2369850    -0.0000350
  C       -1.4868030     1.2893490     0.0000580
  C       -2.8690220     1.1312400     0.0001290
  C       -3.4040470    -0.1590480     0.0001760
  C       -2.5262420    -1.2439110     0.0001500
  C        3.1506810    -0.1849920    -0.0001670
  C        2.7828300     1.1426020    -0.0001250
  H       -1.0124600     2.2659460     0.0000190
  H       -3.5213850     2.0011240     0.0001460
  H       -4.4778440    -0.3237170     0.0002310
  H       -2.9027010    -2.2653680     0.0001840
  H        4.1496320    -0.6018500    -0.0002240
  H        3.4730500     1.9793660    -0.0001460
units angstrom
no_reorient  #important for SAPT in psi4, default
symmetry c1  #important for SAPT in psi4, default
}

set PROPERTIES_ORIGIN ["COM"]
properties('MP2/aug-cc-pvtz', properties = ['dipole'])
--------------------------------------------------------------------------

    Molecular point group: c1
  Charge       = 0
  Multiplicity = 1
  Basis Set: AUG-CC-PVTZ
    Blend: AUG-CC-PVTZ
  Basis Set: (AUG-CC-PVTZ AUX)
    Blend: AUG-CC-PVTZ-JKFIT

    Orbital Energies [Eh]
    ---------------------

    Doubly Occupied:

       1A    -92.001531     2A    -15.581970     3A    -15.573178
       4A    -11.311001     5A    -11.289665     6A    -11.283806
       7A    -11.270544     8A    -11.269910     9A    -11.267239
      10A    -11.252611    11A    -11.240834    12A     -9.000951
      13A     -6.681672    14A     -6.681201    15A     -6.680465
      16A     -1.287218    17A     -1.226062    18A     -1.095411
      19A     -1.077819    20A     -1.064632    21A     -0.991622
      22A     -0.888284    23A     -0.858884    24A     -0.797681
      25A     -0.763088    26A     -0.708615    27A     -0.684351
      28A     -0.654404    29A     -0.638099    30A     -0.601416
      31A     -0.581534    32A     -0.578602    33A     -0.564774
      34A     -0.525598    35A     -0.523936    36A     -0.501257
      37A     -0.441196    38A     -0.415665    39A     -0.408835
      40A     -0.381115    41A     -0.380147    42A     -0.303211

  @DF-RHF Final Energy:  -812.96134959838923

   => Energetics <=

    Nuclear Repulsion Energy =            626.5012485248734038
    One-Electron Energy =               -2356.2651257462039212
    Two-Electron Energy =                 916.8025276229411702
    Total Energy =                       -812.9613495983892335
  Basis Set: (AUG-CC-PVTZ AUX)
    Blend: AUG-CC-PVTZ-RI
    Molecular point group: c1

    Geometry (in Angstrom), charge = 0, multiplicity = 1:

       Center              X                  Y                   Z               Mass
    ------------   -----------------  -----------------  -----------------  -----------------
         S            1.730359693263    -1.182984972649    -0.000108190395    31.972071174400
         N           -1.220748306737    -1.111539972649     0.000085809605    14.003074004430
         N            1.404865693263     1.386040027351    -0.000055190395    14.003074004430
         C           -0.646094706737     0.327104127351     0.000035309605    12.000000000000
         C            0.738741693263     0.241730027351    -0.000033190395    12.000000000000
         C           -1.518279306737     1.294094027351     0.000059809605    12.000000000000
         C           -2.900498306737     1.135985027351     0.000130809605    12.000000000000
         C           -3.435523306737    -0.154302972649     0.000177809605    12.000000000000
         C           -2.557718306737    -1.239165972649     0.000151809605    12.000000000000
         C            3.119204693263    -0.180246972649    -0.000165190395    12.000000000000
         C            2.751353693263     1.147347027351    -0.000123190395    12.000000000000
         H           -1.043936306737     2.270691027351     0.000020809605     1.007825032230
         H           -3.552861306737     2.005869027351     0.000147809605     1.007825032230
         H           -4.509320306737    -0.318971972649     0.000232809605     1.007825032230
         H           -2.934177306737    -2.260622972649     0.000185809605     1.007825032230
         H            4.118155693263    -0.597104972649    -0.000222190395     1.007825032230
         H            3.441573693263     1.984111027351    -0.000144190395     1.007825032230

  Basis Set: AUG-CC-PVTZ
    Blend: AUG-CC-PVTZ
  Basis Set: (AUG-CC-PVTZ AUX)
    Blend: AUG-CC-PVTZ-JKFIT
	 Reference Energy          =    -812.9613495983892335 [Eh]
	 Singles Energy            =      -0.0000000000000000 [Eh]
	 Same-Spin Energy          =      -0.5273351257483743 [Eh]
	 Opposite-Spin Energy      =      -1.5607422469315355 [Eh]
	 Correlation Energy        =      -2.0880773726799098 [Eh]
	 Total Energy              =    -815.0494269710691242 [Eh]

	 ================> DF-SCS-MP2 Energies <==================
	-----------------------------------------------------------
	 SCS Same-Spin Scale       =       0.3333333333333333 [-]
	 SCS Opposite-Spin Scale   =       1.2000000000000000 [-]
	 SCS Same-Spin Energy      =      -0.1757783752494581 [Eh]
	 SCS Opposite-Spin Energy  =      -1.8728906963178424 [Eh]
	 SCS Correlation Energy    =      -2.0486690715673004 [Eh]
	 SCS Total Energy          =    -815.0100186699564802 [Eh]
	-----------------------------------------------------------

  Dipole Moment: [D]
     X:    -0.4997      Y:     0.1475      Z:    -0.0000     Total:     0.5211

*** Psi4 exiting successfully. Buy a developer a beer!
