                               Psi4 1.4a3.dev225

  ==> Input File <==

--------------------------------------------------------------------------
#psi4
#
memory 32 gb

molecule  {
0 1
  S        1.7618360    -1.1877300    -0.0001100
  N       -1.1892720    -1.1162850     0.0000840
  N        1.4363420     1.3812950    -0.0000570
  C       -0.6888070     0.1366280     0.0000400
  C        0.8201001     0.2404161    -0.0000376
  C       -1.4868030     1.2893490     0.0000580
  C       -2.8690220     1.1312400     0.0001290
  C       -3.4040470    -0.1590480     0.0001760
  C       -2.5262420    -1.2439110     0.0001500
  C        3.1506810    -0.1849920    -0.0001670
  C        2.7828300     1.1426020    -0.0001250
  H       -1.0124600     2.2659460     0.0000190
  H       -3.5213850     2.0011240     0.0001460
  H       -4.4778440    -0.3237170     0.0002310
  H       -2.9027010    -2.2653680     0.0001840
  H        4.1496320    -0.6018500    -0.0002240
  H        3.4730500     1.9793660    -0.0001460
units angstrom
no_reorient  #important for SAPT in psi4, default
symmetry c1  #important for SAPT in psi4, default
}

set PROPERTIES_ORIGIN ["COM"]
properties('MP2/aug-cc-pvtz', properties = ['dipole'])
--------------------------------------------------------------------------

    Molecular point group: c1
  Charge       = 0
  Multiplicity = 1
  Basis Set: AUG-CC-PVTZ
    Blend: AUG-CC-PVTZ
  Basis Set: (AUG-CC-PVTZ AUX)
    Blend: AUG-CC-PVTZ-JKFIT

    Orbital Energies [Eh]
    ---------------------

    Doubly Occupied:

       1A    -91.995641     2A    -15.578046     3A    -15.572058
       4A    -11.312197     5A    -11.299317     6A    -11.284704
       7A    -11.270168     8A    -11.266818     9A    -11.264111
      10A    -11.250150    11A    -11.248624    12A     -8.996376
      13A     -6.677172    14A     -6.676576    15A     -6.675854
      16A     -1.295012    17A     -1.261914    18A     -1.095566
      19A     -1.069768    20A     -1.060452    21A     -0.987449
      22A     -0.871127    23A     -0.867227    24A     -0.793989
      25A     -0.763310    26A     -0.708957    27A     -0.679601
      28A     -0.667450    29A     -0.637848    30A     -0.590756
      31A     -0.586302    32A     -0.582898    33A     -0.560302
      34A     -0.538299    35A     -0.523944    36A     -0.504899
      37A     -0.448665    38A     -0.424546    39A     -0.397222
      40A     -0.393742    41A     -0.370092    42A     -0.311417

  @DF-RHF Final Energy:  -813.00922071578248

   => Energetics <=

    Nuclear Repulsion Energy =            627.1678027117465035
    One-Electron Energy =               -2357.6329150062006192
    Two-Electron Energy =                 917.4558915786717535
    Total Energy =                       -813.0092207157824760
  Basis Set: (AUG-CC-PVTZ AUX)
    Blend: AUG-CC-PVTZ-RI
    Molecular point group: c1

    Geometry (in Angstrom), charge = 0, multiplicity = 1:

       Center              X                  Y                   Z               Mass
    ------------   -----------------  -----------------  -----------------  -----------------
         S            1.732159895053    -1.169483366643    -0.000108479239    31.972071174400
         N           -1.218948104947    -1.098038366643     0.000085520761    14.003074004430
         N            1.406665895053     1.399541633357    -0.000055479239    14.003074004430
         C           -0.718483104947     0.154874633357     0.000041520761    12.000000000000
         C            0.790423995053     0.258662733357    -0.000036079239    12.000000000000
         C           -1.516479104947     1.307595633357     0.000059520761    12.000000000000
         C           -2.898698104947     1.149486633357     0.000130520761    12.000000000000
         C           -3.433723104947    -0.140801366643     0.000177520761    12.000000000000
         C           -2.555918104947    -1.225664366643     0.000151520761    12.000000000000
         C            3.121004895053    -0.166745366643    -0.000165479239    12.000000000000
         C            2.753153895053     1.160848633357    -0.000123479239    12.000000000000
         H           -1.042136104947     2.284192633357     0.000020520761     1.007825032230
         H           -3.551061104947     2.019370633357     0.000147520761     1.007825032230
         H           -4.507520104947    -0.305470366643     0.000232520761     1.007825032230
         H           -2.932377104947    -2.247121366643     0.000185520761     1.007825032230
         H            4.119955895053    -0.583603366643    -0.000222479239     1.007825032230
         H            3.443373895053     1.997612633357    -0.000144479239     1.007825032230

  Basis Set: AUG-CC-PVTZ
    Blend: AUG-CC-PVTZ
  Basis Set: (AUG-CC-PVTZ AUX)
    Blend: AUG-CC-PVTZ-JKFIT
	 Reference Energy          =    -813.0092207157824760 [Eh]
	 Singles Energy            =      -0.0000000000000000 [Eh]
	 Same-Spin Energy          =      -0.5242379211503617 [Eh]
	 Opposite-Spin Energy      =      -1.5520156468997466 [Eh]
	 Correlation Energy        =      -2.0762535680501082 [Eh]
	 Total Energy              =    -815.0854742838325819 [Eh]

	 ================> DF-SCS-MP2 Energies <==================
	-----------------------------------------------------------
	 SCS Same-Spin Scale       =       0.3333333333333333 [-]
	 SCS Opposite-Spin Scale   =       1.2000000000000000 [-]
	 SCS Same-Spin Energy      =      -0.1747459737167872 [Eh]
	 SCS Opposite-Spin Energy  =      -1.8624187762796958 [Eh]
	 SCS Correlation Energy    =      -2.0371647499964829 [Eh]
	 SCS Total Energy          =    -815.0463854657789398 [Eh]
	-----------------------------------------------------------

  Dipole Moment: [D]
     X:    -0.7793      Y:     0.1586      Z:    -0.0000     Total:     0.7953

*** Psi4 exiting successfully. Buy a developer a beer!
