                               Psi4 1.3.2 release

  ==> Input File <==

--------------------------------------------------------------------------
#psi4
#
memory 32 gb

molecule  {
0 1
  S        1.7618360    -1.1877300    -0.0001100
  N       -1.1892720    -1.1162850     0.0000840
  N        1.4363420     1.3812950    -0.0000570
  C       -0.6888070     0.1366280     0.0000400
  C        0.7702180     0.2369850    -0.0000350
  C       -1.4868030     1.2893490     0.0000580
  C       -2.8690220     1.1312400     0.0001290
  C       -3.4040470    -0.1590480     0.0001760
  C       -2.3271471    -1.2249056     0.0001402
  C        3.1506810    -0.1849920    -0.0001670
  C        2.7828300     1.1426020    -0.0001250
  H       -1.0124600     2.2659460     0.0000190
  H       -3.5213850     2.0011240     0.0001460
  H       -4.4778440    -0.3237170     0.0002310
  H       -2.9027010    -2.2653680     0.0001840
  H        4.1496320    -0.6018500    -0.0002240
  H        3.4730500     1.9793660    -0.0001460
units angstrom
no_reorient  #important for SAPT in psi4, default
symmetry c1  #important for SAPT in psi4, default
}

set PROPERTIES_ORIGIN ["COM"]
properties('MP2/aug-cc-pvtz', properties = ['dipole'])
--------------------------------------------------------------------------

    Molecular point group: c1
  Charge       = 0
  Multiplicity = 1
  Basis Set: AUG-CC-PVTZ
    Blend: AUG-CC-PVTZ
  Basis Set: (AUG-CC-PVTZ AUX)
    Blend: AUG-CC-PVTZ-JKFIT

    Orbital Energies [Eh]
    ---------------------

    Doubly Occupied:

       1A    -91.996256     2A    -15.571960     3A    -15.564471
       4A    -11.314162     5A    -11.297315     6A    -11.285416
       7A    -11.270634     8A    -11.264147     9A    -11.263772
      10A    -11.259482    11A    -11.252465    12A     -8.996349
      13A     -6.677129    14A     -6.676590    15A     -6.675918
      16A     -1.340752    17A     -1.277366    18A     -1.109464
      19A     -1.065509    20A     -1.063537    21A     -0.977502
      22A     -0.892618    23A     -0.851722    24A     -0.792419
      25A     -0.768879    26A     -0.707961    27A     -0.684746
      28A     -0.678333    29A     -0.628190    30A     -0.600165
      31A     -0.594359    32A     -0.583428    33A     -0.566056
      34A     -0.551768    35A     -0.534178    36A     -0.501818
      37A     -0.436134    38A     -0.419153    39A     -0.403137
      40A     -0.393921    41A     -0.373903    42A     -0.297771

  @DF-RHF Final Energy:  -812.95301804710641

   => Energetics <=

    Nuclear Repulsion Energy =            630.5503041902428549
    One-Electron Energy =               -2364.0849258441080565
    Two-Electron Energy =                 920.5816036067586765
    Total Energy =                       -812.9530180471064114
  Basis Set: (AUG-CC-PVTZ AUX)
    Blend: AUG-CC-PVTZ-RI
    Molecular point group: c1

    Geometry (in Angstrom), charge = 0, multiplicity = 1:

       Center              X                  Y                   Z               Mass
    ------------   -----------------  -----------------  -----------------  -----------------
         S            1.721108812021    -1.170636839284    -0.000107945988    31.972071174400
         N           -1.229999187979    -1.099191839284     0.000086054012    14.003074004430
         N            1.395614812021     1.398388160716    -0.000054945988    14.003074004430
         C           -0.729534187979     0.153721160716     0.000042054012    12.000000000000
         C            0.729490812021     0.254078160716    -0.000032945988    12.000000000000
         C           -1.527530187979     1.306442160716     0.000060054012    12.000000000000
         C           -2.909749187979     1.148333160716     0.000131054012    12.000000000000
         C           -3.444774187979    -0.141954839284     0.000178054012    12.000000000000
         C           -2.367874287979    -1.207812439284     0.000142254012    12.000000000000
         C            3.109953812021    -0.167898839284    -0.000164945988    12.000000000000
         C            2.742102812021     1.159695160716    -0.000122945988    12.000000000000
         H           -1.053187187979     2.283039160716     0.000021054012     1.007825032230
         H           -3.562112187979     2.018217160716     0.000148054012     1.007825032230
         H           -4.518571187979    -0.306623839284     0.000233054012     1.007825032230
         H           -2.943428187979    -2.248274839284     0.000186054012     1.007825032230
         H            4.108904812021    -0.584756839284    -0.000221945988     1.007825032230
         H            3.432322812021     1.996459160716    -0.000143945988     1.007825032230

  Basis Set: AUG-CC-PVTZ
    Blend: AUG-CC-PVTZ
  Basis Set: (AUG-CC-PVTZ AUX)
    Blend: AUG-CC-PVTZ-JKFIT
	 Reference Energy          =    -812.9530180471064114 [Eh]
	 Singles Energy            =      -0.0000000000000000 [Eh]
	 Same-Spin Energy          =      -0.5231921162233394 [Eh]
	 Opposite-Spin Energy      =      -1.5513549843512846 [Eh]
	 Correlation Energy        =      -2.0745471005746241 [Eh]
	 Total Energy              =    -815.0275651476810026 [Eh]

	 ================> DF-SCS-MP2 Energies <==================
	-----------------------------------------------------------
	 SCS Same-Spin Scale       =       0.3333333333333333 [-]
	 SCS Opposite-Spin Scale   =       1.2000000000000000 [-]
	 SCS Same-Spin Energy      =      -0.1743973720744464 [Eh]
	 SCS Opposite-Spin Energy  =      -1.8616259812215414 [Eh]
	 SCS Correlation Energy    =      -2.0360233532959877 [Eh]
	 SCS Total Energy          =    -814.9890414004023569 [Eh]
	-----------------------------------------------------------

  Dipole Moment: [D]
     X:    -0.5091      Y:     0.2258      Z:    -0.0000     Total:     0.5569

*** Psi4 exiting successfully. Buy a developer a beer!
