                               Psi4 1.4a3.dev225

  ==> Input File <==

--------------------------------------------------------------------------
#psi4
#
memory 32 gb

molecule  {
0 1
  S        1.7618360    -1.1877300    -0.0001100
  N       -1.1892720    -1.1162850     0.0000840
  N        1.4363420     1.3812950    -0.0000570
  C       -0.6888070     0.1366280     0.0000400
  C        0.7702180     0.2369850    -0.0000350
  C       -1.4868030     1.2893490     0.0000580
  C       -2.8690220     1.1312400     0.0001290
  C       -3.4040470    -0.1590480     0.0001760
  C       -2.5262420    -1.2439110     0.0001500
  C        3.1101427    -0.2142605    -0.0001653
  C        2.7828300     1.1426020    -0.0001250
  H       -1.0124600     2.2659460     0.0000190
  H       -3.5213850     2.0011240     0.0001460
  H       -4.4778440    -0.3237170     0.0002310
  H       -2.9027010    -2.2653680     0.0001840
  H        4.1496320    -0.6018500    -0.0002240
  H        3.4730500     1.9793660    -0.0001460
units angstrom
no_reorient  #important for SAPT in psi4, default
symmetry c1  #important for SAPT in psi4, default
}

set PROPERTIES_ORIGIN ["COM"]
properties('MP2/aug-cc-pvtz', properties = ['dipole'])
--------------------------------------------------------------------------

    Molecular point group: c1
  Charge       = 0
  Multiplicity = 1
  Basis Set: AUG-CC-PVTZ
    Blend: AUG-CC-PVTZ
  Basis Set: (AUG-CC-PVTZ AUX)
    Blend: AUG-CC-PVTZ-JKFIT

    Orbital Energies [Eh]
    ---------------------

    Doubly Occupied:

       1A    -91.997825     2A    -15.577571     3A    -15.575252
       4A    -11.310707     5A    -11.296727     6A    -11.284757
       7A    -11.270998     8A    -11.266742     9A    -11.266434
      10A    -11.249919    11A    -11.248497    12A     -8.998774
      13A     -6.679631    14A     -6.678974    15A     -6.678298
      16A     -1.288164    17A     -1.260013    18A     -1.095883
      19A     -1.073887    20A     -1.065096    21A     -0.983038
      22A     -0.874702    23A     -0.868582    24A     -0.787460
      25A     -0.767197    26A     -0.706797    27A     -0.679335
      28A     -0.666510    29A     -0.639085    30A     -0.593052
      31A     -0.586419    32A     -0.582269    33A     -0.554598
      34A     -0.536627    35A     -0.529598    36A     -0.509232
      37A     -0.443870    38A     -0.425186    39A     -0.401342
      40A     -0.393721    41A     -0.370322    42A     -0.302668

  @DF-RHF Final Energy:  -813.00523859668237

   => Energetics <=

    Nuclear Repulsion Energy =            627.9227490698269776
    One-Electron Energy =               -2359.1244652566683726
    Two-Electron Energy =                 918.1964775901590201
    Total Energy =                       -813.0052385966823749
  Basis Set: (AUG-CC-PVTZ AUX)
    Blend: AUG-CC-PVTZ-RI
    Molecular point group: c1

    Geometry (in Angstrom), charge = 0, multiplicity = 1:

       Center              X                  Y                   Z               Mass
    ------------   -----------------  -----------------  -----------------  -----------------
         S            1.738856662007    -1.167061550319    -0.000108797708    31.972071174400
         N           -1.212251337993    -1.095616550319     0.000085202292    14.003074004430
         N            1.413362662007     1.401963449681    -0.000055797708    14.003074004430
         C           -0.711786337993     0.157296449681     0.000041202292    12.000000000000
         C            0.747238662007     0.257653449681    -0.000033797708    12.000000000000
         C           -1.509782337993     1.310017449681     0.000059202292    12.000000000000
         C           -2.892001337993     1.151908449681     0.000130202292    12.000000000000
         C           -3.427026337993    -0.138379550319     0.000177202292    12.000000000000
         C           -2.549221337993    -1.223242550319     0.000151202292    12.000000000000
         C            3.087163362007    -0.193592050319    -0.000164097708    12.000000000000
         C            2.759850662007     1.163270449681    -0.000123797708    12.000000000000
         H           -1.035439337993     2.286614449681     0.000020202292     1.007825032230
         H           -3.544364337993     2.021792449681     0.000147202292     1.007825032230
         H           -4.500823337993    -0.303048550319     0.000232202292     1.007825032230
         H           -2.925680337993    -2.244699550319     0.000185202292     1.007825032230
         H            4.126652662007    -0.581181550319    -0.000222797708     1.007825032230
         H            3.450070662007     2.000034449681    -0.000144797708     1.007825032230

  Basis Set: AUG-CC-PVTZ
    Blend: AUG-CC-PVTZ
  Basis Set: (AUG-CC-PVTZ AUX)
    Blend: AUG-CC-PVTZ-JKFIT
	 Reference Energy          =    -813.0052385966823749 [Eh]
	 Singles Energy            =      -0.0000000000000000 [Eh]
	 Same-Spin Energy          =      -0.5264403186335695 [Eh]
	 Opposite-Spin Energy      =      -1.5544588708896008 [Eh]
	 Correlation Energy        =      -2.0808991895231701 [Eh]
	 Total Energy              =    -815.0861377862055406 [Eh]

	 ================> DF-SCS-MP2 Energies <==================
	-----------------------------------------------------------
	 SCS Same-Spin Scale       =       0.3333333333333333 [-]
	 SCS Opposite-Spin Scale   =       1.2000000000000000 [-]
	 SCS Same-Spin Energy      =      -0.1754801062111898 [Eh]
	 SCS Opposite-Spin Energy  =      -1.8653506450675208 [Eh]
	 SCS Correlation Energy    =      -2.0408307512787105 [Eh]
	 SCS Total Energy          =    -815.0460693479610654 [Eh]
	-----------------------------------------------------------

  Dipole Moment: [D]
     X:    -0.7356      Y:     0.1543      Z:    -0.0000     Total:     0.7516

*** Psi4 exiting successfully. Buy a developer a beer!
