                               Psi4 1.3.2 release

  ==> Input File <==

--------------------------------------------------------------------------
#psi4
#
memory 32 gb

molecule  {
0 1
  S        1.7618360    -1.1877300    -0.0001100
  N       -1.1892720    -1.1162850     0.0000840
  N        1.4363420     1.3812950    -0.0000570
  C       -0.7259013     0.0437624     0.0000433
  C        0.7702180     0.2369850    -0.0000350
  C       -1.4868030     1.2893490     0.0000580
  C       -2.8690220     1.1312400     0.0001290
  C       -3.4040470    -0.1590480     0.0001760
  C       -2.5262420    -1.2439110     0.0001500
  C        3.1506810    -0.1849920    -0.0001670
  C        2.7828300     1.1426020    -0.0001250
  H       -1.0124600     2.2659460     0.0000190
  H       -3.5213850     2.0011240     0.0001460
  H       -4.4778440    -0.3237170     0.0002310
  H       -2.9027010    -2.2653680     0.0001840
  H        4.1496320    -0.6018500    -0.0002240
  H        3.4730500     1.9793660    -0.0001460
units angstrom
no_reorient  #important for SAPT in psi4, default
symmetry c1  #important for SAPT in psi4, default
}

set PROPERTIES_ORIGIN ["COM"]
properties('MP2/aug-cc-pvtz', properties = ['dipole'])
--------------------------------------------------------------------------

    Molecular point group: c1
  Charge       = 0
  Multiplicity = 1
  Basis Set: AUG-CC-PVTZ
    Blend: AUG-CC-PVTZ
  Basis Set: (AUG-CC-PVTZ AUX)
    Blend: AUG-CC-PVTZ-JKFIT

    Orbital Energies [Eh]
    ---------------------

    Doubly Occupied:

       1A    -91.992876     2A    -15.575095     3A    -15.573721
       4A    -11.314865     5A    -11.299859     6A    -11.285699
       7A    -11.269879     8A    -11.265194     9A    -11.264099
      10A    -11.254104    11A    -11.251608    12A     -8.993209
      13A     -6.674000    14A     -6.673407    15A     -6.672780
      16A     -1.305199    17A     -1.272749    18A     -1.101810
      19A     -1.062887    20A     -1.057405    21A     -0.985092
      22A     -0.879937    23A     -0.867376    24A     -0.788137
      25A     -0.767102    26A     -0.708418    27A     -0.687258
      28A     -0.666552    29A     -0.638727    30A     -0.592146
      31A     -0.589178    32A     -0.586746    33A     -0.560144
      34A     -0.542797    35A     -0.527370    36A     -0.501710
      37A     -0.446838    38A     -0.416932    39A     -0.408073
      40A     -0.390805    41A     -0.364536    42A     -0.309535

  @DF-RHF Final Energy:  -813.00023934218052

   => Energetics <=

    Nuclear Repulsion Energy =            627.3672638539841273
    One-Electron Energy =               -2357.9632936171619804
    Two-Electron Energy =                 917.5957904209972185
    Total Energy =                       -813.0002393421805209
  Basis Set: (AUG-CC-PVTZ AUX)
    Blend: AUG-CC-PVTZ-RI
    Molecular point group: c1

    Geometry (in Angstrom), charge = 0, multiplicity = 1:

       Center              X                  Y                   Z               Mass
    ------------   -----------------  -----------------  -----------------  -----------------
         S            1.738601590525    -1.162351385825    -0.000108916208    31.972071174400
         N           -1.212506409475    -1.090906385825     0.000085083792    14.003074004430
         N            1.413107590525     1.406673614175    -0.000055916208    14.003074004430
         C           -0.749135709475     0.069141014175     0.000044383792    12.000000000000
         C            0.746983590525     0.262363614175    -0.000033916208    12.000000000000
         C           -1.510037409475     1.314727614175     0.000059083792    12.000000000000
         C           -2.892256409475     1.156618614175     0.000130083792    12.000000000000
         C           -3.427281409475    -0.133669385825     0.000177083792    12.000000000000
         C           -2.549476409475    -1.218532385825     0.000151083792    12.000000000000
         C            3.127446590525    -0.159613385825    -0.000165916208    12.000000000000
         C            2.759595590525     1.167980614175    -0.000123916208    12.000000000000
         H           -1.035694409475     2.291324614175     0.000020083792     1.007825032230
         H           -3.544619409475     2.026502614175     0.000147083792     1.007825032230
         H           -4.501078409475    -0.298338385825     0.000232083792     1.007825032230
         H           -2.925935409475    -2.239989385825     0.000185083792     1.007825032230
         H            4.126397590525    -0.576471385825    -0.000222916208     1.007825032230
         H            3.449815590525     2.004744614175    -0.000144916208     1.007825032230

  Basis Set: AUG-CC-PVTZ
    Blend: AUG-CC-PVTZ
  Basis Set: (AUG-CC-PVTZ AUX)
    Blend: AUG-CC-PVTZ-JKFIT
	 Reference Energy          =    -813.0002393421805209 [Eh]
	 Singles Energy            =      -0.0000000000000000 [Eh]
	 Same-Spin Energy          =      -0.5239487215025511 [Eh]
	 Opposite-Spin Energy      =      -1.5514886575723545 [Eh]
	 Correlation Energy        =      -2.0754373790749057 [Eh]
	 Total Energy              =    -815.0756767212553768 [Eh]

	 ================> DF-SCS-MP2 Energies <==================
	-----------------------------------------------------------
	 SCS Same-Spin Scale       =       0.3333333333333333 [-]
	 SCS Opposite-Spin Scale   =       1.2000000000000000 [-]
	 SCS Same-Spin Energy      =      -0.1746495738341837 [Eh]
	 SCS Opposite-Spin Energy  =      -1.8617863890868254 [Eh]
	 SCS Correlation Energy    =      -2.0364359629210091 [Eh]
	 SCS Total Energy          =    -815.0366753051015394 [Eh]
	-----------------------------------------------------------

  Dipole Moment: [D]
     X:    -0.9131      Y:     0.1646      Z:    -0.0000     Total:     0.9279

*** Psi4 exiting successfully. Buy a developer a beer!
