                               Psi4 1.4a3.dev225

  ==> Input File <==

--------------------------------------------------------------------------
#psi4
#
memory 32 gb

molecule  {
0 1
  S        1.7618360    -1.1877300    -0.0001100
  N       -1.1892720    -1.1162850     0.0000840
  N        1.4363420     1.3812950    -0.0000570
  C       -0.6888070     0.1366280     0.0000400
  C        0.7702180     0.2369850    -0.0000350
  C       -1.4868030     1.2893490     0.0000580
  C       -2.8690220     1.1312400     0.0001290
  C       -3.4040470    -0.1590480     0.0001760
  C       -2.5262420    -1.2439110     0.0001500
  C        3.1506810    -0.1849920    -0.0001670
  C        2.7828300     1.1426020    -0.0001250
  H       -1.0124600     2.2659460     0.0000190
  H       -3.5213850     2.0011240     0.0001460
  H       -4.4778440    -0.3237170     0.0002310
  H       -2.9027010    -2.2653680     0.0001840
  H        4.1034885    -0.5825945    -0.0002214
  H        3.4730500     1.9793660    -0.0001460
units angstrom
no_reorient  #important for SAPT in psi4, default
symmetry c1  #important for SAPT in psi4, default
}

set PROPERTIES_ORIGIN ["COM"]
properties('MP2/aug-cc-pvtz', properties = ['dipole'])
--------------------------------------------------------------------------

    Molecular point group: c1
  Charge       = 0
  Multiplicity = 1
  Basis Set: AUG-CC-PVTZ
    Blend: AUG-CC-PVTZ
  Basis Set: (AUG-CC-PVTZ AUX)
    Blend: AUG-CC-PVTZ-JKFIT

    Orbital Energies [Eh]
    ---------------------

    Doubly Occupied:

       1A    -91.995416     2A    -15.578894     3A    -15.574128
       4A    -11.313756     5A    -11.297379     6A    -11.285469
       7A    -11.269987     8A    -11.267555     9A    -11.259692
      10A    -11.251371    11A    -11.249937    12A     -8.995469
      13A     -6.676242    14A     -6.675691    15A     -6.675030
      16A     -1.287413    17A     -1.260231    18A     -1.096543
      19A     -1.069191    20A     -1.062896    21A     -0.987121
      22A     -0.877654    23A     -0.869355    24A     -0.795899
      25A     -0.767101    26A     -0.709467    27A     -0.681098
      28A     -0.670453    29A     -0.639900    30A     -0.594079
      31A     -0.588950    32A     -0.581374    33A     -0.561783
      34A     -0.535949    35A     -0.529724    36A     -0.502739
      37A     -0.444189    38A     -0.424621    39A     -0.398831
      40A     -0.392490    41A     -0.371433    42A     -0.307073

  @DF-RHF Final Energy:  -813.00864230787465

   => Energetics <=

    Nuclear Repulsion Energy =            627.2414004850795664
    One-Electron Energy =               -2357.7529350299414546
    Two-Electron Energy =                 917.5028922369872362
    Total Energy =                       -813.0086423078746520
  Basis Set: (AUG-CC-PVTZ AUX)
    Blend: AUG-CC-PVTZ-RI
    Molecular point group: c1

    Geometry (in Angstrom), charge = 0, multiplicity = 1:

       Center              X                  Y                   Z               Mass
    ------------   -----------------  -----------------  -----------------  -----------------
         S            1.736141312118    -1.169349023163    -0.000108687974    31.972071174400
         N           -1.214966687882    -1.097904023163     0.000085312026    14.003074004430
         N            1.410647312118     1.399675976837    -0.000055687974    14.003074004430
         C           -0.714501687882     0.155008976837     0.000041312026    12.000000000000
         C            0.744523312118     0.255365976837    -0.000033687974    12.000000000000
         C           -1.512497687882     1.307729976837     0.000059312026    12.000000000000
         C           -2.894716687882     1.149620976837     0.000130312026    12.000000000000
         C           -3.429741687882    -0.140667023163     0.000177312026    12.000000000000
         C           -2.551936687882    -1.225530023163     0.000151312026    12.000000000000
         C            3.124986312118    -0.166611023163    -0.000165687974    12.000000000000
         C            2.757135312118     1.160982976837    -0.000123687974    12.000000000000
         H           -1.038154687882     2.284326976837     0.000020312026     1.007825032230
         H           -3.547079687882     2.019504976837     0.000147312026     1.007825032230
         H           -4.503538687882    -0.305336023163     0.000232312026     1.007825032230
         H           -2.928395687882    -2.246987023163     0.000185312026     1.007825032230
         H            4.077793812118    -0.564213523163    -0.000220087974     1.007825032230
         H            3.447355312118     1.997746976837    -0.000144687974     1.007825032230

  Basis Set: AUG-CC-PVTZ
    Blend: AUG-CC-PVTZ
  Basis Set: (AUG-CC-PVTZ AUX)
    Blend: AUG-CC-PVTZ-JKFIT
	 Reference Energy          =    -813.0086423078746520 [Eh]
	 Singles Energy            =      -0.0000000000000000 [Eh]
	 Same-Spin Energy          =      -0.5252368443275743 [Eh]
	 Opposite-Spin Energy      =      -1.5534079108941796 [Eh]
	 Correlation Energy        =      -2.0786447552217542 [Eh]
	 Total Energy              =    -815.0872870630963689 [Eh]

	 ================> DF-SCS-MP2 Energies <==================
	-----------------------------------------------------------
	 SCS Same-Spin Scale       =       0.3333333333333333 [-]
	 SCS Opposite-Spin Scale   =       1.2000000000000000 [-]
	 SCS Same-Spin Energy      =      -0.1750789481091914 [Eh]
	 SCS Opposite-Spin Energy  =      -1.8640894930730154 [Eh]
	 SCS Correlation Energy    =      -2.0391684411822069 [Eh]
	 SCS Total Energy          =    -815.0478107490569073 [Eh]
	-----------------------------------------------------------

  Dipole Moment: [D]
     X:    -0.8065      Y:     0.1999      Z:    -0.0000     Total:     0.8309

*** Psi4 exiting successfully. Buy a developer a beer!
