                               Psi4 1.4a3.dev225

  ==> Input File <==

--------------------------------------------------------------------------
#psi4
#
memory 32 gb

molecule  {
0 1
  S        1.7618360    -1.1877300    -0.0001100
  N       -1.1892720    -1.1162850     0.0000840
  N        1.4363420     1.3812950    -0.0000570
  C       -0.6962259     0.1180549     0.0000407
  C        0.7702180     0.2369850    -0.0000350
  C       -1.4868030     1.2893490     0.0000580
  C       -2.8690220     1.1312400     0.0001290
  C       -3.4040470    -0.1590480     0.0001760
  C       -2.5262420    -1.2439110     0.0001500
  C        3.1506810    -0.1849920    -0.0001670
  C        2.7828300     1.1426020    -0.0001250
  H       -1.0124600     2.2659460     0.0000190
  H       -3.5213850     2.0011240     0.0001460
  H       -4.4778440    -0.3237170     0.0002310
  H       -2.9027010    -2.2653680     0.0001840
  H        4.1496320    -0.6018500    -0.0002240
  H        3.4730500     1.9793660    -0.0001460
units angstrom
no_reorient  #important for SAPT in psi4, default
symmetry c1  #important for SAPT in psi4, default
}

set PROPERTIES_ORIGIN ["COM"]
properties('MP2/aug-cc-pvtz', properties = ['dipole'])
--------------------------------------------------------------------------

    Molecular point group: c1
  Charge       = 0
  Multiplicity = 1
  Basis Set: AUG-CC-PVTZ
    Blend: AUG-CC-PVTZ
  Basis Set: (AUG-CC-PVTZ AUX)
    Blend: AUG-CC-PVTZ-JKFIT

    Orbital Energies [Eh]
    ---------------------

    Doubly Occupied:

       1A    -91.995152     2A    -15.578056     3A    -15.574522
       4A    -11.314102     5A    -11.298092     6A    -11.285527
       7A    -11.270108     8A    -11.267160     9A    -11.264898
      10A    -11.251360    11A    -11.250852    12A     -8.995240
      13A     -6.676012    14A     -6.675454    15A     -6.674796
      16A     -1.289094    17A     -1.263971    18A     -1.097516
      19A     -1.066868    20A     -1.061915    21A     -0.986167
      22A     -0.875964    23A     -0.870537    24A     -0.790227
      25A     -0.766785    26A     -0.707278    27A     -0.681350
      28A     -0.668752    29A     -0.639547    30A     -0.592933
      31A     -0.588615    32A     -0.582094    33A     -0.558591
      34A     -0.537353    35A     -0.529066    36A     -0.502777
      37A     -0.444894    38A     -0.423659    39A     -0.400071
      40A     -0.392544    41A     -0.370172    42A     -0.307579

  @DF-RHF Final Energy:  -813.00982415914643

   => Energetics <=

    Nuclear Repulsion Energy =            627.0236439222092031
    One-Electron Energy =               -2357.3316366592816848
    Two-Electron Energy =                 917.2981685779260488
    Total Energy =                       -813.0098241591464330
  Basis Set: (AUG-CC-PVTZ AUX)
    Blend: AUG-CC-PVTZ-RI
    Molecular point group: c1

    Geometry (in Angstrom), charge = 0, multiplicity = 1:

       Center              X                  Y                   Z               Mass
    ------------   -----------------  -----------------  -----------------  -----------------
         S            1.736403754218    -1.167853679101    -0.000108723645    31.972071174400
         N           -1.214704245782    -1.096408679101     0.000085276355    14.003074004430
         N            1.410909754218     1.401171320899    -0.000055723645    14.003074004430
         C           -0.721658145782     0.137931220899     0.000041976355    12.000000000000
         C            0.744785754218     0.256861320899    -0.000033723645    12.000000000000
         C           -1.512235245782     1.309225320899     0.000059276355    12.000000000000
         C           -2.894454245782     1.151116320899     0.000130276355    12.000000000000
         C           -3.429479245782    -0.139171679101     0.000177276355    12.000000000000
         C           -2.551674245782    -1.224034679101     0.000151276355    12.000000000000
         C            3.125248754218    -0.165115679101    -0.000165723645    12.000000000000
         C            2.757397754218     1.162478320899    -0.000123723645    12.000000000000
         H           -1.037892245782     2.285822320899     0.000020276355     1.007825032230
         H           -3.546817245782     2.021000320899     0.000147276355     1.007825032230
         H           -4.503276245782    -0.303840679101     0.000232276355     1.007825032230
         H           -2.928133245782    -2.245491679101     0.000185276355     1.007825032230
         H            4.124199754218    -0.581973679101    -0.000222723645     1.007825032230
         H            3.447617754218     1.999242320899    -0.000144723645     1.007825032230

  Basis Set: AUG-CC-PVTZ
    Blend: AUG-CC-PVTZ
  Basis Set: (AUG-CC-PVTZ AUX)
    Blend: AUG-CC-PVTZ-JKFIT
	 Reference Energy          =    -813.0098241591464330 [Eh]
	 Singles Energy            =      -0.0000000000000000 [Eh]
	 Same-Spin Energy          =      -0.5250987802136329 [Eh]
	 Opposite-Spin Energy      =      -1.5531237336747683 [Eh]
	 Correlation Energy        =      -2.0782225138884014 [Eh]
	 Total Energy              =    -815.0880466730347962 [Eh]

	 ================> DF-SCS-MP2 Energies <==================
	-----------------------------------------------------------
	 SCS Same-Spin Scale       =       0.3333333333333333 [-]
	 SCS Opposite-Spin Scale   =       1.2000000000000000 [-]
	 SCS Same-Spin Energy      =      -0.1750329267378776 [Eh]
	 SCS Opposite-Spin Energy  =      -1.8637484804097220 [Eh]
	 SCS Correlation Energy    =      -2.0387814071475994 [Eh]
	 SCS Total Energy          =    -815.0486055662939862 [Eh]
	-----------------------------------------------------------

  Dipole Moment: [D]
     X:    -0.8233      Y:     0.1935      Z:    -0.0000     Total:     0.8458

*** Psi4 exiting successfully. Buy a developer a beer!
