                               Psi4 1.4a3.dev225

  ==> Input File <==

--------------------------------------------------------------------------
#psi4
#
memory 32 gb

molecule  {
0 1
  S        1.7618360    -1.1877300    -0.0001100
  N       -1.1892720    -1.1162850     0.0000840
  N        1.4363420     1.3812950    -0.0000570
  C       -0.6888070     0.1366280     0.0000400
  C        0.7702180     0.2369850    -0.0000350
  C       -1.4868030     1.2893490     0.0000580
  C       -2.8690220     1.1312400     0.0001290
  C       -3.4040470    -0.1590480     0.0001760
  C       -2.5262420    -1.2439110     0.0001500
  C        3.1506810    -0.1849920    -0.0001670
  C        2.7828300     1.1426020    -0.0001250
  H       -1.0124600     2.2659460     0.0000190
  H       -3.5213850     2.0011240     0.0001460
  H       -4.4778440    -0.3237170     0.0002310
  H       -2.9027010    -2.2653680     0.0001840
  H        4.1496320    -0.6018500    -0.0002240
  H        3.5048661     2.0179372    -0.0001470
units angstrom
no_reorient  #important for SAPT in psi4, default
symmetry c1  #important for SAPT in psi4, default
}

set PROPERTIES_ORIGIN ["COM"]
properties('MP2/aug-cc-pvtz', properties = ['dipole'])
--------------------------------------------------------------------------

    Molecular point group: c1
  Charge       = 0
  Multiplicity = 1
  Basis Set: AUG-CC-PVTZ
    Blend: AUG-CC-PVTZ
  Basis Set: (AUG-CC-PVTZ AUX)
    Blend: AUG-CC-PVTZ-JKFIT

    Orbital Energies [Eh]
    ---------------------

    Doubly Occupied:

       1A    -91.995968     2A    -15.579067     3A    -15.574819
       4A    -11.314175     5A    -11.297598     6A    -11.285613
       7A    -11.275581     8A    -11.267689     9A    -11.265409
      10A    -11.251502    11A    -11.250091    12A     -8.995987
      13A     -6.676753    14A     -6.676203    15A     -6.675535
      16A     -1.287754    17A     -1.260448    18A     -1.096675
      19A     -1.068388    20A     -1.062506    21A     -0.985059
      22A     -0.876473    23A     -0.869193    24A     -0.789641
      25A     -0.764036    26A     -0.707265    27A     -0.677065
      28A     -0.669097    29A     -0.637761    30A     -0.593062
      31A     -0.584933    32A     -0.581711    33A     -0.558589
      34A     -0.536227    35A     -0.529448    36A     -0.500799
      37A     -0.444204    38A     -0.424899    39A     -0.399016
      40A     -0.392750    41A     -0.371667    42A     -0.307226

  @DF-RHF Final Energy:  -813.00692313307354

   => Energetics <=

    Nuclear Repulsion Energy =            626.6885614883939297
    One-Electron Energy =               -2356.6752038842673755
    Two-Electron Energy =                 916.9797192627997902
    Total Energy =                       -813.0069231330735420
  Basis Set: (AUG-CC-PVTZ AUX)
    Blend: AUG-CC-PVTZ-RI
    Molecular point group: c1

    Geometry (in Angstrom), charge = 0, multiplicity = 1:

       Center              X                  Y                   Z               Mass
    ------------   -----------------  -----------------  -----------------  -----------------
         S            1.735656389704    -1.169469170212    -0.000108665581    31.972071174400
         N           -1.215451610296    -1.098024170212     0.000085334419    14.003074004430
         N            1.410162389704     1.399555829788    -0.000055665581    14.003074004430
         C           -0.714986610296     0.154888829788     0.000041334419    12.000000000000
         C            0.744038389704     0.255245829788    -0.000033665581    12.000000000000
         C           -1.512982610296     1.307609829788     0.000059334419    12.000000000000
         C           -2.895201610296     1.149500829788     0.000130334419    12.000000000000
         C           -3.430226610296    -0.140787170212     0.000177334419    12.000000000000
         C           -2.552421610296    -1.225650170212     0.000151334419    12.000000000000
         C            3.124501389704    -0.166731170212    -0.000165665581    12.000000000000
         C            2.756650389704     1.160862829788    -0.000123665581    12.000000000000
         H           -1.038639610296     2.284206829788     0.000020334419     1.007825032230
         H           -3.547564610296     2.019384829788     0.000147334419     1.007825032230
         H           -4.504023610296    -0.305456170212     0.000232334419     1.007825032230
         H           -2.928880610296    -2.247107170212     0.000185334419     1.007825032230
         H            4.123452389704    -0.583589170212    -0.000222665581     1.007825032230
         H            3.478686489704     2.036198029788    -0.000145665581     1.007825032230

  Basis Set: AUG-CC-PVTZ
    Blend: AUG-CC-PVTZ
  Basis Set: (AUG-CC-PVTZ AUX)
    Blend: AUG-CC-PVTZ-JKFIT
	 Reference Energy          =    -813.0069231330735420 [Eh]
	 Singles Energy            =      -0.0000000000000000 [Eh]
	 Same-Spin Energy          =      -0.5254735054567430 [Eh]
	 Opposite-Spin Energy      =      -1.5540231840774559 [Eh]
	 Correlation Energy        =      -2.0794966895341989 [Eh]
	 Total Energy              =    -815.0864198226076951 [Eh]

	 ================> DF-SCS-MP2 Energies <==================
	-----------------------------------------------------------
	 SCS Same-Spin Scale       =       0.3333333333333333 [-]
	 SCS Opposite-Spin Scale   =       1.2000000000000000 [-]
	 SCS Same-Spin Energy      =      -0.1751578351522476 [Eh]
	 SCS Opposite-Spin Energy  =      -1.8648278208929470 [Eh]
	 SCS Correlation Energy    =      -2.0399856560451948 [Eh]
	 SCS Total Energy          =    -815.0469087891187883 [Eh]
	-----------------------------------------------------------

  Dipole Moment: [D]
     X:    -0.8152      Y:     0.1908      Z:    -0.0000     Total:     0.8373

*** Psi4 exiting successfully. Buy a developer a beer!
