                               Psi4 1.3.2 release

  ==> Input File <==

--------------------------------------------------------------------------
#psi4
#
memory 32 gb

molecule  {
0 1
  S        1.7618360    -1.1877300    -0.0001100
  N       -1.1892720    -1.1162850     0.0000840
  N        1.4363420     1.3812950    -0.0000570
  C       -0.6888070     0.1366280     0.0000400
  C        0.8934801     0.1736247    -0.0000416
  C       -1.4868030     1.2893490     0.0000580
  C       -2.8690220     1.1312400     0.0001290
  C       -3.4040470    -0.1590480     0.0001760
  C       -2.5262420    -1.2439110     0.0001500
  C        3.1506810    -0.1849920    -0.0001670
  C        2.7828300     1.1426020    -0.0001250
  H       -1.0124600     2.2659460     0.0000190
  H       -3.5213850     2.0011240     0.0001460
  H       -4.4778440    -0.3237170     0.0002310
  H       -2.9027010    -2.2653680     0.0001840
  H        4.1496320    -0.6018500    -0.0002240
  H        3.4730500     1.9793660    -0.0001460
units angstrom
no_reorient  #important for SAPT in psi4, default
symmetry c1  #important for SAPT in psi4, default
}

set PROPERTIES_ORIGIN ["COM"]
properties('MP2/aug-cc-pvtz', properties = ['dipole'])
--------------------------------------------------------------------------

    Molecular point group: c1
  Charge       = 0
  Multiplicity = 1
  Basis Set: AUG-CC-PVTZ
    Blend: AUG-CC-PVTZ
  Basis Set: (AUG-CC-PVTZ AUX)
    Blend: AUG-CC-PVTZ-JKFIT

    Orbital Energies [Eh]
    ---------------------

    Doubly Occupied:

       1A    -92.001786     2A    -15.574975     3A    -15.570779
       4A    -11.310916     5A    -11.301126     6A    -11.282435
       7A    -11.270941     8A    -11.265475     9A    -11.260151
      10A    -11.247672    11A    -11.246964    12A     -9.004714
      13A     -6.685721    14A     -6.684797    15A     -6.684064
      16A     -1.294112    17A     -1.259394    18A     -1.095622
      19A     -1.081970    20A     -1.052274    21A     -0.989561
      22A     -0.864505    23A     -0.862398    24A     -0.792394
      25A     -0.760037    26A     -0.711699    27A     -0.677418
      28A     -0.664990    29A     -0.634436    30A     -0.588498
      31A     -0.583830    32A     -0.575690    33A     -0.564040
      34A     -0.539103    35A     -0.514655    36A     -0.506875
      37A     -0.456719    38A     -0.425629    39A     -0.394449
      40A     -0.391158    41A     -0.369854    42A     -0.315112

  @DF-RHF Final Energy:  -812.99071927846080

   => Energetics <=

    Nuclear Repulsion Energy =            627.8262362252175990
    One-Electron Energy =               -2358.9160426550347438
    Two-Electron Energy =                 918.0990871513563434
    Total Energy =                       -812.9907192784608014
  Basis Set: (AUG-CC-PVTZ AUX)
    Blend: AUG-CC-PVTZ-RI
    Molecular point group: c1

    Geometry (in Angstrom), charge = 0, multiplicity = 1:

       Center              X                  Y                   Z               Mass
    ------------   -----------------  -----------------  -----------------  -----------------
         S            1.726725183870    -1.164536624090    -0.000108182989    31.972071174400
         N           -1.224382816130    -1.093091624090     0.000085817011    14.003074004430
         N            1.401231183870     1.404488375910    -0.000055182989    14.003074004430
         C           -0.723917816130     0.159821375910     0.000041817011    12.000000000000
         C            0.858369283870     0.196818075910    -0.000039782989    12.000000000000
         C           -1.521913816130     1.312542375910     0.000059817011    12.000000000000
         C           -2.904132816130     1.154433375910     0.000130817011    12.000000000000
         C           -3.439157816130    -0.135854624090     0.000177817011    12.000000000000
         C           -2.561352816130    -1.220717624090     0.000151817011    12.000000000000
         C            3.115570183870    -0.161798624090    -0.000165182989    12.000000000000
         C            2.747719183870     1.165795375910    -0.000123182989    12.000000000000
         H           -1.047570816130     2.289139375910     0.000020817011     1.007825032230
         H           -3.556495816130     2.024317375910     0.000147817011     1.007825032230
         H           -4.512954816130    -0.300523624090     0.000232817011     1.007825032230
         H           -2.937811816130    -2.242174624090     0.000185817011     1.007825032230
         H            4.114521183870    -0.578656624090    -0.000222182989     1.007825032230
         H            3.437939183870     2.002559375910    -0.000144182989     1.007825032230

  Basis Set: AUG-CC-PVTZ
    Blend: AUG-CC-PVTZ
  Basis Set: (AUG-CC-PVTZ AUX)
    Blend: AUG-CC-PVTZ-JKFIT
	 Reference Energy          =    -812.9907192784608014 [Eh]
	 Singles Energy            =      -0.0000000000000000 [Eh]
	 Same-Spin Energy          =      -0.5251255921009175 [Eh]
	 Opposite-Spin Energy      =      -1.5531494837754480 [Eh]
	 Correlation Energy        =      -2.0782750758763653 [Eh]
	 Total Energy              =    -815.0689943543371783 [Eh]

	 ================> DF-SCS-MP2 Energies <==================
	-----------------------------------------------------------
	 SCS Same-Spin Scale       =       0.3333333333333333 [-]
	 SCS Opposite-Spin Scale   =       1.2000000000000000 [-]
	 SCS Same-Spin Energy      =      -0.1750418640336391 [Eh]
	 SCS Opposite-Spin Energy  =      -1.8637793805305376 [Eh]
	 SCS Correlation Energy    =      -2.0388212445641769 [Eh]
	 SCS Total Energy          =    -815.0295405230249344 [Eh]
	-----------------------------------------------------------

  Dipole Moment: [D]
     X:    -0.5807      Y:    -0.0763      Z:    -0.0000     Total:     0.5857

*** Psi4 exiting successfully. Buy a developer a beer!
