                               Psi4 1.3.2 release

  ==> Input File <==

--------------------------------------------------------------------------
#psi4
#
memory 32 gb

molecule  {
0 1
  S        1.7618360    -1.1877300    -0.0001100
  N       -1.1892720    -1.1162850     0.0000840
  N        1.4162696     1.3927462    -0.0000558
  C       -0.6888070     0.1366280     0.0000400
  C        0.7702180     0.2369850    -0.0000350
  C       -1.4868030     1.2893490     0.0000580
  C       -2.8690220     1.1312400     0.0001290
  C       -3.4040470    -0.1590480     0.0001760
  C       -2.5262420    -1.2439110     0.0001500
  C        3.1506810    -0.1849920    -0.0001670
  C        2.7828300     1.1426020    -0.0001250
  H       -1.0124600     2.2659460     0.0000190
  H       -3.5213850     2.0011240     0.0001460
  H       -4.4778440    -0.3237170     0.0002310
  H       -2.9027010    -2.2653680     0.0001840
  H        4.1496320    -0.6018500    -0.0002240
  H        3.4730500     1.9793660    -0.0001460
units angstrom
no_reorient  #important for SAPT in psi4, default
symmetry c1  #important for SAPT in psi4, default
}

set PROPERTIES_ORIGIN ["COM"]
properties('MP2/aug-cc-pvtz', properties = ['dipole'])
--------------------------------------------------------------------------

    Molecular point group: c1
  Charge       = 0
  Multiplicity = 1
  Basis Set: AUG-CC-PVTZ
    Blend: AUG-CC-PVTZ
  Basis Set: (AUG-CC-PVTZ AUX)
    Blend: AUG-CC-PVTZ-JKFIT

    Orbital Energies [Eh]
    ---------------------

    Doubly Occupied:

       1A    -91.995664     2A    -15.578845     3A    -15.576812
       4A    -11.314296     5A    -11.296835     6A    -11.285276
       7A    -11.272249     8A    -11.267405     9A    -11.265931
      10A    -11.251362    11A    -11.249787    12A     -8.995753
      13A     -6.676540    14A     -6.675966    15A     -6.675282
      16A     -1.285101    17A     -1.258182    18A     -1.096452
      19A     -1.069141    20A     -1.061473    21A     -0.985394
      22A     -0.876881    23A     -0.869029    24A     -0.788753
      25A     -0.766902    26A     -0.706706    27A     -0.679205
      28A     -0.668929    29A     -0.638463    30A     -0.592926
      31A     -0.585691    32A     -0.580475    33A     -0.558770
      34A     -0.534821    35A     -0.528871    36A     -0.503554
      37A     -0.446371    38A     -0.425319    39A     -0.399450
      40A     -0.392297    41A     -0.370106    42A     -0.308371

  @DF-RHF Final Energy:  -813.00854076511541

   => Energetics <=

    Nuclear Repulsion Energy =            626.6363793183779762
    One-Electron Energy =               -2356.5785741745908126
    Two-Electron Energy =                 916.9336540910974236
    Total Energy =                       -813.0085407651154128
  Basis Set: (AUG-CC-PVTZ AUX)
    Blend: AUG-CC-PVTZ-RI
    Molecular point group: c1

    Geometry (in Angstrom), charge = 0, multiplicity = 1:

       Center              X                  Y                   Z               Mass
    ------------   -----------------  -----------------  -----------------  -----------------
         S            1.737589054646    -1.170218923973    -0.000108775512    31.972071174400
         N           -1.213518945354    -1.098773923973     0.000085224488    14.003074004430
         N            1.392022654646     1.410257276027    -0.000054575512    14.003074004430
         C           -0.713053945354     0.154139076027     0.000041224488    12.000000000000
         C            0.745971054646     0.254496076027    -0.000033775512    12.000000000000
         C           -1.511049945354     1.306860076027     0.000059224488    12.000000000000
         C           -2.893268945354     1.148751076027     0.000130224488    12.000000000000
         C           -3.428293945354    -0.141536923973     0.000177224488    12.000000000000
         C           -2.550488945354    -1.226399923973     0.000151224488    12.000000000000
         C            3.126434054646    -0.167480923973    -0.000165775512    12.000000000000
         C            2.758583054646     1.160113076027    -0.000123775512    12.000000000000
         H           -1.036706945354     2.283457076027     0.000020224488     1.007825032230
         H           -3.545631945354     2.018635076027     0.000147224488     1.007825032230
         H           -4.502090945354    -0.306205923973     0.000232224488     1.007825032230
         H           -2.926947945354    -2.247856923973     0.000185224488     1.007825032230
         H            4.125385054646    -0.584338923973    -0.000222775512     1.007825032230
         H            3.448803054646     1.996877076027    -0.000144775512     1.007825032230

  Basis Set: AUG-CC-PVTZ
    Blend: AUG-CC-PVTZ
  Basis Set: (AUG-CC-PVTZ AUX)
    Blend: AUG-CC-PVTZ-JKFIT
	 Reference Energy          =    -813.0085407651154128 [Eh]
	 Singles Energy            =      -0.0000000000000000 [Eh]
	 Same-Spin Energy          =      -0.5250641799127809 [Eh]
	 Opposite-Spin Energy      =      -1.5539138528450160 [Eh]
	 Correlation Energy        =      -2.0789780327577967 [Eh]
	 Total Energy              =    -815.0875187978732583 [Eh]

	 ================> DF-SCS-MP2 Energies <==================
	-----------------------------------------------------------
	 SCS Same-Spin Scale       =       0.3333333333333333 [-]
	 SCS Opposite-Spin Scale   =       1.2000000000000000 [-]
	 SCS Same-Spin Energy      =      -0.1750213933042603 [Eh]
	 SCS Opposite-Spin Energy  =      -1.8646966234140192 [Eh]
	 SCS Correlation Energy    =      -2.0397180167182793 [Eh]
	 SCS Total Energy          =    -815.0482587818337379 [Eh]
	-----------------------------------------------------------

  Dipole Moment: [D]
     X:    -0.7798      Y:     0.1687      Z:    -0.0000     Total:     0.7978

*** Psi4 exiting successfully. Buy a developer a beer!
