                               Psi4 1.4a3.dev225

  ==> Input File <==

--------------------------------------------------------------------------
#psi4
#
memory 32 gb

molecule  {
0 1
  S        1.7618360    -1.1877300    -0.0001100
  N       -1.1892720    -1.1162850     0.0000840
  N        1.4363420     1.3812950    -0.0000570
  C       -0.6888070     0.1366280     0.0000400
  C        0.7601563     0.2197003    -0.0000347
  C       -1.4868030     1.2893490     0.0000580
  C       -2.8690220     1.1312400     0.0001290
  C       -3.4040470    -0.1590480     0.0001760
  C       -2.5262420    -1.2439110     0.0001500
  C        3.1506810    -0.1849920    -0.0001670
  C        2.7828300     1.1426020    -0.0001250
  H       -1.0124600     2.2659460     0.0000190
  H       -3.5213850     2.0011240     0.0001460
  H       -4.4778440    -0.3237170     0.0002310
  H       -2.9027010    -2.2653680     0.0001840
  H        4.1496320    -0.6018500    -0.0002240
  H        3.4730500     1.9793660    -0.0001460
units angstrom
no_reorient  #important for SAPT in psi4, default
symmetry c1  #important for SAPT in psi4, default
}

set PROPERTIES_ORIGIN ["COM"]
properties('MP2/aug-cc-pvtz', properties = ['dipole'])
--------------------------------------------------------------------------

    Molecular point group: c1
  Charge       = 0
  Multiplicity = 1
  Basis Set: AUG-CC-PVTZ
    Blend: AUG-CC-PVTZ
  Basis Set: (AUG-CC-PVTZ AUX)
    Blend: AUG-CC-PVTZ-JKFIT

    Orbital Energies [Eh]
    ---------------------

    Doubly Occupied:

       1A    -91.997426     2A    -15.578615     3A    -15.575056
       4A    -11.314143     5A    -11.296754     6A    -11.285342
       7A    -11.270314     8A    -11.267633     9A    -11.264833
      10A    -11.251407    11A    -11.250202    12A     -8.997418
      13A     -6.678181    14A     -6.677660    15A     -6.677000
      16A     -1.284525    17A     -1.258058    18A     -1.096726
      19A     -1.069076    20A     -1.062144    21A     -0.986664
      22A     -0.878145    23A     -0.869510    24A     -0.788897
      25A     -0.767376    26A     -0.706996    27A     -0.679611
      28A     -0.669238    29A     -0.639636    30A     -0.593755
      31A     -0.586924    32A     -0.580754    33A     -0.558651
      34A     -0.535064    35A     -0.530113    36A     -0.503248
      37A     -0.443365    38A     -0.425646    39A     -0.398857
      40A     -0.391403    41A     -0.372364    42A     -0.305675

  @DF-RHF Final Energy:  -813.00739150410072

   => Energetics <=

    Nuclear Repulsion Energy =            626.9759834927298243
    One-Electron Energy =               -2357.2379402280475915
    Two-Electron Energy =                 917.2545652312169295
    Total Energy =                       -813.0073915041007240
  Basis Set: (AUG-CC-PVTZ AUX)
    Blend: AUG-CC-PVTZ-RI
    Molecular point group: c1

    Geometry (in Angstrom), charge = 0, multiplicity = 1:

       Center              X                  Y                   Z               Mass
    ------------   -----------------  -----------------  -----------------  -----------------
         S            1.736599486771    -1.167949101313    -0.000108694020    31.972071174400
         N           -1.214508513229    -1.096504101313     0.000085305980    14.003074004430
         N            1.411105486771     1.401075898687    -0.000055694020    14.003074004430
         C           -0.714043513229     0.156408898687     0.000041305980    12.000000000000
         C            0.734919786771     0.239481198687    -0.000033394020    12.000000000000
         C           -1.512039513229     1.309129898687     0.000059305980    12.000000000000
         C           -2.894258513229     1.151020898687     0.000130305980    12.000000000000
         C           -3.429283513229    -0.139267101313     0.000177305980    12.000000000000
         C           -2.551478513229    -1.224130101313     0.000151305980    12.000000000000
         C            3.125444486771    -0.165211101313    -0.000165694020    12.000000000000
         C            2.757593486771     1.162382898687    -0.000123694020    12.000000000000
         H           -1.037696513229     2.285726898687     0.000020305980     1.007825032230
         H           -3.546621513229     2.020904898687     0.000147305980     1.007825032230
         H           -4.503080513229    -0.303936101313     0.000232305980     1.007825032230
         H           -2.927937513229    -2.245587101313     0.000185305980     1.007825032230
         H            4.124395486771    -0.582069101313    -0.000222694020     1.007825032230
         H            3.447813486771     1.999146898687    -0.000144694020     1.007825032230

  Basis Set: AUG-CC-PVTZ
    Blend: AUG-CC-PVTZ
  Basis Set: (AUG-CC-PVTZ AUX)
    Blend: AUG-CC-PVTZ-JKFIT
	 Reference Energy          =    -813.0073915041007240 [Eh]
	 Singles Energy            =      -0.0000000000000000 [Eh]
	 Same-Spin Energy          =      -0.5259839903093699 [Eh]
	 Opposite-Spin Energy      =      -1.5545384595221285 [Eh]
	 Correlation Energy        =      -2.0805224498314985 [Eh]
	 Total Energy              =    -815.0879139539322296 [Eh]

	 ================> DF-SCS-MP2 Energies <==================
	-----------------------------------------------------------
	 SCS Same-Spin Scale       =       0.3333333333333333 [-]
	 SCS Opposite-Spin Scale   =       1.2000000000000000 [-]
	 SCS Same-Spin Energy      =      -0.1753279967697900 [Eh]
	 SCS Opposite-Spin Energy  =      -1.8654461514265541 [Eh]
	 SCS Correlation Energy    =      -2.0407741481963440 [Eh]
	 SCS Total Energy          =    -815.0481656522970297 [Eh]
	-----------------------------------------------------------

  Dipole Moment: [D]
     X:    -0.7524      Y:     0.1598      Z:    -0.0000     Total:     0.7692

*** Psi4 exiting successfully. Buy a developer a beer!
