                               Psi4 1.3.2 release

  ==> Input File <==

--------------------------------------------------------------------------
#psi4
#
memory 32 gb

molecule  {
0 1
  S        1.7618360    -1.1877300    -0.0001100
  N       -1.0555653    -1.1617342     0.0000785
  N        1.4363420     1.3812950    -0.0000570
  C       -0.6888070     0.1366280     0.0000400
  C        0.7702180     0.2369850    -0.0000350
  C       -1.4868030     1.2893490     0.0000580
  C       -2.8690220     1.1312400     0.0001290
  C       -3.4040470    -0.1590480     0.0001760
  C       -2.5262420    -1.2439110     0.0001500
  C        3.1506810    -0.1849920    -0.0001670
  C        2.7828300     1.1426020    -0.0001250
  H       -1.0124600     2.2659460     0.0000190
  H       -3.5213850     2.0011240     0.0001460
  H       -4.4778440    -0.3237170     0.0002310
  H       -2.9027010    -2.2653680     0.0001840
  H        4.1496320    -0.6018500    -0.0002240
  H        3.4730500     1.9793660    -0.0001460
units angstrom
no_reorient  #important for SAPT in psi4, default
symmetry c1  #important for SAPT in psi4, default
}

set PROPERTIES_ORIGIN ["COM"]
properties('MP2/aug-cc-pvtz', properties = ['dipole'])
--------------------------------------------------------------------------

    Molecular point group: c1
  Charge       = 0
  Multiplicity = 1
  Basis Set: AUG-CC-PVTZ
    Blend: AUG-CC-PVTZ
  Basis Set: (AUG-CC-PVTZ AUX)
    Blend: AUG-CC-PVTZ-JKFIT

    Orbital Energies [Eh]
    ---------------------

    Doubly Occupied:

       1A    -91.993244     2A    -15.595895     3A    -15.572499
       4A    -11.309603     5A    -11.300050     6A    -11.299550
       7A    -11.273274     8A    -11.267695     9A    -11.263080
      10A    -11.255653    11A    -11.251441    12A     -8.993263
      13A     -6.674025    14A     -6.673447    15A     -6.672781
      16A     -1.283725    17A     -1.241749    18A     -1.103313
      19A     -1.064006    20A     -1.052704    21A     -0.985319
      22A     -0.880077    23A     -0.864082    24A     -0.787545
      25A     -0.759629    26A     -0.706518    27A     -0.678285
      28A     -0.661182    29A     -0.640049    30A     -0.591651
      31A     -0.585482    32A     -0.578279    33A     -0.554151
      34A     -0.527660    35A     -0.518516    36A     -0.504200
      37A     -0.455150    38A     -0.430557    39A     -0.404367
      40A     -0.389024    41A     -0.361792    42A     -0.309451

  @DF-RHF Final Energy:  -812.98552757979849

   => Energetics <=

    Nuclear Repulsion Energy =            625.9546268757181906
    One-Electron Energy =               -2355.2523798376778359
    Two-Electron Energy =                 916.3122253821612730
    Total Energy =                       -812.9855275797984859
  Basis Set: (AUG-CC-PVTZ AUX)
    Blend: AUG-CC-PVTZ-RI
    Molecular point group: c1

    Geometry (in Angstrom), charge = 0, multiplicity = 1:

       Center              X                  Y                   Z               Mass
    ------------   -----------------  -----------------  -----------------  -----------------
         S            1.724298649668    -1.165301289786    -0.000108196462    31.972071174400
         N           -1.093102650332    -1.139305489786     0.000080303538    14.003074004430
         N            1.398804649668     1.403723710214    -0.000055196462    14.003074004430
         C           -0.726344350332     0.159056710214     0.000041803538    12.000000000000
         C            0.732680649668     0.259413710214    -0.000033196462    12.000000000000
         C           -1.524340350332     1.311777710214     0.000059803538    12.000000000000
         C           -2.906559350332     1.153668710214     0.000130803538    12.000000000000
         C           -3.441584350332    -0.136619289786     0.000177803538    12.000000000000
         C           -2.563779350332    -1.221482289786     0.000151803538    12.000000000000
         C            3.113143649668    -0.162563289786    -0.000165196462    12.000000000000
         C            2.745292649668     1.165030710214    -0.000123196462    12.000000000000
         H           -1.049997350332     2.288374710214     0.000020803538     1.007825032230
         H           -3.558922350332     2.023552710214     0.000147803538     1.007825032230
         H           -4.515381350332    -0.301288289786     0.000232803538     1.007825032230
         H           -2.940238350332    -2.242939289786     0.000185803538     1.007825032230
         H            4.112094649668    -0.579421289786    -0.000222196462     1.007825032230
         H            3.435512649668     2.001794710214    -0.000144196462     1.007825032230

  Basis Set: AUG-CC-PVTZ
    Blend: AUG-CC-PVTZ
  Basis Set: (AUG-CC-PVTZ AUX)
    Blend: AUG-CC-PVTZ-JKFIT
	 Reference Energy          =    -812.9855275797984859 [Eh]
	 Singles Energy            =      -0.0000000000000000 [Eh]
	 Same-Spin Energy          =      -0.5267920534705455 [Eh]
	 Opposite-Spin Energy      =      -1.5592885509141572 [Eh]
	 Correlation Energy        =      -2.0860806043847027 [Eh]
	 Total Energy              =    -815.0716081841832192 [Eh]

	 ================> DF-SCS-MP2 Energies <==================
	-----------------------------------------------------------
	 SCS Same-Spin Scale       =       0.3333333333333333 [-]
	 SCS Opposite-Spin Scale   =       1.2000000000000000 [-]
	 SCS Same-Spin Energy      =      -0.1755973511568485 [Eh]
	 SCS Opposite-Spin Energy  =      -1.8711462610969885 [Eh]
	 SCS Correlation Energy    =      -2.0467436122538372 [Eh]
	 SCS Total Energy          =    -815.0322711920523489 [Eh]
	-----------------------------------------------------------

  Dipole Moment: [D]
     X:    -1.1310      Y:     0.2858      Z:     0.0000     Total:     1.1666

*** Psi4 exiting successfully. Buy a developer a beer!
