                               Psi4 1.3.2 release

  ==> Input File <==

--------------------------------------------------------------------------
#psi4
#
memory 32 gb

molecule  {
0 1
  S        1.7618360    -1.1877300    -0.0001100
  N       -1.1892720    -1.1162850     0.0000840
  N        1.4363420     1.3812950    -0.0000570
  C       -0.6453858     0.1183988     0.0000382
  C        0.7702180     0.2369850    -0.0000350
  C       -1.4868030     1.2893490     0.0000580
  C       -2.8690220     1.1312400     0.0001290
  C       -3.4040470    -0.1590480     0.0001760
  C       -2.5262420    -1.2439110     0.0001500
  C        3.1506810    -0.1849920    -0.0001670
  C        2.7828300     1.1426020    -0.0001250
  H       -1.0124600     2.2659460     0.0000190
  H       -3.5213850     2.0011240     0.0001460
  H       -4.4778440    -0.3237170     0.0002310
  H       -2.9027010    -2.2653680     0.0001840
  H        4.1496320    -0.6018500    -0.0002240
  H        3.4730500     1.9793660    -0.0001460
units angstrom
no_reorient  #important for SAPT in psi4, default
symmetry c1  #important for SAPT in psi4, default
}

set PROPERTIES_ORIGIN ["COM"]
properties('MP2/aug-cc-pvtz', properties = ['dipole'])
--------------------------------------------------------------------------

    Molecular point group: c1
  Charge       = 0
  Multiplicity = 1
  Basis Set: AUG-CC-PVTZ
    Blend: AUG-CC-PVTZ
  Basis Set: (AUG-CC-PVTZ AUX)
    Blend: AUG-CC-PVTZ-JKFIT

    Orbital Energies [Eh]
    ---------------------

    Doubly Occupied:

       1A    -91.996682     2A    -15.578200     3A    -15.576720
       4A    -11.312693     5A    -11.298780     6A    -11.284170
       7A    -11.271732     8A    -11.267107     9A    -11.265683
      10A    -11.253676    11A    -11.251246    12A     -8.996790
      13A     -6.677557    14A     -6.676985    15A     -6.676332
      16A     -1.289343    17A     -1.258092    18A     -1.094386
      19A     -1.070536    20A     -1.063877    21A     -0.986740
      22A     -0.881199    23A     -0.865990    24A     -0.791573
      25A     -0.769826    26A     -0.707251    27A     -0.682386
      28A     -0.666625    29A     -0.637644    30A     -0.594676
      31A     -0.588990    32A     -0.583599    33A     -0.557523
      34A     -0.534594    35A     -0.533865    36A     -0.503883
      37A     -0.443840    38A     -0.420457    39A     -0.401556
      40A     -0.392626    41A     -0.370626    42A     -0.303471

  @DF-RHF Final Energy:  -813.00494004582310

   => Energetics <=

    Nuclear Repulsion Energy =            627.1151816965010539
    One-Electron Energy =               -2357.4811963623465090
    Two-Electron Energy =                 917.3610746200222366
    Total Energy =                       -813.0049400458231048
  Basis Set: (AUG-CC-PVTZ AUX)
    Blend: AUG-CC-PVTZ-RI
    Molecular point group: c1

    Geometry (in Angstrom), charge = 0, multiplicity = 1:

       Center              X                  Y                   Z               Mass
    ------------   -----------------  -----------------  -----------------  -----------------
         S            1.732638405894    -1.167879149218    -0.000108538489    31.972071174400
         N           -1.218469594106    -1.096434149218     0.000085461511    14.003074004430
         N            1.407144405894     1.401145850782    -0.000055538489    14.003074004430
         C           -0.674583394106     0.138249650782     0.000039661511    12.000000000000
         C            0.741020405894     0.256835850782    -0.000033538489    12.000000000000
         C           -1.516000594106     1.309199850782     0.000059461511    12.000000000000
         C           -2.898219594106     1.151090850782     0.000130461511    12.000000000000
         C           -3.433244594106    -0.139197149218     0.000177461511    12.000000000000
         C           -2.555439594106    -1.224060149218     0.000151461511    12.000000000000
         C            3.121483405894    -0.165141149218    -0.000165538489    12.000000000000
         C            2.753632405894     1.162452850782    -0.000123538489    12.000000000000
         H           -1.041657594106     2.285796850782     0.000020461511     1.007825032230
         H           -3.550582594106     2.020974850782     0.000147461511     1.007825032230
         H           -4.507041594106    -0.303866149218     0.000232461511     1.007825032230
         H           -2.931898594106    -2.245517149218     0.000185461511     1.007825032230
         H            4.120434405894    -0.581999149218    -0.000222538489     1.007825032230
         H            3.443852405894     1.999216850782    -0.000144538489     1.007825032230

  Basis Set: AUG-CC-PVTZ
    Blend: AUG-CC-PVTZ
  Basis Set: (AUG-CC-PVTZ AUX)
    Blend: AUG-CC-PVTZ-JKFIT
	 Reference Energy          =    -813.0049400458231048 [Eh]
	 Singles Energy            =      -0.0000000000000000 [Eh]
	 Same-Spin Energy          =      -0.5261889730326987 [Eh]
	 Opposite-Spin Energy      =      -1.5548121579744421 [Eh]
	 Correlation Energy        =      -2.0810011310071408 [Eh]
	 Total Energy              =    -815.0859411768302607 [Eh]

	 ================> DF-SCS-MP2 Energies <==================
	-----------------------------------------------------------
	 SCS Same-Spin Scale       =       0.3333333333333333 [-]
	 SCS Opposite-Spin Scale   =       1.2000000000000000 [-]
	 SCS Same-Spin Energy      =      -0.1753963243442329 [Eh]
	 SCS Opposite-Spin Energy  =      -1.8657745895693303 [Eh]
	 SCS Correlation Energy    =      -2.0411709139135632 [Eh]
	 SCS Total Energy          =    -815.0461109597366658 [Eh]
	-----------------------------------------------------------

  Dipole Moment: [D]
     X:    -0.6162      Y:     0.1972      Z:    -0.0000     Total:     0.6470

*** Psi4 exiting successfully. Buy a developer a beer!
