                               Psi4 1.3.2 release

  ==> Input File <==

--------------------------------------------------------------------------
#psi4
#
memory 32 gb

molecule  {
0 1
  S        1.7618360    -1.1877300    -0.0001100
  N       -1.1892720    -1.1162850     0.0000840
  N        1.4363420     1.3812950    -0.0000570
  C       -0.6888070     0.1366280     0.0000400
  C        0.7728316     0.1860046    -0.0000342
  C       -1.4868030     1.2893490     0.0000580
  C       -2.8690220     1.1312400     0.0001290
  C       -3.4040470    -0.1590480     0.0001760
  C       -2.5262420    -1.2439110     0.0001500
  C        3.1506810    -0.1849920    -0.0001670
  C        2.7828300     1.1426020    -0.0001250
  H       -1.0124600     2.2659460     0.0000190
  H       -3.5213850     2.0011240     0.0001460
  H       -4.4778440    -0.3237170     0.0002310
  H       -2.9027010    -2.2653680     0.0001840
  H        4.1496320    -0.6018500    -0.0002240
  H        3.4730500     1.9793660    -0.0001460
units angstrom
no_reorient  #important for SAPT in psi4, default
symmetry c1  #important for SAPT in psi4, default
}

set PROPERTIES_ORIGIN ["COM"]
properties('MP2/aug-cc-pvtz', properties = ['dipole'])
--------------------------------------------------------------------------

    Molecular point group: c1
  Charge       = 0
  Multiplicity = 1
  Basis Set: AUG-CC-PVTZ
    Blend: AUG-CC-PVTZ
  Basis Set: (AUG-CC-PVTZ AUX)
    Blend: AUG-CC-PVTZ-JKFIT

    Orbital Energies [Eh]
    ---------------------

    Doubly Occupied:

       1A    -92.000645     2A    -15.577526     3A    -15.574883
       4A    -11.313783     5A    -11.297206     6A    -11.284575
       7A    -11.270586     8A    -11.267315     9A    -11.263442
      10A    -11.250714    11A    -11.249891    12A     -9.001119
      13A     -6.681913    14A     -6.681386    15A     -6.680713
      16A     -1.282094    17A     -1.255745    18A     -1.096501
      19A     -1.066602    20A     -1.065041    21A     -0.987533
      22A     -0.876434    23A     -0.868754    24A     -0.786702
      25A     -0.767301    26A     -0.707607    27A     -0.678527
      28A     -0.668774    29A     -0.638565    30A     -0.592334
      31A     -0.583199    32A     -0.579863    33A     -0.560819
      34A     -0.534998    35A     -0.528112    36A     -0.505342
      37A     -0.444061    38A     -0.427688    39A     -0.397707
      40A     -0.389600    41A     -0.373383    42A     -0.305849

  @DF-RHF Final Energy:  -813.00417768401826

   => Energetics <=

    Nuclear Repulsion Energy =            627.1531436846381666
    One-Electron Energy =               -2357.5849787469892362
    Two-Electron Energy =                 917.4276573783329241
    Total Energy =                       -813.0041776840182592
  Basis Set: (AUG-CC-PVTZ AUX)
    Blend: AUG-CC-PVTZ-RI
    Molecular point group: c1

    Geometry (in Angstrom), charge = 0, multiplicity = 1:

       Center              X                  Y                   Z               Mass
    ------------   -----------------  -----------------  -----------------  -----------------
         S            1.735660721512    -1.165453511266    -0.000108731052    31.972071174400
         N           -1.215447278488    -1.094008511266     0.000085268948    14.003074004430
         N            1.410166721512     1.403571488734    -0.000055731052    14.003074004430
         C           -0.714982278488     0.158904488734     0.000041268948    12.000000000000
         C            0.746656321512     0.208281088734    -0.000032931052    12.000000000000
         C           -1.512978278488     1.311625488734     0.000059268948    12.000000000000
         C           -2.895197278488     1.153516488734     0.000130268948    12.000000000000
         C           -3.430222278488    -0.136771511266     0.000177268948    12.000000000000
         C           -2.552417278488    -1.221634511266     0.000151268948    12.000000000000
         C            3.124505721512    -0.162715511266    -0.000165731052    12.000000000000
         C            2.756654721512     1.164878488734    -0.000123731052    12.000000000000
         H           -1.038635278488     2.288222488734     0.000020268948     1.007825032230
         H           -3.547560278488     2.023400488734     0.000147268948     1.007825032230
         H           -4.504019278488    -0.301440511266     0.000232268948     1.007825032230
         H           -2.928876278488    -2.243091511266     0.000185268948     1.007825032230
         H            4.123456721512    -0.579573511266    -0.000222731052     1.007825032230
         H            3.446874721512     2.001642488734    -0.000144731052     1.007825032230

  Basis Set: AUG-CC-PVTZ
    Blend: AUG-CC-PVTZ
  Basis Set: (AUG-CC-PVTZ AUX)
    Blend: AUG-CC-PVTZ-JKFIT
	 Reference Energy          =    -813.0041776840182592 [Eh]
	 Singles Energy            =      -0.0000000000000000 [Eh]
	 Same-Spin Energy          =      -0.5264889625881679 [Eh]
	 Opposite-Spin Energy      =      -1.5551663993532761 [Eh]
	 Correlation Energy        =      -2.0816553619414440 [Eh]
	 Total Energy              =    -815.0858330459597028 [Eh]

	 ================> DF-SCS-MP2 Energies <==================
	-----------------------------------------------------------
	 SCS Same-Spin Scale       =       0.3333333333333333 [-]
	 SCS Opposite-Spin Scale   =       1.2000000000000000 [-]
	 SCS Same-Spin Energy      =      -0.1754963208627226 [Eh]
	 SCS Opposite-Spin Energy  =      -1.8661996792239313 [Eh]
	 SCS Correlation Energy    =      -2.0416960000866538 [Eh]
	 SCS Total Energy          =    -815.0458736841048903 [Eh]
	-----------------------------------------------------------

  Dipole Moment: [D]
     X:    -0.6605      Y:     0.0726      Z:    -0.0000     Total:     0.6645

*** Psi4 exiting successfully. Buy a developer a beer!
