                               Psi4 1.3.2 release

  ==> Input File <==

--------------------------------------------------------------------------
#psi4
#
memory 32 gb

molecule  {
0 1
  S        1.7618360    -1.1877300    -0.0001100
  N       -1.1892720    -1.1162850     0.0000840
  N        1.4363420     1.3812950    -0.0000570
  C       -0.6888070     0.1366280     0.0000400
  C        0.6920176     0.2862389    -0.0000307
  C       -1.4868030     1.2893490     0.0000580
  C       -2.8690220     1.1312400     0.0001290
  C       -3.4040470    -0.1590480     0.0001760
  C       -2.5262420    -1.2439110     0.0001500
  C        3.1506810    -0.1849920    -0.0001670
  C        2.7828300     1.1426020    -0.0001250
  H       -1.0124600     2.2659460     0.0000190
  H       -3.5213850     2.0011240     0.0001460
  H       -4.4778440    -0.3237170     0.0002310
  H       -2.9027010    -2.2653680     0.0001840
  H        4.1496320    -0.6018500    -0.0002240
  H        3.4730500     1.9793660    -0.0001460
units angstrom
no_reorient  #important for SAPT in psi4, default
symmetry c1  #important for SAPT in psi4, default
}

set PROPERTIES_ORIGIN ["COM"]
properties('MP2/aug-cc-pvtz', properties = ['dipole'])
--------------------------------------------------------------------------

    Molecular point group: c1
  Charge       = 0
  Multiplicity = 1
  Basis Set: AUG-CC-PVTZ
    Blend: AUG-CC-PVTZ
  Basis Set: (AUG-CC-PVTZ AUX)
    Blend: AUG-CC-PVTZ-JKFIT

    Orbital Energies [Eh]
    ---------------------

    Doubly Occupied:

       1A    -91.989603     2A    -15.581692     3A    -15.577619
       4A    -11.316529     5A    -11.294119     6A    -11.287747
       7A    -11.270111     8A    -11.269143     9A    -11.268091
      10A    -11.254092    11A    -11.252432    12A     -8.988495
      13A     -6.669256    14A     -6.668602    15A     -6.668070
      16A     -1.287150    17A     -1.259140    18A     -1.098581
      19A     -1.081029    20A     -1.054315    21A     -0.983080
      22A     -0.887397    23A     -0.872853    24A     -0.791012
      25A     -0.770234    26A     -0.704254    27A     -0.682830
      28A     -0.671435    29A     -0.644108    30A     -0.604232
      31A     -0.590690    32A     -0.583806    33A     -0.552318
      34A     -0.535521    35A     -0.533157    36A     -0.497182
      37A     -0.440087    38A     -0.415780    39A     -0.405216
      40A     -0.393158    41A     -0.370994    42A     -0.300743

  @DF-RHF Final Energy:  -812.99818457208085

   => Energetics <=

    Nuclear Repulsion Energy =            626.5412876759952496
    One-Electron Energy =               -2356.3471396936060955
    Two-Electron Energy =                 916.8076674455301145
    Total Energy =                       -812.9981845720808451
  Basis Set: (AUG-CC-PVTZ AUX)
    Blend: AUG-CC-PVTZ-RI
    Molecular point group: c1

    Geometry (in Angstrom), charge = 0, multiplicity = 1:

       Center              X                  Y                   Z               Mass
    ------------   -----------------  -----------------  -----------------  -----------------
         S            1.741646013820    -1.172877120849    -0.000108990271    31.972071174400
         N           -1.209461986180    -1.101432120849     0.000085009729    14.003074004430
         N            1.416152013820     1.396147879151    -0.000055990271    14.003074004430
         C           -0.708996986180     0.151480879151     0.000041009729    12.000000000000
         C            0.671827613820     0.301091779151    -0.000029690271    12.000000000000
         C           -1.506992986180     1.304201879151     0.000059009729    12.000000000000
         C           -2.889211986180     1.146092879151     0.000130009729    12.000000000000
         C           -3.424236986180    -0.144195120849     0.000177009729    12.000000000000
         C           -2.546431986180    -1.229058120849     0.000151009729    12.000000000000
         C            3.130491013820    -0.170139120849    -0.000165990271    12.000000000000
         C            2.762640013820     1.157454879151    -0.000123990271    12.000000000000
         H           -1.032649986180     2.280798879151     0.000020009729     1.007825032230
         H           -3.541574986180     2.015976879151     0.000147009729     1.007825032230
         H           -4.498033986180    -0.308864120849     0.000232009729     1.007825032230
         H           -2.922890986180    -2.250515120849     0.000185009729     1.007825032230
         H            4.129442013820    -0.586997120849    -0.000222990271     1.007825032230
         H            3.452860013820     1.994218879151    -0.000144990271     1.007825032230

  Basis Set: AUG-CC-PVTZ
    Blend: AUG-CC-PVTZ
  Basis Set: (AUG-CC-PVTZ AUX)
    Blend: AUG-CC-PVTZ-JKFIT
	 Reference Energy          =    -812.9981845720808451 [Eh]
	 Singles Energy            =      -0.0000000000000000 [Eh]
	 Same-Spin Energy          =      -0.5267168127472707 [Eh]
	 Opposite-Spin Energy      =      -1.5559733978223680 [Eh]
	 Correlation Energy        =      -2.0826902105696385 [Eh]
	 Total Energy              =    -815.0808747826505396 [Eh]

	 ================> DF-SCS-MP2 Energies <==================
	-----------------------------------------------------------
	 SCS Same-Spin Scale       =       0.3333333333333333 [-]
	 SCS Opposite-Spin Scale   =       1.2000000000000000 [-]
	 SCS Same-Spin Energy      =      -0.1755722709157569 [Eh]
	 SCS Opposite-Spin Energy  =      -1.8671680773868415 [Eh]
	 SCS Correlation Energy    =      -2.0427403483025985 [Eh]
	 SCS Total Energy          =    -815.0409249203834179 [Eh]
	-----------------------------------------------------------

  Dipole Moment: [D]
     X:    -0.9881      Y:     0.4064      Z:     0.0000     Total:     1.0684

*** Psi4 exiting successfully. Buy a developer a beer!
