                               Psi4 1.3.2 release

  ==> Input File <==

--------------------------------------------------------------------------
#psi4
#
memory 32 gb

molecule  {
0 1
  S        1.7618360    -1.1877300    -0.0001100
  N       -1.1892720    -1.1162850     0.0000840
  N        1.4363420     1.3812950    -0.0000570
  C       -0.6888070     0.1366280     0.0000400
  C        0.8844706     0.0728316    -0.0000436
  C       -1.4868030     1.2893490     0.0000580
  C       -2.8690220     1.1312400     0.0001290
  C       -3.4040470    -0.1590480     0.0001760
  C       -2.5262420    -1.2439110     0.0001500
  C        3.1506810    -0.1849920    -0.0001670
  C        2.7828300     1.1426020    -0.0001250
  H       -1.0124600     2.2659460     0.0000190
  H       -3.5213850     2.0011240     0.0001460
  H       -4.4778440    -0.3237170     0.0002310
  H       -2.9027010    -2.2653680     0.0001840
  H        4.1496320    -0.6018500    -0.0002240
  H        3.4730500     1.9793660    -0.0001460
units angstrom
no_reorient  #important for SAPT in psi4, default
symmetry c1  #important for SAPT in psi4, default
}

set PROPERTIES_ORIGIN ["COM"]
properties('MP2/aug-cc-pvtz', properties = ['dipole'])
--------------------------------------------------------------------------

    Molecular point group: c1
  Charge       = 0
  Multiplicity = 1
  Basis Set: AUG-CC-PVTZ
    Blend: AUG-CC-PVTZ
  Basis Set: (AUG-CC-PVTZ AUX)
    Blend: AUG-CC-PVTZ-JKFIT

    Orbital Energies [Eh]
    ---------------------

    Doubly Occupied:

       1A    -92.008171     2A    -15.573527     3A    -15.571230
       4A    -11.309767     5A    -11.302919     6A    -11.281554
       7A    -11.271452     8A    -11.265879     9A    -11.255403
      10A    -11.248203    11A    -11.247566    12A     -9.013200
      13A     -6.694602    14A     -6.693005    15A     -6.692482
      16A     -1.280264    17A     -1.254806    18A     -1.100087
      19A     -1.086791    20A     -1.050837    21A     -0.988265
      22A     -0.865087    23A     -0.862864    24A     -0.783504
      25A     -0.762736    26A     -0.710982    27A     -0.674956
      28A     -0.665447    29A     -0.634249    30A     -0.589690
      31A     -0.582152    32A     -0.570445    33A     -0.563573
      34A     -0.538314    35A     -0.518468    36A     -0.502328
      37A     -0.450970    38A     -0.428954    39A     -0.397453
      40A     -0.385932    41A     -0.370816    42A     -0.310845

  @DF-RHF Final Energy:  -812.96175957657078

   => Energetics <=

    Nuclear Repulsion Energy =            628.3060438625703910
    One-Electron Energy =               -2359.8160622468258225
    Two-Electron Energy =                 918.5482588076847605
    Total Energy =                       -812.9617595765707847
  Basis Set: (AUG-CC-PVTZ AUX)
    Blend: AUG-CC-PVTZ-RI
    Molecular point group: c1

    Geometry (in Angstrom), charge = 0, multiplicity = 1:

       Center              X                  Y                   Z               Mass
    ------------   -----------------  -----------------  -----------------  -----------------
         S            1.727392450569    -1.157071628345    -0.000108034863    31.972071174400
         N           -1.223715549431    -1.085626628345     0.000085965137    14.003074004430
         N            1.401898450569     1.411953371655    -0.000055034863    14.003074004430
         C           -0.723250549431     0.167286371655     0.000041965137    12.000000000000
         C            0.850027050569     0.103489971655    -0.000041634863    12.000000000000
         C           -1.521246549431     1.320007371655     0.000059965137    12.000000000000
         C           -2.903465549431     1.161898371655     0.000130965137    12.000000000000
         C           -3.438490549431    -0.128389628345     0.000177965137    12.000000000000
         C           -2.560685549431    -1.213252628345     0.000151965137    12.000000000000
         C            3.116237450569    -0.154333628345    -0.000165034863    12.000000000000
         C            2.748386450569     1.173260371655    -0.000123034863    12.000000000000
         H           -1.046903549431     2.296604371655     0.000020965137     1.007825032230
         H           -3.555828549431     2.031782371655     0.000147965137     1.007825032230
         H           -4.512287549431    -0.293058628345     0.000232965137     1.007825032230
         H           -2.937144549431    -2.234709628345     0.000185965137     1.007825032230
         H            4.115188450569    -0.571191628345    -0.000222034863     1.007825032230
         H            3.438606450569     2.010024371655    -0.000144034863     1.007825032230

  Basis Set: AUG-CC-PVTZ
    Blend: AUG-CC-PVTZ
  Basis Set: (AUG-CC-PVTZ AUX)
    Blend: AUG-CC-PVTZ-JKFIT
	 Reference Energy          =    -812.9617595765707847 [Eh]
	 Singles Energy            =      -0.0000000000000000 [Eh]
	 Same-Spin Energy          =      -0.5279287829882717 [Eh]
	 Opposite-Spin Energy      =      -1.5570915490785175 [Eh]
	 Correlation Energy        =      -2.0850203320667893 [Eh]
	 Total Energy              =    -815.0467799086375180 [Eh]

	 ================> DF-SCS-MP2 Energies <==================
	-----------------------------------------------------------
	 SCS Same-Spin Scale       =       0.3333333333333333 [-]
	 SCS Opposite-Spin Scale   =       1.2000000000000000 [-]
	 SCS Same-Spin Energy      =      -0.1759762609960906 [Eh]
	 SCS Opposite-Spin Energy  =      -1.8685098588942211 [Eh]
	 SCS Correlation Energy    =      -2.0444861198903115 [Eh]
	 SCS Total Energy          =    -815.0062456964610647 [Eh]
	-----------------------------------------------------------

  Dipole Moment: [D]
     X:    -0.4760      Y:    -0.2143      Z:    -0.0000     Total:     0.5220

*** Psi4 exiting successfully. Buy a developer a beer!
