                               Psi4 1.4a3.dev225

  ==> Input File <==

--------------------------------------------------------------------------
#psi4
#
memory 32 gb

molecule  {
0 1
  S        1.7618360    -1.1877300    -0.0001100
  N       -1.1892720    -1.1162850     0.0000840
  N        1.4363420     1.3812950    -0.0000570
  C       -0.6888070     0.1366280     0.0000400
  C        0.7702180     0.2369850    -0.0000350
  C       -1.4868030     1.2893490     0.0000580
  C       -2.8690220     1.1312400     0.0001290
  C       -3.4040470    -0.1590480     0.0001760
  C       -2.5262420    -1.2439110     0.0001500
  C        3.1506810    -0.1849920    -0.0001670
  C        2.7828300     1.1426020    -0.0001250
  H       -1.0124600     2.2659460     0.0000190
  H       -3.5213850     2.0011240     0.0001460
  H       -4.4778440    -0.3237170     0.0002310
  H       -2.9027010    -2.2653680     0.0001840
  H        4.1957755    -0.6211055    -0.0002266
  H        3.4730500     1.9793660    -0.0001460
units angstrom
no_reorient  #important for SAPT in psi4, default
symmetry c1  #important for SAPT in psi4, default
}

set PROPERTIES_ORIGIN ["COM"]
properties('MP2/aug-cc-pvtz', properties = ['dipole'])
--------------------------------------------------------------------------

    Molecular point group: c1
  Charge       = 0
  Multiplicity = 1
  Basis Set: AUG-CC-PVTZ
    Blend: AUG-CC-PVTZ
  Basis Set: (AUG-CC-PVTZ AUX)
    Blend: AUG-CC-PVTZ-JKFIT

    Orbital Energies [Eh]
    ---------------------

    Doubly Occupied:

       1A    -91.996039     2A    -15.578975     3A    -15.574587
       4A    -11.313889     5A    -11.297507     6A    -11.285544
       7A    -11.270979     8A    -11.269613     9A    -11.267631
      10A    -11.251422    11A    -11.250012    12A     -8.996035
      13A     -6.676797    14A     -6.676250    15A     -6.675580
      16A     -1.287659    17A     -1.260384    18A     -1.096593
      19A     -1.068019    20A     -1.061769    21A     -0.986001
      22A     -0.876544    23A     -0.869213    24A     -0.786853
      25A     -0.766046    26A     -0.705275    27A     -0.679123
      28A     -0.667140    29A     -0.639331    30A     -0.593677
      31A     -0.586647    32A     -0.581605    33A     -0.554531
      34A     -0.536136    35A     -0.528783    36A     -0.503095
      37A     -0.444299    38A     -0.424786    39A     -0.398917
      40A     -0.392650    41A     -0.371611    42A     -0.307135

  @DF-RHF Final Energy:  -813.00690186611257

   => Energetics <=

    Nuclear Repulsion Energy =            626.6840145925968955
    One-Electron Energy =               -2356.6724752940540384
    Two-Electron Energy =                 916.9815588353445719
    Total Energy =                       -813.0069018661125710
  Basis Set: (AUG-CC-PVTZ AUX)
    Blend: AUG-CC-PVTZ-RI
    Molecular point group: c1

    Geometry (in Angstrom), charge = 0, multiplicity = 1:

       Center              X                  Y                   Z               Mass
    ------------   -----------------  -----------------  -----------------  -----------------
         S            1.735567270757    -1.169109477974    -0.000108655629    31.972071174400
         N           -1.215540729243    -1.097664477974     0.000085344371    14.003074004430
         N            1.410073270757     1.399915522026    -0.000055655629    14.003074004430
         C           -0.715075729243     0.155248522026     0.000041344371    12.000000000000
         C            0.743949270757     0.255605522026    -0.000033655629    12.000000000000
         C           -1.513071729243     1.307969522026     0.000059344371    12.000000000000
         C           -2.895290729243     1.149860522026     0.000130344371    12.000000000000
         C           -3.430315729243    -0.140427477974     0.000177344371    12.000000000000
         C           -2.552510729243    -1.225290477974     0.000151344371    12.000000000000
         C            3.124412270757    -0.166371477974    -0.000165655629    12.000000000000
         C            2.756561270757     1.161222522026    -0.000123655629    12.000000000000
         H           -1.038728729243     2.284566522026     0.000020344371     1.007825032230
         H           -3.547653729243     2.019744522026     0.000147344371     1.007825032230
         H           -4.504112729243    -0.305096477974     0.000232344371     1.007825032230
         H           -2.928969729243    -2.246747477974     0.000185344371     1.007825032230
         H            4.169506770757    -0.602484977974    -0.000225255629     1.007825032230
         H            3.446781270757     1.997986522026    -0.000144655629     1.007825032230

  Basis Set: AUG-CC-PVTZ
    Blend: AUG-CC-PVTZ
  Basis Set: (AUG-CC-PVTZ AUX)
    Blend: AUG-CC-PVTZ-JKFIT
	 Reference Energy          =    -813.0069018661125710 [Eh]
	 Singles Energy            =      -0.0000000000000000 [Eh]
	 Same-Spin Energy          =      -0.5254718946647292 [Eh]
	 Opposite-Spin Energy      =      -1.5539830575857083 [Eh]
	 Correlation Energy        =      -2.0794549522504377 [Eh]
	 Total Energy              =    -815.0863568183630150 [Eh]

	 ================> DF-SCS-MP2 Energies <==================
	-----------------------------------------------------------
	 SCS Same-Spin Scale       =       0.3333333333333333 [-]
	 SCS Opposite-Spin Scale   =       1.2000000000000000 [-]
	 SCS Same-Spin Energy      =      -0.1751572982215764 [Eh]
	 SCS Opposite-Spin Energy  =      -1.8647796691028500 [Eh]
	 SCS Correlation Energy    =      -2.0399369673244263 [Eh]
	 SCS Total Energy          =    -815.0468388334370502 [Eh]
	-----------------------------------------------------------

  Dipole Moment: [D]
     X:    -0.7948      Y:     0.1904      Z:    -0.0000     Total:     0.8173

*** Psi4 exiting successfully. Buy a developer a beer!
