                               Psi4 1.3.2 release

  ==> Input File <==

--------------------------------------------------------------------------
#psi4
#
memory 32 gb

molecule  {
0 1
  S        1.7618360    -1.1877300    -0.0001100
  N       -1.1892720    -1.1162850     0.0000840
  N        1.4562724     1.4746398    -0.0000566
  C       -0.6888070     0.1366280     0.0000400
  C        0.7702180     0.2369850    -0.0000350
  C       -1.4868030     1.2893490     0.0000580
  C       -2.8690220     1.1312400     0.0001290
  C       -3.4040470    -0.1590480     0.0001760
  C       -2.5262420    -1.2439110     0.0001500
  C        3.1506810    -0.1849920    -0.0001670
  C        2.7828300     1.1426020    -0.0001250
  H       -1.0124600     2.2659460     0.0000190
  H       -3.5213850     2.0011240     0.0001460
  H       -4.4778440    -0.3237170     0.0002310
  H       -2.9027010    -2.2653680     0.0001840
  H        4.1496320    -0.6018500    -0.0002240
  H        3.4730500     1.9793660    -0.0001460
units angstrom
no_reorient  #important for SAPT in psi4, default
symmetry c1  #important for SAPT in psi4, default
}

set PROPERTIES_ORIGIN ["COM"]
properties('MP2/aug-cc-pvtz', properties = ['dipole'])
--------------------------------------------------------------------------

    Molecular point group: c1
  Charge       = 0
  Multiplicity = 1
  Basis Set: AUG-CC-PVTZ
    Blend: AUG-CC-PVTZ
  Basis Set: (AUG-CC-PVTZ AUX)
    Blend: AUG-CC-PVTZ-JKFIT

    Orbital Energies [Eh]
    ---------------------

    Doubly Occupied:

       1A    -92.004623     2A    -15.585133     3A    -15.579680
       4A    -11.324904     5A    -11.298741     6A    -11.286302
       7A    -11.270325     8A    -11.268100     9A    -11.262925
      10A    -11.252183    11A    -11.250802    12A     -9.003867
      13A     -6.684599    14A     -6.684023    15A     -6.683468
      16A     -1.277300    17A     -1.249191    18A     -1.097374
      19A     -1.068203    20A     -1.064596    21A     -0.980687
      22A     -0.877142    23A     -0.869515    24A     -0.782778
      25A     -0.766618    26A     -0.708747    27A     -0.678462
      28A     -0.669993    29A     -0.637154    30A     -0.592219
      31A     -0.576019    32A     -0.575737    33A     -0.556833
      34A     -0.532851    35A     -0.528464    36A     -0.504244
      37A     -0.452226    38A     -0.429934    39A     -0.398205
      40A     -0.391000    41A     -0.374870    42A     -0.301205

  @DF-RHF Final Energy:  -812.99308947109625

   => Energetics <=

    Nuclear Repulsion Energy =            624.3314396521581102
    One-Electron Energy =               -2351.8865770455695383
    Two-Electron Energy =                 914.5620479223150596
    Total Energy =                       -812.9930894710962548
  Basis Set: (AUG-CC-PVTZ AUX)
    Blend: AUG-CC-PVTZ-RI
    Molecular point group: c1

    Geometry (in Angstrom), charge = 0, multiplicity = 1:

       Center              X                  Y                   Z               Mass
    ------------   -----------------  -----------------  -----------------  -----------------
         S            1.734131800622    -1.177296602989    -0.000108706372    31.972071174400
         N           -1.216976199378    -1.105851602989     0.000085293628    14.003074004430
         N            1.428568200622     1.485073197011    -0.000055306372    14.003074004430
         C           -0.716511199378     0.147061397011     0.000041293628    12.000000000000
         C            0.742513800622     0.247418397011    -0.000033706372    12.000000000000
         C           -1.514507199378     1.299782397011     0.000059293628    12.000000000000
         C           -2.896726199378     1.141673397011     0.000130293628    12.000000000000
         C           -3.431751199378    -0.148614602989     0.000177293628    12.000000000000
         C           -2.553946199378    -1.233477602989     0.000151293628    12.000000000000
         C            3.122976800622    -0.174558602989    -0.000165706372    12.000000000000
         C            2.755125800622     1.153035397011    -0.000123706372    12.000000000000
         H           -1.040164199378     2.276379397011     0.000020293628     1.007825032230
         H           -3.549089199378     2.011557397011     0.000147293628     1.007825032230
         H           -4.505548199378    -0.313283602989     0.000232293628     1.007825032230
         H           -2.930405199378    -2.254934602989     0.000185293628     1.007825032230
         H            4.121927800622    -0.591416602989    -0.000222706372     1.007825032230
         H            3.445345800622     1.989799397011    -0.000144706372     1.007825032230

  Basis Set: AUG-CC-PVTZ
    Blend: AUG-CC-PVTZ
  Basis Set: (AUG-CC-PVTZ AUX)
    Blend: AUG-CC-PVTZ-JKFIT
	 Reference Energy          =    -812.9930894710962548 [Eh]
	 Singles Energy            =      -0.0000000000000000 [Eh]
	 Same-Spin Energy          =      -0.5279179601296194 [Eh]
	 Opposite-Spin Energy      =      -1.5587038906958353 [Eh]
	 Correlation Energy        =      -2.0866218508254546 [Eh]
	 Total Energy              =    -815.0797113219217636 [Eh]

	 ================> DF-SCS-MP2 Energies <==================
	-----------------------------------------------------------
	 SCS Same-Spin Scale       =       0.3333333333333333 [-]
	 SCS Opposite-Spin Scale   =       1.2000000000000000 [-]
	 SCS Same-Spin Energy      =      -0.1759726533765398 [Eh]
	 SCS Opposite-Spin Energy  =      -1.8704446688350023 [Eh]
	 SCS Correlation Energy    =      -2.0464173222115423 [Eh]
	 SCS Total Energy          =    -815.0395067933078508 [Eh]
	-----------------------------------------------------------

  Dipole Moment: [D]
     X:    -0.6765      Y:    -0.0911      Z:    -0.0000     Total:     0.6826

*** Psi4 exiting successfully. Buy a developer a beer!
