                               Psi4 1.3.2 release

  ==> Input File <==

--------------------------------------------------------------------------
#psi4
#
memory 32 gb

molecule  {
0 1
  S        1.7618360    -1.1877300    -0.0001100
  N       -1.1892720    -1.1162850     0.0000840
  N        1.4363420     1.3812950    -0.0000570
  C       -0.6888070     0.1366280     0.0000400
  C        0.7211002     0.2015101    -0.0000330
  C       -1.4868030     1.2893490     0.0000580
  C       -2.8690220     1.1312400     0.0001290
  C       -3.4040470    -0.1590480     0.0001760
  C       -2.5262420    -1.2439110     0.0001500
  C        3.1506810    -0.1849920    -0.0001670
  C        2.7828300     1.1426020    -0.0001250
  H       -1.0124600     2.2659460     0.0000190
  H       -3.5213850     2.0011240     0.0001460
  H       -4.4778440    -0.3237170     0.0002310
  H       -2.9027010    -2.2653680     0.0001840
  H        4.1496320    -0.6018500    -0.0002240
  H        3.4730500     1.9793660    -0.0001460
units angstrom
no_reorient  #important for SAPT in psi4, default
symmetry c1  #important for SAPT in psi4, default
}

set PROPERTIES_ORIGIN ["COM"]
properties('MP2/aug-cc-pvtz', properties = ['dipole'])
--------------------------------------------------------------------------

    Molecular point group: c1
  Charge       = 0
  Multiplicity = 1
  Basis Set: AUG-CC-PVTZ
    Blend: AUG-CC-PVTZ
  Basis Set: (AUG-CC-PVTZ AUX)
    Blend: AUG-CC-PVTZ-JKFIT

    Orbital Energies [Eh]
    ---------------------

    Doubly Occupied:

       1A    -91.999197     2A    -15.578694     3A    -15.576926
       4A    -11.315146     5A    -11.294240     6A    -11.285576
       7A    -11.270700     8A    -11.268051     9A    -11.265411
      10A    -11.252081    11A    -11.251177    12A     -8.998709
      13A     -6.679449    14A     -6.678979    15A     -6.678357
      16A     -1.281734    17A     -1.251984    18A     -1.097544
      19A     -1.074344    20A     -1.058505    21A     -0.986003
      22A     -0.883064    23A     -0.870777    24A     -0.786054
      25A     -0.768826    26A     -0.705886    27A     -0.679526
      28A     -0.670391    29A     -0.640746    30A     -0.595983
      31A     -0.587247    32A     -0.580436    33A     -0.556817
      34A     -0.533494    35A     -0.532470    36A     -0.502226
      37A     -0.440334    38A     -0.425198    39A     -0.400912
      40A     -0.389530    41A     -0.373646    42A     -0.301242

  @DF-RHF Final Energy:  -812.99961401669395

   => Energetics <=

    Nuclear Repulsion Energy =            626.9138081521437016
    One-Electron Energy =               -2357.0916179335804372
    Two-Electron Energy =                 917.1781957647427816
    Total Energy =                       -812.9996140166939540
  Basis Set: (AUG-CC-PVTZ AUX)
    Blend: AUG-CC-PVTZ-RI
    Molecular point group: c1

    Geometry (in Angstrom), charge = 0, multiplicity = 1:

       Center              X                  Y                   Z               Mass
    ------------   -----------------  -----------------  -----------------  -----------------
         S            1.739492081803    -1.166601888402    -0.000108819927    31.972071174400
         N           -1.211615918197    -1.095156888402     0.000085180073    14.003074004430
         N            1.413998081803     1.402423111598    -0.000055819927    14.003074004430
         C           -0.711150918197     0.157756111598     0.000041180073    12.000000000000
         C            0.698756281803     0.222638211598    -0.000031819927    12.000000000000
         C           -1.509146918197     1.310477111598     0.000059180073    12.000000000000
         C           -2.891365918197     1.152368111598     0.000130180073    12.000000000000
         C           -3.426390918197    -0.137919888402     0.000177180073    12.000000000000
         C           -2.548585918197    -1.222782888402     0.000151180073    12.000000000000
         C            3.128337081803    -0.163863888402    -0.000165819927    12.000000000000
         C            2.760486081803     1.163730111598    -0.000123819927    12.000000000000
         H           -1.034803918197     2.287074111598     0.000020180073     1.007825032230
         H           -3.543728918197     2.022252111598     0.000147180073     1.007825032230
         H           -4.500187918197    -0.302588888402     0.000232180073     1.007825032230
         H           -2.925044918197    -2.244239888402     0.000185180073     1.007825032230
         H            4.127288081803    -0.580721888402    -0.000222819927     1.007825032230
         H            3.450706081803     2.000494111598    -0.000144819927     1.007825032230

  Basis Set: AUG-CC-PVTZ
    Blend: AUG-CC-PVTZ
  Basis Set: (AUG-CC-PVTZ AUX)
    Blend: AUG-CC-PVTZ-JKFIT
	 Reference Energy          =    -812.9996140166939540 [Eh]
	 Singles Energy            =      -0.0000000000000000 [Eh]
	 Same-Spin Energy          =      -0.5274649964302609 [Eh]
	 Opposite-Spin Energy      =      -1.5568177855137200 [Eh]
	 Correlation Energy        =      -2.0842827819439806 [Eh]
	 Total Energy              =    -815.0838967986379657 [Eh]

	 ================> DF-SCS-MP2 Energies <==================
	-----------------------------------------------------------
	 SCS Same-Spin Scale       =       0.3333333333333333 [-]
	 SCS Opposite-Spin Scale   =       1.2000000000000000 [-]
	 SCS Same-Spin Energy      =      -0.1758216654767536 [Eh]
	 SCS Opposite-Spin Energy  =      -1.8681813426164640 [Eh]
	 SCS Correlation Energy    =      -2.0440030080932177 [Eh]
	 SCS Total Energy          =    -815.0436170247871814 [Eh]
	-----------------------------------------------------------

  Dipole Moment: [D]
     X:    -0.7025      Y:     0.1543      Z:    -0.0000     Total:     0.7192

*** Psi4 exiting successfully. Buy a developer a beer!
