                               Psi4 1.4a3.dev225

  ==> Input File <==

--------------------------------------------------------------------------
#psi4
#
memory 32 gb

molecule  {
0 1
  S        1.7618360    -1.1877300    -0.0001100
  N       -1.1892720    -1.1162850     0.0000840
  N        1.4363420     1.3812950    -0.0000570
  C       -0.6888070     0.1366280     0.0000400
  C        0.7702180     0.2369850    -0.0000350
  C       -1.4868030     1.2893490     0.0000580
  C       -2.8690220     1.1312400     0.0001290
  C       -3.4040470    -0.1590480     0.0001760
  C       -2.5262420    -1.2439110     0.0001500
  C        3.1912193    -0.1557235    -0.0001687
  C        2.7828300     1.1426020    -0.0001250
  H       -1.0124600     2.2659460     0.0000190
  H       -3.5213850     2.0011240     0.0001460
  H       -4.4778440    -0.3237170     0.0002310
  H       -2.9027010    -2.2653680     0.0001840
  H        4.1496320    -0.6018500    -0.0002240
  H        3.4730500     1.9793660    -0.0001460
units angstrom
no_reorient  #important for SAPT in psi4, default
symmetry c1  #important for SAPT in psi4, default
}

set PROPERTIES_ORIGIN ["COM"]
properties('MP2/aug-cc-pvtz', properties = ['dipole'])
--------------------------------------------------------------------------

    Molecular point group: c1
  Charge       = 0
  Multiplicity = 1
  Basis Set: AUG-CC-PVTZ
    Blend: AUG-CC-PVTZ
  Basis Set: (AUG-CC-PVTZ AUX)
    Blend: AUG-CC-PVTZ-JKFIT

    Orbital Energies [Eh]
    ---------------------

    Doubly Occupied:

       1A    -91.993272     2A    -15.580102     3A    -15.573556
       4A    -11.316607     5A    -11.298037     6A    -11.286129
       7A    -11.269689     8A    -11.268319     9A    -11.264296
      10A    -11.252699    11A    -11.251280    12A     -8.992609
      13A     -6.673345    14A     -6.672782    15A     -6.672164
      16A     -1.287054    17A     -1.260466    18A     -1.097327
      19A     -1.069223    20A     -1.054719    21A     -0.989591
      22A     -0.879106    23A     -0.869809    24A     -0.794178
      25A     -0.766396    26A     -0.708602    27A     -0.680878
      28A     -0.671209    29A     -0.639997    30A     -0.594442
      31A     -0.589256    32A     -0.580900    33A     -0.562422
      34A     -0.535522    35A     -0.529924    36A     -0.493253
      37A     -0.444610    38A     -0.423897    39A     -0.398764
      40A     -0.389768    41A     -0.372384    42A     -0.311291

  @DF-RHF Final Energy:  -813.00884819523185

   => Energetics <=

    Nuclear Repulsion Energy =            626.0246608131668609
    One-Electron Energy =               -2355.3472707843075113
    Two-Electron Energy =                 916.3137617759086879
    Total Energy =                       -813.0088481952318489
  Basis Set: (AUG-CC-PVTZ AUX)
    Blend: AUG-CC-PVTZ-RI
    Molecular point group: c1

    Geometry (in Angstrom), charge = 0, multiplicity = 1:

       Center              X                  Y                   Z               Mass
    ------------   -----------------  -----------------  -----------------  -----------------
         S            1.732851920869    -1.171396950817    -0.000108545895    31.972071174400
         N           -1.218256079131    -1.099951950817     0.000085454105    14.003074004430
         N            1.407357920869     1.397628049183    -0.000055545895    14.003074004430
         C           -0.717791079131     0.152961049183     0.000041454105    12.000000000000
         C            0.741233920869     0.253318049183    -0.000033545895    12.000000000000
         C           -1.515787079131     1.305682049183     0.000059454105    12.000000000000
         C           -2.898006079131     1.147573049183     0.000130454105    12.000000000000
         C           -3.433031079131    -0.142714950817     0.000177454105    12.000000000000
         C           -2.555226079131    -1.227577950817     0.000151454105    12.000000000000
         C            3.162235220869    -0.139390450817    -0.000167245895    12.000000000000
         C            2.753845920869     1.158935049183    -0.000123545895    12.000000000000
         H           -1.041444079131     2.282279049183     0.000020454105     1.007825032230
         H           -3.550369079131     2.017457049183     0.000147454105     1.007825032230
         H           -4.506828079131    -0.307383950817     0.000232454105     1.007825032230
         H           -2.931685079131    -2.249034950817     0.000185454105     1.007825032230
         H            4.120647920869    -0.585516950817    -0.000222545895     1.007825032230
         H            3.444065920869     1.995699049183    -0.000144545895     1.007825032230

  Basis Set: AUG-CC-PVTZ
    Blend: AUG-CC-PVTZ
  Basis Set: (AUG-CC-PVTZ AUX)
    Blend: AUG-CC-PVTZ-JKFIT
	 Reference Energy          =    -813.0088481952318489 [Eh]
	 Singles Energy            =      -0.0000000000000000 [Eh]
	 Same-Spin Energy          =      -0.5244274074948780 [Eh]
	 Opposite-Spin Energy      =      -1.5530703882997390 [Eh]
	 Correlation Energy        =      -2.0774977957946170 [Eh]
	 Total Energy              =    -815.0863459910265192 [Eh]

	 ================> DF-SCS-MP2 Energies <==================
	-----------------------------------------------------------
	 SCS Same-Spin Scale       =       0.3333333333333333 [-]
	 SCS Opposite-Spin Scale   =       1.2000000000000000 [-]
	 SCS Same-Spin Energy      =      -0.1748091358316260 [Eh]
	 SCS Opposite-Spin Energy  =      -1.8636844659596867 [Eh]
	 SCS Correlation Energy    =      -2.0384936017913127 [Eh]
	 SCS Total Energy          =    -815.0473417970231367 [Eh]
	-----------------------------------------------------------

  Dipole Moment: [D]
     X:    -0.8553      Y:     0.2372      Z:    -0.0000     Total:     0.8876

*** Psi4 exiting successfully. Buy a developer a beer!
