                               Psi4 1.3.2 release

  ==> Input File <==

--------------------------------------------------------------------------
#psi4
#
memory 32 gb

molecule  {
0 1
  S        1.7618360    -1.1877300    -0.0001100
  N       -1.1892720    -1.1162850     0.0000840
  N        1.4363420     1.3812950    -0.0000570
  C       -0.6888070     0.1366280     0.0000400
  C        0.7658268     0.2878431    -0.0000357
  C       -1.4868030     1.2893490     0.0000580
  C       -2.8690220     1.1312400     0.0001290
  C       -3.4040470    -0.1590480     0.0001760
  C       -2.5262420    -1.2439110     0.0001500
  C        3.1506810    -0.1849920    -0.0001670
  C        2.7828300     1.1426020    -0.0001250
  H       -1.0124600     2.2659460     0.0000190
  H       -3.5213850     2.0011240     0.0001460
  H       -4.4778440    -0.3237170     0.0002310
  H       -2.9027010    -2.2653680     0.0001840
  H        4.1496320    -0.6018500    -0.0002240
  H        3.4730500     1.9793660    -0.0001460
units angstrom
no_reorient  #important for SAPT in psi4, default
symmetry c1  #important for SAPT in psi4, default
}

set PROPERTIES_ORIGIN ["COM"]
properties('MP2/aug-cc-pvtz', properties = ['dipole'])
--------------------------------------------------------------------------

    Molecular point group: c1
  Charge       = 0
  Multiplicity = 1
  Basis Set: AUG-CC-PVTZ
    Blend: AUG-CC-PVTZ
  Basis Set: (AUG-CC-PVTZ AUX)
    Blend: AUG-CC-PVTZ-JKFIT

    Orbital Energies [Eh]
    ---------------------

    Doubly Occupied:

       1A    -91.990077     2A    -15.580500     3A    -15.573537
       4A    -11.313716     5A    -11.298077     6A    -11.286555
       7A    -11.269765     8A    -11.268020     9A    -11.266506
      10A    -11.252242    11A    -11.250272    12A     -8.989803
      13A     -6.670577    14A     -6.669938    15A     -6.669309
      16A     -1.295527    17A     -1.263730    18A     -1.096939
      19A     -1.070866    20A     -1.060040    21A     -0.984734
      22A     -0.878102    23A     -0.869832    24A     -0.794849
      25A     -0.766190    26A     -0.706664    27A     -0.681633
      28A     -0.669323    29A     -0.641112    30A     -0.598205
      31A     -0.589652    32A     -0.583962    33A     -0.556413
      34A     -0.537457    35A     -0.530302    36A     -0.500286
      37A     -0.443484    38A     -0.420057    39A     -0.401954
      40A     -0.394074    41A     -0.369857    42A     -0.307881

  @DF-RHF Final Energy:  -813.00956973011591

   => Energetics <=

    Nuclear Repulsion Energy =            626.7807042043629053
    One-Electron Energy =               -2356.8565024441613787
    Two-Electron Energy =                 917.0662285096826736
    Total Energy =                       -813.0095697301159134
  Basis Set: (AUG-CC-PVTZ AUX)
    Blend: AUG-CC-PVTZ-RI
    Molecular point group: c1

    Geometry (in Angstrom), charge = 0, multiplicity = 1:

       Center              X                  Y                   Z               Mass
    ------------   -----------------  -----------------  -----------------  -----------------
         S            1.736179514983    -1.172995932019    -0.000108619958    31.972071174400
         N           -1.214928485017    -1.101550932019     0.000085380042    14.003074004430
         N            1.410685514983     1.396029067981    -0.000055619958    14.003074004430
         C           -0.714463485017     0.151362067981     0.000041380042    12.000000000000
         C            0.740170314983     0.302577167981    -0.000034319958    12.000000000000
         C           -1.512459485017     1.304083067981     0.000059380042    12.000000000000
         C           -2.894678485017     1.145974067981     0.000130380042    12.000000000000
         C           -3.429703485017    -0.144313932019     0.000177380042    12.000000000000
         C           -2.551898485017    -1.229176932019     0.000151380042    12.000000000000
         C            3.125024514983    -0.170257932019    -0.000165619958    12.000000000000
         C            2.757173514983     1.157336067981    -0.000123619958    12.000000000000
         H           -1.038116485017     2.280680067981     0.000020380042     1.007825032230
         H           -3.547041485017     2.015858067981     0.000147380042     1.007825032230
         H           -4.503500485017    -0.308982932019     0.000232380042     1.007825032230
         H           -2.928357485017    -2.250633932019     0.000185380042     1.007825032230
         H            4.123975514983    -0.587115932019    -0.000222619958     1.007825032230
         H            3.447393514983     1.994100067981    -0.000144619958     1.007825032230

  Basis Set: AUG-CC-PVTZ
    Blend: AUG-CC-PVTZ
  Basis Set: (AUG-CC-PVTZ AUX)
    Blend: AUG-CC-PVTZ-JKFIT
	 Reference Energy          =    -813.0095697301159134 [Eh]
	 Singles Energy            =      -0.0000000000000000 [Eh]
	 Same-Spin Energy          =      -0.5243956708932811 [Eh]
	 Opposite-Spin Energy      =      -1.5524305037136079 [Eh]
	 Correlation Energy        =      -2.0768261746068890 [Eh]
	 Total Energy              =    -815.0863959047228491 [Eh]

	 ================> DF-SCS-MP2 Energies <==================
	-----------------------------------------------------------
	 SCS Same-Spin Scale       =       0.3333333333333333 [-]
	 SCS Opposite-Spin Scale   =       1.2000000000000000 [-]
	 SCS Same-Spin Energy      =      -0.1747985569644270 [Eh]
	 SCS Opposite-Spin Energy  =      -1.8629166044563295 [Eh]
	 SCS Correlation Energy    =      -2.0377151614207563 [Eh]
	 SCS Total Energy          =    -815.0472848915367194 [Eh]
	-----------------------------------------------------------

  Dipole Moment: [D]
     X:    -0.9627      Y:     0.3525      Z:     0.0000     Total:     1.0252

*** Psi4 exiting successfully. Buy a developer a beer!
