                               Psi4 1.4a3.dev225

  ==> Input File <==

--------------------------------------------------------------------------
#psi4
#
memory 32 gb

molecule  {
0 1
  S        1.7618360    -1.1877300    -0.0001100
  N       -1.1892720    -1.1162850     0.0000840
  N        1.4363420     1.3812950    -0.0000570
  C       -0.6888070     0.1366280     0.0000400
  C        0.7450636     0.1937732    -0.0000342
  C       -1.4868030     1.2893490     0.0000580
  C       -2.8690220     1.1312400     0.0001290
  C       -3.4040470    -0.1590480     0.0001760
  C       -2.5262420    -1.2439110     0.0001500
  C        3.1506810    -0.1849920    -0.0001670
  C        2.7828300     1.1426020    -0.0001250
  H       -1.0124600     2.2659460     0.0000190
  H       -3.5213850     2.0011240     0.0001460
  H       -4.4778440    -0.3237170     0.0002310
  H       -2.9027010    -2.2653680     0.0001840
  H        4.1496320    -0.6018500    -0.0002240
  H        3.4730500     1.9793660    -0.0001460
units angstrom
no_reorient  #important for SAPT in psi4, default
symmetry c1  #important for SAPT in psi4, default
}

set PROPERTIES_ORIGIN ["COM"]
properties('MP2/aug-cc-pvtz', properties = ['dipole'])
--------------------------------------------------------------------------

    Molecular point group: c1
  Charge       = 0
  Multiplicity = 1
  Basis Set: AUG-CC-PVTZ
    Blend: AUG-CC-PVTZ
  Basis Set: (AUG-CC-PVTZ AUX)
    Blend: AUG-CC-PVTZ-JKFIT

    Orbital Energies [Eh]
    ---------------------

    Doubly Occupied:

       1A    -91.999946     2A    -15.578147     3A    -15.575958
       4A    -11.314524     5A    -11.295691     6A    -11.285103
       7A    -11.270631     8A    -11.267708     9A    -11.264478
      10A    -11.251440    11A    -11.250568    12A     -8.999886
      13A     -6.680646    14A     -6.680163    15A     -6.679513
      16A     -1.281649    17A     -1.253832    18A     -1.097036
      19A     -1.070587    20A     -1.061453    21A     -0.986759
      22A     -0.879969    23A     -0.869823    24A     -0.786207
      25A     -0.768266    26A     -0.706686    27A     -0.679021
      28A     -0.669642    29A     -0.639700    30A     -0.594021
      31A     -0.585603    32A     -0.580018    33A     -0.558779
      34A     -0.533679    35A     -0.531172    36A     -0.503702
      37A     -0.441796    38A     -0.426722    39A     -0.399326
      40A     -0.389478    41A     -0.373627    42A     -0.303430

  @DF-RHF Final Energy:  -813.00263089756254

   => Energetics <=

    Nuclear Repulsion Energy =            627.0191538376317339
    One-Electron Energy =               -2357.3108024260300226
    Two-Electron Energy =                 917.2890176908358626
    Total Energy =                       -813.0026308975625398
  Basis Set: (AUG-CC-PVTZ AUX)
    Blend: AUG-CC-PVTZ-RI
    Molecular point group: c1

    Geometry (in Angstrom), charge = 0, multiplicity = 1:

       Center              X                  Y                   Z               Mass
    ------------   -----------------  -----------------  -----------------  -----------------
         S            1.737717290879    -1.166028873726    -0.000108731052    31.972071174400
         N           -1.213390709121    -1.094583873726     0.000085268948    14.003074004430
         N            1.412223290879     1.402996126274    -0.000055731052    14.003074004430
         C           -0.712925709121     0.158329126274     0.000041268948    12.000000000000
         C            0.720944890879     0.215474326274    -0.000032931052    12.000000000000
         C           -1.510921709121     1.311050126274     0.000059268948    12.000000000000
         C           -2.893140709121     1.152941126274     0.000130268948    12.000000000000
         C           -3.428165709121    -0.137346873726     0.000177268948    12.000000000000
         C           -2.550360709121    -1.222209873726     0.000151268948    12.000000000000
         C            3.126562290879    -0.163290873726    -0.000165731052    12.000000000000
         C            2.758711290879     1.164303126274    -0.000123731052    12.000000000000
         H           -1.036578709121     2.287647126274     0.000020268948     1.007825032230
         H           -3.545503709121     2.022825126274     0.000147268948     1.007825032230
         H           -4.501962709121    -0.302015873726     0.000232268948     1.007825032230
         H           -2.926819709121    -2.243666873726     0.000185268948     1.007825032230
         H            4.125513290879    -0.580148873726    -0.000222731052     1.007825032230
         H            3.448931290879     2.001067126274    -0.000144731052     1.007825032230

  Basis Set: AUG-CC-PVTZ
    Blend: AUG-CC-PVTZ
  Basis Set: (AUG-CC-PVTZ AUX)
    Blend: AUG-CC-PVTZ-JKFIT
	 Reference Energy          =    -813.0026308975625398 [Eh]
	 Singles Energy            =      -0.0000000000000000 [Eh]
	 Same-Spin Energy          =      -0.5269744988458945 [Eh]
	 Opposite-Spin Energy      =      -1.5559829043217470 [Eh]
	 Correlation Energy        =      -2.0829574031676414 [Eh]
	 Total Energy              =    -815.0855883007301372 [Eh]

	 ================> DF-SCS-MP2 Energies <==================
	-----------------------------------------------------------
	 SCS Same-Spin Scale       =       0.3333333333333333 [-]
	 SCS Opposite-Spin Scale   =       1.2000000000000000 [-]
	 SCS Same-Spin Energy      =      -0.1756581662819648 [Eh]
	 SCS Opposite-Spin Energy  =      -1.8671794851860963 [Eh]
	 SCS Correlation Energy    =      -2.0428376514680613 [Eh]
	 SCS Total Energy          =    -815.0454685490306019 [Eh]
	-----------------------------------------------------------

  Dipole Moment: [D]
     X:    -0.6820      Y:     0.1154      Z:    -0.0000     Total:     0.6917

*** Psi4 exiting successfully. Buy a developer a beer!
