                               Psi4 1.4a3.dev225

  ==> Input File <==

--------------------------------------------------------------------------
#psi4
#
memory 32 gb

molecule  {
0 1
  S        1.7618360    -1.1877300    -0.0001100
  N       -1.1892720    -1.1162850     0.0000840
  N        1.4363420     1.3812950    -0.0000570
  C       -0.6888070     0.1366280     0.0000400
  C        0.7203359     0.2335539    -0.0000324
  C       -1.4868030     1.2893490     0.0000580
  C       -2.8690220     1.1312400     0.0001290
  C       -3.4040470    -0.1590480     0.0001760
  C       -2.5262420    -1.2439110     0.0001500
  C        3.1506810    -0.1849920    -0.0001670
  C        2.7828300     1.1426020    -0.0001250
  H       -1.0124600     2.2659460     0.0000190
  H       -3.5213850     2.0011240     0.0001460
  H       -4.4778440    -0.3237170     0.0002310
  H       -2.9027010    -2.2653680     0.0001840
  H        4.1496320    -0.6018500    -0.0002240
  H        3.4730500     1.9793660    -0.0001460
units angstrom
no_reorient  #important for SAPT in psi4, default
symmetry c1  #important for SAPT in psi4, default
}

set PROPERTIES_ORIGIN ["COM"]
properties('MP2/aug-cc-pvtz', properties = ['dipole'])
--------------------------------------------------------------------------

    Molecular point group: c1
  Charge       = 0
  Multiplicity = 1
  Basis Set: AUG-CC-PVTZ
    Blend: AUG-CC-PVTZ
  Basis Set: (AUG-CC-PVTZ AUX)
    Blend: AUG-CC-PVTZ-JKFIT

    Orbital Energies [Eh]
    ---------------------

    Doubly Occupied:

       1A    -91.995882     2A    -15.579622     3A    -15.576720
       4A    -11.315310     5A    -11.294645     6A    -11.286197
       7A    -11.270377     8A    -11.268263     9A    -11.266272
      10A    -11.252543    11A    -11.251286    12A     -8.995225
      13A     -6.675971    14A     -6.675443    15A     -6.674839
      16A     -1.283756    17A     -1.255812    18A     -1.097606
      19A     -1.075214    20A     -1.057551    21A     -0.985331
      22A     -0.883294    23A     -0.871147    24A     -0.788322
      25A     -0.768880    26A     -0.705609    27A     -0.680537
      28A     -0.670477    29A     -0.641480    30A     -0.597708
      31A     -0.588888    32A     -0.581351    33A     -0.555591
      34A     -0.533863    35A     -0.533191    36A     -0.500796
      37A     -0.440790    38A     -0.422992    39A     -0.401598
      40A     -0.391281    41A     -0.372465    42A     -0.302164

  @DF-RHF Final Energy:  -813.00277986062974

   => Energetics <=

    Nuclear Repulsion Energy =            626.7935706438759098
    One-Electron Energy =               -2356.8601262766574109
    Two-Electron Energy =                 917.0637757721517573
    Total Energy =                       -813.0027798606297438
  Basis Set: (AUG-CC-PVTZ AUX)
    Blend: AUG-CC-PVTZ-RI
    Molecular point group: c1

    Geometry (in Angstrom), charge = 0, multiplicity = 1:

       Center              X                  Y                   Z               Mass
    ------------   -----------------  -----------------  -----------------  -----------------
         S            1.739548687823    -1.168975134494    -0.000108864364    31.972071174400
         N           -1.211559312177    -1.097530134494     0.000085135636    14.003074004430
         N            1.414054687823     1.400049865506    -0.000055864364    14.003074004430
         C           -0.711094312177     0.155382865506     0.000041135636    12.000000000000
         C            0.698048587823     0.252308765506    -0.000031264364    12.000000000000
         C           -1.509090312177     1.308103865506     0.000059135636    12.000000000000
         C           -2.891309312177     1.149994865506     0.000130135636    12.000000000000
         C           -3.426334312177    -0.140293134494     0.000177135636    12.000000000000
         C           -2.548529312177    -1.225156134494     0.000151135636    12.000000000000
         C            3.128393687823    -0.166237134494    -0.000165864364    12.000000000000
         C            2.760542687823     1.161356865506    -0.000123864364    12.000000000000
         H           -1.034747312177     2.284700865506     0.000020135636     1.007825032230
         H           -3.543672312177     2.019878865506     0.000147135636     1.007825032230
         H           -4.500131312177    -0.304962134494     0.000232135636     1.007825032230
         H           -2.924988312177    -2.246613134494     0.000185135636     1.007825032230
         H            4.127344687823    -0.583095134494    -0.000222864364     1.007825032230
         H            3.450762687823     1.998120865506    -0.000144864364     1.007825032230

  Basis Set: AUG-CC-PVTZ
    Blend: AUG-CC-PVTZ
  Basis Set: (AUG-CC-PVTZ AUX)
    Blend: AUG-CC-PVTZ-JKFIT
	 Reference Energy          =    -813.0027798606297438 [Eh]
	 Singles Energy            =      -0.0000000000000000 [Eh]
	 Same-Spin Energy          =      -0.5267845731679917 [Eh]
	 Opposite-Spin Energy      =      -1.5558708568850366 [Eh]
	 Correlation Energy        =      -2.0826554300530282 [Eh]
	 Total Energy              =    -815.0854352906827671 [Eh]

	 ================> DF-SCS-MP2 Energies <==================
	-----------------------------------------------------------
	 SCS Same-Spin Scale       =       0.3333333333333333 [-]
	 SCS Opposite-Spin Scale   =       1.2000000000000000 [-]
	 SCS Same-Spin Energy      =      -0.1755948577226639 [Eh]
	 SCS Opposite-Spin Energy  =      -1.8670450282620439 [Eh]
	 SCS Correlation Energy    =      -2.0426398859847077 [Eh]
	 SCS Total Energy          =    -815.0454197466144706 [Eh]
	-----------------------------------------------------------

  Dipole Moment: [D]
     X:    -0.8002      Y:     0.2304      Z:    -0.0000     Total:     0.8327

*** Psi4 exiting successfully. Buy a developer a beer!
