                               Psi4 1.3.2 release

  ==> Input File <==

--------------------------------------------------------------------------
#psi4
#
memory 32 gb

molecule  {
0 1
  S        1.7618360    -1.1877300    -0.0001100
  N       -1.1892720    -1.1162850     0.0000840
  N        1.4363420     1.3812950    -0.0000570
  C       -0.6888070     0.1366280     0.0000400
  C        0.7736644     0.1349641    -0.0000332
  C       -1.4868030     1.2893490     0.0000580
  C       -2.8690220     1.1312400     0.0001290
  C       -3.4040470    -0.1590480     0.0001760
  C       -2.5262420    -1.2439110     0.0001500
  C        3.1506810    -0.1849920    -0.0001670
  C        2.7828300     1.1426020    -0.0001250
  H       -1.0124600     2.2659460     0.0000190
  H       -3.5213850     2.0011240     0.0001460
  H       -4.4778440    -0.3237170     0.0002310
  H       -2.9027010    -2.2653680     0.0001840
  H        4.1496320    -0.6018500    -0.0002240
  H        3.4730500     1.9793660    -0.0001460
units angstrom
no_reorient  #important for SAPT in psi4, default
symmetry c1  #important for SAPT in psi4, default
}

set PROPERTIES_ORIGIN ["COM"]
properties('MP2/aug-cc-pvtz', properties = ['dipole'])
--------------------------------------------------------------------------

    Molecular point group: c1
  Charge       = 0
  Multiplicity = 1
  Basis Set: AUG-CC-PVTZ
    Blend: AUG-CC-PVTZ
  Basis Set: (AUG-CC-PVTZ AUX)
    Blend: AUG-CC-PVTZ-JKFIT

    Orbital Energies [Eh]
    ---------------------

    Doubly Occupied:

       1A    -92.004994     2A    -15.576316     3A    -15.575008
       4A    -11.313523     5A    -11.297342     6A    -11.283778
       7A    -11.271078     8A    -11.267198     9A    -11.261581
      10A    -11.250228    11A    -11.250031    12A     -9.006054
      13A     -6.686935    14A     -6.686307    15A     -6.685676
      16A     -1.278954    17A     -1.250494    18A     -1.096806
      19A     -1.069674    20A     -1.063730    21A     -0.987830
      22A     -0.876392    23A     -0.868245    24A     -0.782577
      25A     -0.768231    26A     -0.707809    27A     -0.677153
      28A     -0.668700    29A     -0.637893    30A     -0.592426
      31A     -0.579000    32A     -0.578558    33A     -0.562328
      34A     -0.534330    35A     -0.526414    36A     -0.507515
      37A     -0.442428    38A     -0.429656    39A     -0.398034
      40A     -0.386134    41A     -0.375172    42A     -0.304252

  @DF-RHF Final Energy:  -812.99401069277326

   => Energetics <=

    Nuclear Repulsion Energy =            627.3758733763658029
    One-Electron Energy =               -2358.0062005682452764
    Two-Electron Energy =                 917.6363164991063286
    Total Energy =                       -812.9940106927732586
  Basis Set: (AUG-CC-PVTZ AUX)
    Blend: AUG-CC-PVTZ-RI
    Molecular point group: c1

    Geometry (in Angstrom), charge = 0, multiplicity = 1:

       Center              X                  Y                   Z               Mass
    ------------   -----------------  -----------------  -----------------  -----------------
         S            1.735599042206    -1.161673320803    -0.000108805114    31.972071174400
         N           -1.215508957794    -1.090228320803     0.000085194886    14.003074004430
         N            1.410105042206     1.407351679197    -0.000055805114    14.003074004430
         C           -0.715043957794     0.162684679197     0.000041194886    12.000000000000
         C            0.747427442206     0.161020779197    -0.000032005114    12.000000000000
         C           -1.513039957794     1.315405679197     0.000059194886    12.000000000000
         C           -2.895258957794     1.157296679197     0.000130194886    12.000000000000
         C           -3.430283957794    -0.132991320803     0.000177194886    12.000000000000
         C           -2.552478957794    -1.217854320803     0.000151194886    12.000000000000
         C            3.124444042206    -0.158935320803    -0.000165805114    12.000000000000
         C            2.756593042206     1.168658679197    -0.000123805114    12.000000000000
         H           -1.038696957794     2.292002679197     0.000020194886     1.007825032230
         H           -3.547621957794     2.027180679197     0.000147194886     1.007825032230
         H           -4.504080957794    -0.297660320803     0.000232194886     1.007825032230
         H           -2.928937957794    -2.239311320803     0.000185194886     1.007825032230
         H            4.123395042206    -0.575793320803    -0.000222805114     1.007825032230
         H            3.446813042206     2.005422679197    -0.000144805114     1.007825032230

  Basis Set: AUG-CC-PVTZ
    Blend: AUG-CC-PVTZ
  Basis Set: (AUG-CC-PVTZ AUX)
    Blend: AUG-CC-PVTZ-JKFIT
	 Reference Energy          =    -812.9940106927732586 [Eh]
	 Singles Energy            =      -0.0000000000000000 [Eh]
	 Same-Spin Energy          =      -0.5277529918237214 [Eh]
	 Opposite-Spin Energy      =      -1.5569586697639171 [Eh]
	 Correlation Energy        =      -2.0847116615876384 [Eh]
	 Total Energy              =    -815.0787223543609343 [Eh]

	 ================> DF-SCS-MP2 Energies <==================
	-----------------------------------------------------------
	 SCS Same-Spin Scale       =       0.3333333333333333 [-]
	 SCS Opposite-Spin Scale   =       1.2000000000000000 [-]
	 SCS Same-Spin Energy      =      -0.1759176639412404 [Eh]
	 SCS Opposite-Spin Energy  =      -1.8683504037167005 [Eh]
	 SCS Correlation Energy    =      -2.0442680676579408 [Eh]
	 SCS Total Energy          =    -815.0382787604312398 [Eh]
	-----------------------------------------------------------

  Dipole Moment: [D]
     X:    -0.5471      Y:    -0.0165      Z:    -0.0000     Total:     0.5473

*** Psi4 exiting successfully. Buy a developer a beer!
