                               Psi4 1.3.2 release

  ==> Input File <==

--------------------------------------------------------------------------
#psi4
#
memory 32 gb

molecule  {
0 1
  S        1.7618360    -1.1877300    -0.0001100
  N       -1.1892720    -1.1162850     0.0000840
  N        1.5145424     1.3320411    -0.0000616
  C       -0.6888070     0.1366280     0.0000400
  C        0.7702180     0.2369850    -0.0000350
  C       -1.4868030     1.2893490     0.0000580
  C       -2.8690220     1.1312400     0.0001290
  C       -3.4040470    -0.1590480     0.0001760
  C       -2.5262420    -1.2439110     0.0001500
  C        3.1506810    -0.1849920    -0.0001670
  C        2.7828300     1.1426020    -0.0001250
  H       -1.0124600     2.2659460     0.0000190
  H       -3.5213850     2.0011240     0.0001460
  H       -4.4778440    -0.3237170     0.0002310
  H       -2.9027010    -2.2653680     0.0001840
  H        4.1496320    -0.6018500    -0.0002240
  H        3.4730500     1.9793660    -0.0001460
units angstrom
no_reorient  #important for SAPT in psi4, default
symmetry c1  #important for SAPT in psi4, default
}

set PROPERTIES_ORIGIN ["COM"]
properties('MP2/aug-cc-pvtz', properties = ['dipole'])
--------------------------------------------------------------------------

    Molecular point group: c1
  Charge       = 0
  Multiplicity = 1
  Basis Set: AUG-CC-PVTZ
    Blend: AUG-CC-PVTZ
  Basis Set: (AUG-CC-PVTZ AUX)
    Blend: AUG-CC-PVTZ-JKFIT

    Orbital Energies [Eh]
    ---------------------

    Doubly Occupied:

       1A    -91.996191     2A    -15.578838     3A    -15.563981
       4A    -11.311643     5A    -11.299719     6A    -11.286143
       7A    -11.268058     8A    -11.262617     9A    -11.260803
      10A    -11.251079    11A    -11.250279    12A     -8.995946
      13A     -6.676624    14A     -6.676180    15A     -6.675593
      16A     -1.302531    17A     -1.265949    18A     -1.096782
      19A     -1.071893    20A     -1.060208    21A     -0.990801
      22A     -0.877246    23A     -0.870038    24A     -0.799947
      25A     -0.765533    26A     -0.708805    27A     -0.683608
      28A     -0.668952    29A     -0.645424    30A     -0.601927
      31A     -0.590243    32A     -0.586849    33A     -0.556425
      34A     -0.541064    35A     -0.530575    36A     -0.500988
      37A     -0.436801    38A     -0.417991    39A     -0.398385
      40A     -0.393071    41A     -0.376382    42A     -0.301639

  @DF-RHF Final Energy:  -813.00275206114941

   => Energetics <=

    Nuclear Repulsion Energy =            628.3799084702408209
    One-Electron Energy =               -2359.9778227193564817
    Two-Electron Energy =                 918.5951621879661388
    Total Energy =                       -813.0027520611494083
  Basis Set: (AUG-CC-PVTZ AUX)
    Blend: AUG-CC-PVTZ-RI
    Molecular point group: c1

    Geometry (in Angstrom), charge = 0, multiplicity = 1:

       Center              X                  Y                   Z               Mass
    ------------   -----------------  -----------------  -----------------  -----------------
         S            1.729095798343    -1.164972467444    -0.000108274245    31.972071174400
         N           -1.222012201657    -1.093527467444     0.000085725755    14.003074004430
         N            1.481802198343     1.354798632556    -0.000059874245    14.003074004430
         C           -0.721547201657     0.159385532556     0.000041725755    12.000000000000
         C            0.737477798343     0.259742532556    -0.000033274245    12.000000000000
         C           -1.519543201657     1.312106532556     0.000059725755    12.000000000000
         C           -2.901762201657     1.153997532556     0.000130725755    12.000000000000
         C           -3.436787201657    -0.136290467444     0.000177725755    12.000000000000
         C           -2.558982201657    -1.221153467444     0.000151725755    12.000000000000
         C            3.117940798343    -0.162234467444    -0.000165274245    12.000000000000
         C            2.750089798343     1.165359532556    -0.000123274245    12.000000000000
         H           -1.045200201657     2.288703532556     0.000020725755     1.007825032230
         H           -3.554125201657     2.023881532556     0.000147725755     1.007825032230
         H           -4.510584201657    -0.300959467444     0.000232725755     1.007825032230
         H           -2.935441201657    -2.242610467444     0.000185725755     1.007825032230
         H            4.116891798343    -0.579092467444    -0.000222274245     1.007825032230
         H            3.440309798343     2.002123532556    -0.000144274245     1.007825032230

  Basis Set: AUG-CC-PVTZ
    Blend: AUG-CC-PVTZ
  Basis Set: (AUG-CC-PVTZ AUX)
    Blend: AUG-CC-PVTZ-JKFIT
	 Reference Energy          =    -813.0027520611494083 [Eh]
	 Singles Energy            =      -0.0000000000000000 [Eh]
	 Same-Spin Energy          =      -0.5267646738890696 [Eh]
	 Opposite-Spin Energy      =      -1.5532338859011747 [Eh]
	 Correlation Energy        =      -2.0799985597902442 [Eh]
	 Total Energy              =    -815.0827506209396915 [Eh]

	 ================> DF-SCS-MP2 Energies <==================
	-----------------------------------------------------------
	 SCS Same-Spin Scale       =       0.3333333333333333 [-]
	 SCS Opposite-Spin Scale   =       1.2000000000000000 [-]
	 SCS Same-Spin Energy      =      -0.1755882246296898 [Eh]
	 SCS Opposite-Spin Energy  =      -1.8638806630814095 [Eh]
	 SCS Correlation Energy    =      -2.0394688877110996 [Eh]
	 SCS Total Energy          =    -815.0422209488605176 [Eh]
	-----------------------------------------------------------

  Dipole Moment: [D]
     X:    -0.8836      Y:     0.3341      Z:    -0.0000     Total:     0.9446

*** Psi4 exiting successfully. Buy a developer a beer!
