                               Psi4 1.3.2 release

  ==> Input File <==

--------------------------------------------------------------------------
#psi4
#
memory 32 gb

molecule  {
0 1
  S        1.7618360    -1.1877300    -0.0001100
  N       -1.1892720    -1.1162850     0.0000840
  N        1.4363420     1.3812950    -0.0000570
  C       -0.6888070     0.1366280     0.0000400
  C        0.7702180     0.2369850    -0.0000350
  C       -1.4868030     1.2893490     0.0000580
  C       -2.8690220     1.1312400     0.0001290
  C       -3.4040470    -0.1590480     0.0001760
  C       -2.5262420    -1.2439110     0.0001500
  C        3.1506810    -0.1849920    -0.0001670
  C        2.7828300     1.1426020    -0.0001250
  H       -1.0124600     2.2659460     0.0000190
  H       -3.5213850     2.0011240     0.0001460
  H       -4.4778440    -0.3237170     0.0002310
  H       -2.9027010    -2.2653680     0.0001840
  H        4.1496320    -0.6018500    -0.0002240
  H        3.6003145     2.1336506    -0.0001499
units angstrom
no_reorient  #important for SAPT in psi4, default
symmetry c1  #important for SAPT in psi4, default
}

set PROPERTIES_ORIGIN ["COM"]
properties('MP2/aug-cc-pvtz', properties = ['dipole'])
--------------------------------------------------------------------------

    Molecular point group: c1
  Charge       = 0
  Multiplicity = 1
  Basis Set: AUG-CC-PVTZ
    Blend: AUG-CC-PVTZ
  Basis Set: (AUG-CC-PVTZ AUX)
    Blend: AUG-CC-PVTZ-JKFIT

    Orbital Energies [Eh]
    ---------------------

    Doubly Occupied:

       1A    -91.997054     2A    -15.579623     3A    -15.576597
       4A    -11.315552     5A    -11.298221     6A    -11.290599
       7A    -11.286060     8A    -11.268098     9A    -11.266721
      10A    -11.251948    11A    -11.250579    12A     -8.997042
      13A     -6.677805    14A     -6.677252    15A     -6.676577
      16A     -1.288759    17A     -1.261140    18A     -1.097138
      19A     -1.068681    20A     -1.063327    21A     -0.982466
      22A     -0.875839    23A     -0.869157    24A     -0.788338
      25A     -0.758391    26A     -0.707750    27A     -0.671295
      28A     -0.669359    29A     -0.632795    30A     -0.592739
      31A     -0.582630    32A     -0.573379    33A     -0.558996
      34A     -0.537010    35A     -0.529872    36A     -0.492041
      37A     -0.443864    38A     -0.425666    39A     -0.399655
      40A     -0.393505    41A     -0.372354    42A     -0.307894

  @DF-RHF Final Energy:  -812.98669801706285

   => Energetics <=

    Nuclear Repulsion Energy =            625.9706458002352747
    One-Electron Energy =               -2355.2071536900639330
    Two-Electron Energy =                 916.2498098727659226
    Total Energy =                       -812.9866980170628494
  Basis Set: (AUG-CC-PVTZ AUX)
    Blend: AUG-CC-PVTZ-RI
    Molecular point group: c1

    Geometry (in Angstrom), charge = 0, multiplicity = 1:

       Center              X                  Y                   Z               Mass
    ------------   -----------------  -----------------  -----------------  -----------------
         S            1.735062683879    -1.170188927899    -0.000108647543    31.972071174400
         N           -1.216045316121    -1.098743927899     0.000085352457    14.003074004430
         N            1.409568683879     1.398836072101    -0.000055647543    14.003074004430
         C           -0.715580316121     0.154169072101     0.000041352457    12.000000000000
         C            0.743444683879     0.254526072101    -0.000033647543    12.000000000000
         C           -1.513576316121     1.306890072101     0.000059352457    12.000000000000
         C           -2.895795316121     1.148781072101     0.000130352457    12.000000000000
         C           -3.430820316121    -0.141506927899     0.000177352457    12.000000000000
         C           -2.553015316121    -1.226369927899     0.000151352457    12.000000000000
         C            3.123907683879    -0.167450927899    -0.000165647543    12.000000000000
         C            2.756056683879     1.160143072101    -0.000123647543    12.000000000000
         H           -1.039233316121     2.283487072101     0.000020352457     1.007825032230
         H           -3.548158316121     2.018665072101     0.000147352457     1.007825032230
         H           -4.504617316121    -0.306175927899     0.000232352457     1.007825032230
         H           -2.929474316121    -2.247826927899     0.000185352457     1.007825032230
         H            4.122858683879    -0.584308927899    -0.000222647543     1.007825032230
         H            3.573541183879     2.151191672101    -0.000148547543     1.007825032230

  Basis Set: AUG-CC-PVTZ
    Blend: AUG-CC-PVTZ
  Basis Set: (AUG-CC-PVTZ AUX)
    Blend: AUG-CC-PVTZ-JKFIT
	 Reference Energy          =    -812.9866980170628494 [Eh]
	 Singles Energy            =      -0.0000000000000000 [Eh]
	 Same-Spin Energy          =      -0.5259464836353731 [Eh]
	 Opposite-Spin Energy      =      -1.5557701576040688 [Eh]
	 Correlation Energy        =      -2.0817166412394421 [Eh]
	 Total Energy              =    -815.0684146583023448 [Eh]

	 ================> DF-SCS-MP2 Energies <==================
	-----------------------------------------------------------
	 SCS Same-Spin Scale       =       0.3333333333333333 [-]
	 SCS Opposite-Spin Scale   =       1.2000000000000000 [-]
	 SCS Same-Spin Energy      =      -0.1753154945451244 [Eh]
	 SCS Opposite-Spin Energy  =      -1.8669241891248824 [Eh]
	 SCS Correlation Energy    =      -2.0422396836700067 [Eh]
	 SCS Total Energy          =    -815.0289377007328540 [Eh]
	-----------------------------------------------------------

  Dipole Moment: [D]
     X:    -0.8842      Y:     0.1614      Z:    -0.0000     Total:     0.8989

*** Psi4 exiting successfully. Buy a developer a beer!
