                               Psi4 1.3.2 release

  ==> Input File <==

--------------------------------------------------------------------------
#psi4
#
memory 32 gb

molecule  {
0 1
  S        1.7618360    -1.1877300    -0.0001100
  N       -1.1892720    -1.1162850     0.0000840
  N        1.4363420     1.3812950    -0.0000570
  C       -0.6888070     0.1366280     0.0000400
  C        0.8708355     0.4098321    -0.0000383
  C       -1.4868030     1.2893490     0.0000580
  C       -2.8690220     1.1312400     0.0001290
  C       -3.4040470    -0.1590480     0.0001760
  C       -2.5262420    -1.2439110     0.0001500
  C        3.1506810    -0.1849920    -0.0001670
  C        2.7828300     1.1426020    -0.0001250
  H       -1.0124600     2.2659460     0.0000190
  H       -3.5213850     2.0011240     0.0001460
  H       -4.4778440    -0.3237170     0.0002310
  H       -2.9027010    -2.2653680     0.0001840
  H        4.1496320    -0.6018500    -0.0002240
  H        3.4730500     1.9793660    -0.0001460
units angstrom
no_reorient  #important for SAPT in psi4, default
symmetry c1  #important for SAPT in psi4, default
}

set PROPERTIES_ORIGIN ["COM"]
properties('MP2/aug-cc-pvtz', properties = ['dipole'])
--------------------------------------------------------------------------

    Molecular point group: c1
  Charge       = 0
  Multiplicity = 1
  Basis Set: AUG-CC-PVTZ
    Blend: AUG-CC-PVTZ
  Basis Set: (AUG-CC-PVTZ AUX)
    Blend: AUG-CC-PVTZ-JKFIT

    Orbital Energies [Eh]
    ---------------------

    Doubly Occupied:

       1A    -91.976344     2A    -15.581053     3A    -15.563629
       4A    -11.306313     5A    -11.301648     6A    -11.286487
       7A    -11.271204     8A    -11.268981     9A    -11.266852
      10A    -11.250727    11A    -11.247492    12A     -8.976871
      13A     -6.657677    14A     -6.656816    15A     -6.656126
      16A     -1.358605    17A     -1.264440    18A     -1.095486
      19A     -1.079159    20A     -1.051600    21A     -0.979946
      22A     -0.870100    23A     -0.863612    24A     -0.811506
      25A     -0.753996    26A     -0.711482    27A     -0.683745
      28A     -0.666707    29A     -0.640867    30A     -0.606985
      31A     -0.602193    32A     -0.588615    33A     -0.558064
      34A     -0.544621    35A     -0.528452    36A     -0.497862
      37A     -0.444149    38A     -0.415650    39A     -0.401135
      40A     -0.392666    41A     -0.363530    42A     -0.315941

  @DF-RHF Final Energy:  -812.95923005148359

   => Energetics <=

    Nuclear Repulsion Energy =            627.1990624693773952
    One-Electron Energy =               -2357.5979165083867883
    Two-Electron Energy =                 917.4396239875258061
    Total Energy =                       -812.9592300514835870
  Basis Set: (AUG-CC-PVTZ AUX)
    Blend: AUG-CC-PVTZ-RI
    Molecular point group: c1

    Geometry (in Angstrom), charge = 0, multiplicity = 1:

       Center              X                  Y                   Z               Mass
    ------------   -----------------  -----------------  -----------------  -----------------
         S            1.728402301080    -1.182030750533    -0.000108427395    31.972071174400
         N           -1.222705698920    -1.110585750533     0.000085572605    14.003074004430
         N            1.402908301080     1.386994249467    -0.000055427395    14.003074004430
         C           -0.722240698920     0.142327249467     0.000041572605    12.000000000000
         C            0.837401801080     0.415531349467    -0.000036727395    12.000000000000
         C           -1.520236698920     1.295048249467     0.000059572605    12.000000000000
         C           -2.902455698920     1.136939249467     0.000130572605    12.000000000000
         C           -3.437480698920    -0.153348750533     0.000177572605    12.000000000000
         C           -2.559675698920    -1.238211750533     0.000151572605    12.000000000000
         C            3.117247301080    -0.179292750533    -0.000165427395    12.000000000000
         C            2.749396301080     1.148301249467    -0.000123427395    12.000000000000
         H           -1.045893698920     2.271645249467     0.000020572605     1.007825032230
         H           -3.554818698920     2.006823249467     0.000147572605     1.007825032230
         H           -4.511277698920    -0.318017750533     0.000232572605     1.007825032230
         H           -2.936134698920    -2.259668750533     0.000185572605     1.007825032230
         H            4.116198301080    -0.596150750533    -0.000222427395     1.007825032230
         H            3.439616301080     1.985065249467    -0.000144427395     1.007825032230

  Basis Set: AUG-CC-PVTZ
    Blend: AUG-CC-PVTZ
  Basis Set: (AUG-CC-PVTZ AUX)
    Blend: AUG-CC-PVTZ-JKFIT
	 Reference Energy          =    -812.9592300514835870 [Eh]
	 Singles Energy            =      -0.0000000000000000 [Eh]
	 Same-Spin Energy          =      -0.5205236048884782 [Eh]
	 Opposite-Spin Energy      =      -1.5476050431949551 [Eh]
	 Correlation Energy        =      -2.0681286480834333 [Eh]
	 Total Energy              =    -815.0273586995670030 [Eh]

	 ================> DF-SCS-MP2 Energies <==================
	-----------------------------------------------------------
	 SCS Same-Spin Scale       =       0.3333333333333333 [-]
	 SCS Opposite-Spin Scale   =       1.2000000000000000 [-]
	 SCS Same-Spin Energy      =      -0.1735078682961594 [Eh]
	 SCS Opposite-Spin Energy  =      -1.8571260518339461 [Eh]
	 SCS Correlation Energy    =      -2.0306339201301054 [Eh]
	 SCS Total Energy          =    -814.9898639716136586 [Eh]
	-----------------------------------------------------------

  Dipole Moment: [D]
     X:    -1.2034      Y:     0.8039      Z:     0.0000     Total:     1.4472

*** Psi4 exiting successfully. Buy a developer a beer!
