                               Psi4 1.3.2 release

  ==> Input File <==

--------------------------------------------------------------------------
#psi4
#
memory 32 gb

molecule  {
0 1
  S        1.7115101    -1.2214691    -0.0001079
  N       -1.1892720    -1.1162850     0.0000840
  N        1.4363420     1.3812950    -0.0000570
  C       -0.6888070     0.1366280     0.0000400
  C        0.7702180     0.2369850    -0.0000350
  C       -1.4868030     1.2893490     0.0000580
  C       -2.8690220     1.1312400     0.0001290
  C       -3.4040470    -0.1590480     0.0001760
  C       -2.5262420    -1.2439110     0.0001500
  C        3.1506810    -0.1849920    -0.0001670
  C        2.7828300     1.1426020    -0.0001250
  H       -1.0124600     2.2659460     0.0000190
  H       -3.5213850     2.0011240     0.0001460
  H       -4.4778440    -0.3237170     0.0002310
  H       -2.9027010    -2.2653680     0.0001840
  H        4.1496320    -0.6018500    -0.0002240
  H        3.4730500     1.9793660    -0.0001460
units angstrom
no_reorient  #important for SAPT in psi4, default
symmetry c1  #important for SAPT in psi4, default
}

set PROPERTIES_ORIGIN ["COM"]
properties('MP2/aug-cc-pvtz', properties = ['dipole'])
--------------------------------------------------------------------------

    Molecular point group: c1
  Charge       = 0
  Multiplicity = 1
  Basis Set: AUG-CC-PVTZ
    Blend: AUG-CC-PVTZ
  Basis Set: (AUG-CC-PVTZ AUX)
    Blend: AUG-CC-PVTZ-JKFIT

    Orbital Energies [Eh]
    ---------------------

    Doubly Occupied:

       1A    -91.996817     2A    -15.579810     3A    -15.573958
       4A    -11.315920     5A    -11.297045     6A    -11.286127
       7A    -11.271724     8A    -11.268467     9A    -11.267985
      10A    -11.252132    11A    -11.250443    12A     -8.995643
      13A     -6.676365    14A     -6.675713    15A     -6.675139
      16A     -1.286292    17A     -1.259678    18A     -1.097114
      19A     -1.068046    20A     -1.051881    21A     -0.987749
      22A     -0.877361    23A     -0.869489    24A     -0.792699
      25A     -0.764748    26A     -0.703955    27A     -0.679622
      28A     -0.669012    29A     -0.639130    30A     -0.593590
      31A     -0.588713    32A     -0.580312    33A     -0.557063
      34A     -0.534149    35A     -0.527796    36A     -0.499372
      37A     -0.444761    38A     -0.424787    39A     -0.397652
      40A     -0.389692    41A     -0.373004    42A     -0.308578

  @DF-RHF Final Energy:  -813.00669935847645

   => Energetics <=

    Nuclear Repulsion Energy =            626.0904766183296033
    One-Electron Energy =               -2355.4952894081648083
    Two-Electron Energy =                 916.3981134313587518
    Total Energy =                       -813.0066993584764532
  Basis Set: (AUG-CC-PVTZ AUX)
    Blend: AUG-CC-PVTZ-RI
    Molecular point group: c1

    Geometry (in Angstrom), charge = 0, multiplicity = 1:

       Center              X                  Y                   Z               Mass
    ------------   -----------------  -----------------  -----------------  -----------------
         S            1.695459090865    -1.196310687992    -0.000106986190    31.972071174400
         N           -1.205323009135    -1.091126587992     0.000084913810    14.003074004430
         N            1.420290990865     1.406453412008    -0.000056086190    14.003074004430
         C           -0.704858009135     0.161786412008     0.000040913810    12.000000000000
         C            0.754166990865     0.262143412008    -0.000034086190    12.000000000000
         C           -1.502854009135     1.314507412008     0.000058913810    12.000000000000
         C           -2.885073009135     1.156398412008     0.000129913810    12.000000000000
         C           -3.420098009135    -0.133889587992     0.000176913810    12.000000000000
         C           -2.542293009135    -1.218752587992     0.000150913810    12.000000000000
         C            3.134629990865    -0.159833587992    -0.000166086190    12.000000000000
         C            2.766778990865     1.167760412008    -0.000124086190    12.000000000000
         H           -1.028511009135     2.291104412008     0.000019913810     1.007825032230
         H           -3.537436009135     2.026282412008     0.000146913810     1.007825032230
         H           -4.493895009135    -0.298558587992     0.000231913810     1.007825032230
         H           -2.918752009135    -2.240209587992     0.000184913810     1.007825032230
         H            4.133580990865    -0.576691587992    -0.000223086190     1.007825032230
         H            3.456998990865     2.004524412008    -0.000145086190     1.007825032230

  Basis Set: AUG-CC-PVTZ
    Blend: AUG-CC-PVTZ
  Basis Set: (AUG-CC-PVTZ AUX)
    Blend: AUG-CC-PVTZ-JKFIT
	 Reference Energy          =    -813.0066993584764532 [Eh]
	 Singles Energy            =      -0.0000000000000000 [Eh]
	 Same-Spin Energy          =      -0.5249197554775752 [Eh]
	 Opposite-Spin Energy      =      -1.5543795268680203 [Eh]
	 Correlation Energy        =      -2.0792992823455956 [Eh]
	 Total Energy              =    -815.0859986408220266 [Eh]

	 ================> DF-SCS-MP2 Energies <==================
	-----------------------------------------------------------
	 SCS Same-Spin Scale       =       0.3333333333333333 [-]
	 SCS Opposite-Spin Scale   =       1.2000000000000000 [-]
	 SCS Same-Spin Energy      =      -0.1749732518258584 [Eh]
	 SCS Opposite-Spin Energy  =      -1.8652554322416242 [Eh]
	 SCS Correlation Energy    =      -2.0402286840674826 [Eh]
	 SCS Total Energy          =    -815.0469280425439820 [Eh]
	-----------------------------------------------------------

  Dipole Moment: [D]
     X:    -0.8861      Y:     0.2176      Z:    -0.0000     Total:     0.9124

*** Psi4 exiting successfully. Buy a developer a beer!
