                               Psi4 1.4a3.dev225

  ==> Input File <==

--------------------------------------------------------------------------
#psi4
#
memory 32 gb

molecule  {
0 1
  S        1.7618360    -1.1877300    -0.0001100
  N       -1.1892720    -1.1162850     0.0000840
  N        1.4363420     1.3812950    -0.0000570
  C       -0.6888070     0.1366280     0.0000400
  C        0.7816433     0.2205697    -0.0000359
  C       -1.4868030     1.2893490     0.0000580
  C       -2.8690220     1.1312400     0.0001290
  C       -3.4040470    -0.1590480     0.0001760
  C       -2.5262420    -1.2439110     0.0001500
  C        3.1506810    -0.1849920    -0.0001670
  C        2.7828300     1.1426020    -0.0001250
  H       -1.0124600     2.2659460     0.0000190
  H       -3.5213850     2.0011240     0.0001460
  H       -4.4778440    -0.3237170     0.0002310
  H       -2.9027010    -2.2653680     0.0001840
  H        4.1496320    -0.6018500    -0.0002240
  H        3.4730500     1.9793660    -0.0001460
units angstrom
no_reorient  #important for SAPT in psi4, default
symmetry c1  #important for SAPT in psi4, default
}

set PROPERTIES_ORIGIN ["COM"]
properties('MP2/aug-cc-pvtz', properties = ['dipole'])
--------------------------------------------------------------------------

    Molecular point group: c1
  Charge       = 0
  Multiplicity = 1
  Basis Set: AUG-CC-PVTZ
    Blend: AUG-CC-PVTZ
  Basis Set: (AUG-CC-PVTZ AUX)
    Blend: AUG-CC-PVTZ-JKFIT

    Orbital Energies [Eh]
    ---------------------

    Doubly Occupied:

       1A    -91.997395     2A    -15.578274     3A    -15.574103
       4A    -11.313505     5A    -11.297798     6A    -11.285023
       7A    -11.270258     8A    -11.267330     9A    -11.264320
      10A    -11.250897    11A    -11.249647    12A     -8.997710
      13A     -6.678488    14A     -6.677946    15A     -6.677262
      16A     -1.286459    17A     -1.259571    18A     -1.096295
      19A     -1.066821    20A     -1.063949    21A     -0.987144
      22A     -0.875475    23A     -0.868707    24A     -0.790049
      25A     -0.766230    26A     -0.707703    27A     -0.679410
      28A     -0.668583    29A     -0.638857    30A     -0.592380
      31A     -0.586063    32A     -0.581000    33A     -0.559747
      34A     -0.536165    35A     -0.527875    36A     -0.504178
      37A     -0.445242    38A     -0.425923    39A     -0.397720
      40A     -0.392051    41A     -0.371863    42A     -0.307671

  @DF-RHF Final Energy:  -813.00878757682460

   => Energetics <=

    Nuclear Repulsion Energy =            627.0585500537838470
    One-Electron Energy =               -2357.4085023069360432
    Two-Electron Energy =                 917.3411646763275940
    Total Energy =                       -813.0087875768246022
  Basis Set: (AUG-CC-PVTZ AUX)
    Blend: AUG-CC-PVTZ-RI
    Molecular point group: c1

    Geometry (in Angstrom), charge = 0, multiplicity = 1:

       Center              X                  Y                   Z               Mass
    ------------   -----------------  -----------------  -----------------  -----------------
         S            1.735008104388    -1.168013491309    -0.000108605145    31.972071174400
         N           -1.216099895612    -1.096568491309     0.000085394855    14.003074004430
         N            1.409514104388     1.401011508691    -0.000055605145    14.003074004430
         C           -0.715634895612     0.156344508691     0.000041394855    12.000000000000
         C            0.754815404388     0.240286208691    -0.000034505145    12.000000000000
         C           -1.513630895612     1.309065508691     0.000059394855    12.000000000000
         C           -2.895849895612     1.150956508691     0.000130394855    12.000000000000
         C           -3.430874895612    -0.139331491309     0.000177394855    12.000000000000
         C           -2.553069895612    -1.224194491309     0.000151394855    12.000000000000
         C            3.123853104388    -0.165275491309    -0.000165605145    12.000000000000
         C            2.756002104388     1.162318508691    -0.000123605145    12.000000000000
         H           -1.039287895612     2.285662508691     0.000020394855     1.007825032230
         H           -3.548212895612     2.020840508691     0.000147394855     1.007825032230
         H           -4.504671895612    -0.304000491309     0.000232394855     1.007825032230
         H           -2.929528895612    -2.245651491309     0.000185394855     1.007825032230
         H            4.122804104388    -0.582133491309    -0.000222605145     1.007825032230
         H            3.446222104388     1.999082508691    -0.000144605145     1.007825032230

  Basis Set: AUG-CC-PVTZ
    Blend: AUG-CC-PVTZ
  Basis Set: (AUG-CC-PVTZ AUX)
    Blend: AUG-CC-PVTZ-JKFIT
	 Reference Energy          =    -813.0087875768246022 [Eh]
	 Singles Energy            =      -0.0000000000000000 [Eh]
	 Same-Spin Energy          =      -0.5254602907043631 [Eh]
	 Opposite-Spin Energy      =      -1.5537335532451422 [Eh]
	 Correlation Energy        =      -2.0791938439495050 [Eh]
	 Total Energy              =    -815.0879814207740992 [Eh]

	 ================> DF-SCS-MP2 Energies <==================
	-----------------------------------------------------------
	 SCS Same-Spin Scale       =       0.3333333333333333 [-]
	 SCS Opposite-Spin Scale   =       1.2000000000000000 [-]
	 SCS Same-Spin Energy      =      -0.1751534302347877 [Eh]
	 SCS Opposite-Spin Energy  =      -1.8644802638941704 [Eh]
	 SCS Correlation Energy    =      -2.0396336941289581 [Eh]
	 SCS Total Energy          =    -815.0484212709535541 [Eh]
	-----------------------------------------------------------

  Dipole Moment: [D]
     X:    -0.7483      Y:     0.1420      Z:    -0.0000     Total:     0.7617

*** Psi4 exiting successfully. Buy a developer a beer!
