                               Psi4 1.3.2 release

  ==> Input File <==

--------------------------------------------------------------------------
#psi4
#
memory 32 gb

molecule  {
0 1
  S        1.7618360    -1.1877300    -0.0001100
  N       -1.1892720    -1.1162850     0.0000840
  N        1.4363420     1.3812950    -0.0000570
  C       -0.6888070     0.1366280     0.0000400
  C        0.7702180     0.2369850    -0.0000350
  C       -1.4868030     1.2893490     0.0000580
  C       -2.8690220     1.1312400     0.0001290
  C       -3.4040470    -0.1590480     0.0001760
  C       -2.5262420    -1.2439110     0.0001500
  C        3.1506810    -0.1849920    -0.0001670
  C        2.6911178     1.1137081    -0.0001210
  H       -1.0124600     2.2659460     0.0000190
  H       -3.5213850     2.0011240     0.0001460
  H       -4.4778440    -0.3237170     0.0002310
  H       -2.9027010    -2.2653680     0.0001840
  H        4.1496320    -0.6018500    -0.0002240
  H        3.4730500     1.9793660    -0.0001460
units angstrom
no_reorient  #important for SAPT in psi4, default
symmetry c1  #important for SAPT in psi4, default
}

set PROPERTIES_ORIGIN ["COM"]
properties('MP2/aug-cc-pvtz', properties = ['dipole'])
--------------------------------------------------------------------------

    Molecular point group: c1
  Charge       = 0
  Multiplicity = 1
  Basis Set: AUG-CC-PVTZ
    Blend: AUG-CC-PVTZ
  Basis Set: (AUG-CC-PVTZ AUX)
    Blend: AUG-CC-PVTZ-JKFIT

    Orbital Energies [Eh]
    ---------------------

    Doubly Occupied:

       1A    -91.998017     2A    -15.578422     3A    -15.571127
       4A    -11.314907     5A    -11.297418     6A    -11.285696
       7A    -11.270245     8A    -11.267893     9A    -11.261850
      10A    -11.251247    11A    -11.250206    12A     -8.997817
      13A     -6.678482    14A     -6.678067    15A     -6.677439
      16A     -1.309981    17A     -1.265917    18A     -1.097036
      19A     -1.072385    20A     -1.068768    21A     -0.983602
      22A     -0.875807    23A     -0.869199    24A     -0.798209
      25A     -0.760766    26A     -0.714866    27A     -0.677674
      28A     -0.669567    29A     -0.637082    30A     -0.592558
      31A     -0.589750    32A     -0.587075    33A     -0.563500
      34A     -0.541609    35A     -0.529373    36A     -0.485851
      37A     -0.446557    38A     -0.427505    39A     -0.398956
      40A     -0.397713    41A     -0.375367    42A     -0.301885

  @DF-RHF Final Energy:  -812.99669505461156

   => Energetics <=

    Nuclear Repulsion Energy =            629.2227004369394763
    One-Electron Energy =               -2361.6040094289546687
    Two-Electron Energy =                 919.3846139374036284
    Total Energy =                       -812.9966950546115640
  Basis Set: (AUG-CC-PVTZ AUX)
    Blend: AUG-CC-PVTZ-RI
    Molecular point group: c1

    Geometry (in Angstrom), charge = 0, multiplicity = 1:

       Center              X                  Y                   Z               Mass
    ------------   -----------------  -----------------  -----------------  -----------------
         S            1.742646732416    -1.167089294157    -0.000108968052    31.972071174400
         N           -1.208461267584    -1.095644294157     0.000085031948    14.003074004430
         N            1.417152732416     1.401935705843    -0.000055968052    14.003074004430
         C           -0.707996267584     0.157268705843     0.000041031948    12.000000000000
         C            0.751028732416     0.257625705843    -0.000033968052    12.000000000000
         C           -1.505992267584     1.309989705843     0.000059031948    12.000000000000
         C           -2.888211267584     1.151880705843     0.000130031948    12.000000000000
         C           -3.423236267584    -0.138407294157     0.000177031948    12.000000000000
         C           -2.545431267584    -1.223270294157     0.000151031948    12.000000000000
         C            3.131491732416    -0.164351294157    -0.000165968052    12.000000000000
         C            2.671928532416     1.134348805843    -0.000119968052    12.000000000000
         H           -1.031649267584     2.286586705843     0.000020031948     1.007825032230
         H           -3.540574267584     2.021764705843     0.000147031948     1.007825032230
         H           -4.497033267584    -0.303076294157     0.000232031948     1.007825032230
         H           -2.921890267584    -2.244727294157     0.000185031948     1.007825032230
         H            4.130442732416    -0.581209294157    -0.000222968052     1.007825032230
         H            3.453860732416     2.000006705843    -0.000144968052     1.007825032230

  Basis Set: AUG-CC-PVTZ
    Blend: AUG-CC-PVTZ
  Basis Set: (AUG-CC-PVTZ AUX)
    Blend: AUG-CC-PVTZ-JKFIT
	 Reference Energy          =    -812.9966950546115640 [Eh]
	 Singles Energy            =      -0.0000000000000000 [Eh]
	 Same-Spin Energy          =      -0.5268411790437584 [Eh]
	 Opposite-Spin Energy      =      -1.5540128186011977 [Eh]
	 Correlation Energy        =      -2.0808539976449563 [Eh]
	 Total Energy              =    -815.0775490522564724 [Eh]

	 ================> DF-SCS-MP2 Energies <==================
	-----------------------------------------------------------
	 SCS Same-Spin Scale       =       0.3333333333333333 [-]
	 SCS Opposite-Spin Scale   =       1.2000000000000000 [-]
	 SCS Same-Spin Energy      =      -0.1756137263479194 [Eh]
	 SCS Opposite-Spin Energy  =      -1.8648153823214371 [Eh]
	 SCS Correlation Energy    =      -2.0404291086693567 [Eh]
	 SCS Total Energy          =    -815.0371241632809642 [Eh]
	-----------------------------------------------------------

  Dipole Moment: [D]
     X:    -0.7745      Y:     0.1004      Z:    -0.0000     Total:     0.7809

*** Psi4 exiting successfully. Buy a developer a beer!
