                               Psi4 1.4a3.dev225

  ==> Input File <==

--------------------------------------------------------------------------
#psi4
#
memory 32 gb

molecule  {
0 1
  S        1.7618360    -1.1877300    -0.0001100
  N       -1.1892720    -1.1162850     0.0000840
  N        1.4363420     1.3812950    -0.0000570
  C       -0.6888070     0.1366280     0.0000400
  C        0.7702180     0.2369850    -0.0000350
  C       -1.4868030     1.2893490     0.0000580
  C       -2.8690220     1.1312400     0.0001290
  C       -3.4040470    -0.1590480     0.0001760
  C       -2.4764683    -1.2391596     0.0001475
  C        3.1506810    -0.1849920    -0.0001670
  C        2.7828300     1.1426020    -0.0001250
  H       -1.0124600     2.2659460     0.0000190
  H       -3.5213850     2.0011240     0.0001460
  H       -4.4778440    -0.3237170     0.0002310
  H       -2.9027010    -2.2653680     0.0001840
  H        4.1496320    -0.6018500    -0.0002240
  H        3.4730500     1.9793660    -0.0001460
units angstrom
no_reorient  #important for SAPT in psi4, default
symmetry c1  #important for SAPT in psi4, default
}

set PROPERTIES_ORIGIN ["COM"]
properties('MP2/aug-cc-pvtz', properties = ['dipole'])
--------------------------------------------------------------------------

    Molecular point group: c1
  Charge       = 0
  Multiplicity = 1
  Basis Set: AUG-CC-PVTZ
    Blend: AUG-CC-PVTZ
  Basis Set: (AUG-CC-PVTZ AUX)
    Blend: AUG-CC-PVTZ-JKFIT

    Orbital Energies [Eh]
    ---------------------

    Doubly Occupied:

       1A    -91.995735     2A    -15.575982     3A    -15.573683
       4A    -11.313726     5A    -11.297141     6A    -11.286286
       7A    -11.270153     8A    -11.266769     9A    -11.264768
      10A    -11.253566    11A    -11.249998    12A     -8.995774
      13A     -6.676543    14A     -6.675996    15A     -6.675330
      16A     -1.292691    17A     -1.268701    18A     -1.098535
      19A     -1.067806    20A     -1.063157    21A     -0.984177
      22A     -0.879753    23A     -0.866313    24A     -0.791136
      25A     -0.766587    26A     -0.707103    27A     -0.680503
      28A     -0.672873    29A     -0.635819    30A     -0.591148
      31A     -0.588265    32A     -0.583764    33A     -0.560114
      34A     -0.539463    35A     -0.530940    36A     -0.502479
      37A     -0.442254    38A     -0.422841    39A     -0.399004
      40A     -0.395389    41A     -0.373148    42A     -0.304472

  @DF-RHF Final Energy:  -813.00799847557846

   => Energetics <=

    Nuclear Repulsion Energy =            627.7586195930153963
    One-Electron Energy =               -2358.7734667678300866
    Two-Electron Energy =                 918.0068486992363432
    Total Energy =                       -813.0079984755784608
  Basis Set: (AUG-CC-PVTZ AUX)
    Blend: AUG-CC-PVTZ-RI
    Molecular point group: c1

    Geometry (in Angstrom), charge = 0, multiplicity = 1:

       Center              X                  Y                   Z               Mass
    ------------   -----------------  -----------------  -----------------  -----------------
         S            1.732167923435    -1.169581151450    -0.000108486645    31.972071174400
         N           -1.218940076565    -1.098136151450     0.000085513355    14.003074004430
         N            1.406673923435     1.399443848550    -0.000055486645    14.003074004430
         C           -0.718475076565     0.154776848550     0.000041513355    12.000000000000
         C            0.740549923435     0.255133848550    -0.000033486645    12.000000000000
         C           -1.516471076565     1.307497848550     0.000059513355    12.000000000000
         C           -2.898690076565     1.149388848550     0.000130513355    12.000000000000
         C           -3.433715076565    -0.140899151450     0.000177513355    12.000000000000
         C           -2.506136376565    -1.221010751450     0.000149013355    12.000000000000
         C            3.121012923435    -0.166843151450    -0.000165486645    12.000000000000
         C            2.753161923435     1.160750848550    -0.000123486645    12.000000000000
         H           -1.042128076565     2.284094848550     0.000020513355     1.007825032230
         H           -3.551053076565     2.019272848550     0.000147513355     1.007825032230
         H           -4.507512076565    -0.305568151450     0.000232513355     1.007825032230
         H           -2.932369076565    -2.247219151450     0.000185513355     1.007825032230
         H            4.119963923435    -0.583701151450    -0.000222486645     1.007825032230
         H            3.443381923435     1.997514848550    -0.000144486645     1.007825032230

  Basis Set: AUG-CC-PVTZ
    Blend: AUG-CC-PVTZ
  Basis Set: (AUG-CC-PVTZ AUX)
    Blend: AUG-CC-PVTZ-JKFIT
	 Reference Energy          =    -813.0079984755784608 [Eh]
	 Singles Energy            =      -0.0000000000000000 [Eh]
	 Same-Spin Energy          =      -0.5249705164251661 [Eh]
	 Opposite-Spin Energy      =      -1.5527261876819289 [Eh]
	 Correlation Energy        =      -2.0776967041070948 [Eh]
	 Total Energy              =    -815.0856951796855583 [Eh]

	 ================> DF-SCS-MP2 Energies <==================
	-----------------------------------------------------------
	 SCS Same-Spin Scale       =       0.3333333333333333 [-]
	 SCS Opposite-Spin Scale   =       1.2000000000000000 [-]
	 SCS Same-Spin Energy      =      -0.1749901721417220 [Eh]
	 SCS Opposite-Spin Energy  =      -1.8632714252183147 [Eh]
	 SCS Correlation Energy    =      -2.0382615973600369 [Eh]
	 SCS Total Energy          =    -815.0462600729384803 [Eh]
	-----------------------------------------------------------

  Dipole Moment: [D]
     X:    -0.7676      Y:     0.1930      Z:    -0.0000     Total:     0.7915

*** Psi4 exiting successfully. Buy a developer a beer!
