                               Psi4 1.3.2 release

  ==> Input File <==

--------------------------------------------------------------------------
#psi4
#
memory 32 gb

molecule  {
0 1
  S        1.7618360    -1.1877300    -0.0001100
  N       -1.1892720    -1.1162850     0.0000840
  N        1.4407128     1.4047581    -0.0000569
  C       -0.6888070     0.1366280     0.0000400
  C        0.7702180     0.2369850    -0.0000350
  C       -1.4868030     1.2893490     0.0000580
  C       -2.8690220     1.1312400     0.0001290
  C       -3.4040470    -0.1590480     0.0001760
  C       -2.5262420    -1.2439110     0.0001500
  C        3.1506810    -0.1849920    -0.0001670
  C        2.7828300     1.1426020    -0.0001250
  H       -1.0124600     2.2659460     0.0000190
  H       -3.5213850     2.0011240     0.0001460
  H       -4.4778440    -0.3237170     0.0002310
  H       -2.9027010    -2.2653680     0.0001840
  H        4.1496320    -0.6018500    -0.0002240
  H        3.4730500     1.9793660    -0.0001460
units angstrom
no_reorient  #important for SAPT in psi4, default
symmetry c1  #important for SAPT in psi4, default
}

set PROPERTIES_ORIGIN ["COM"]
properties('MP2/aug-cc-pvtz', properties = ['dipole'])
--------------------------------------------------------------------------

    Molecular point group: c1
  Charge       = 0
  Multiplicity = 1
  Basis Set: AUG-CC-PVTZ
    Blend: AUG-CC-PVTZ
  Basis Set: (AUG-CC-PVTZ AUX)
    Blend: AUG-CC-PVTZ-JKFIT

    Orbital Energies [Eh]
    ---------------------

    Doubly Occupied:

       1A    -91.998020     2A    -15.579097     3A    -15.577195
       4A    -11.316728     5A    -11.297783     6A    -11.285685
       7A    -11.270134     8A    -11.267693     9A    -11.264576
      10A    -11.251556    11A    -11.250139    12A     -8.997842
      13A     -6.678603    14A     -6.678045    15A     -6.677408
      16A     -1.283784    17A     -1.258274    18A     -1.096737
      19A     -1.067746    20A     -1.063400    21A     -0.985051
      22A     -0.876975    23A     -0.869321    24A     -0.788657
      25A     -0.766785    26A     -0.707609    27A     -0.679547
      28A     -0.669234    29A     -0.638852    30A     -0.592831
      31A     -0.585403    32A     -0.579755    33A     -0.558196
      34A     -0.535230    35A     -0.529020    36A     -0.503357
      37A     -0.446217    38A     -0.426492    39A     -0.398449
      40A     -0.392292    41A     -0.372370    42A     -0.305630

  @DF-RHF Final Energy:  -813.00674618327935

   => Energetics <=

    Nuclear Repulsion Energy =            626.2854802180230536
    One-Electron Energy =               -2355.8490196129168908
    Two-Electron Energy =                 916.5567932116143766
    Total Energy =                       -813.0067461832793470
  Basis Set: (AUG-CC-PVTZ AUX)
    Blend: AUG-CC-PVTZ-RI
    Molecular point group: c1

    Geometry (in Angstrom), charge = 0, multiplicity = 1:

       Center              X                  Y                   Z               Mass
    ------------   -----------------  -----------------  -----------------  -----------------
         S            1.735476543733    -1.171257056044    -0.000108680444    31.972071174400
         N           -1.215631456267    -1.099812056044     0.000085319556    14.003074004430
         N            1.414353343733     1.421231043956    -0.000055580444    14.003074004430
         C           -0.715166456267     0.153100943956     0.000041319556    12.000000000000
         C            0.743858543733     0.253457943956    -0.000033680444    12.000000000000
         C           -1.513162456267     1.305821943956     0.000059319556    12.000000000000
         C           -2.895381456267     1.147712943956     0.000130319556    12.000000000000
         C           -3.430406456267    -0.142575056044     0.000177319556    12.000000000000
         C           -2.552601456267    -1.227438056044     0.000151319556    12.000000000000
         C            3.124321543733    -0.168519056044    -0.000165680444    12.000000000000
         C            2.756470543733     1.159074943956    -0.000123680444    12.000000000000
         H           -1.038819456267     2.282418943956     0.000020319556     1.007825032230
         H           -3.547744456267     2.017596943956     0.000147319556     1.007825032230
         H           -4.504203456267    -0.307244056044     0.000232319556     1.007825032230
         H           -2.929060456267    -2.248895056044     0.000185319556     1.007825032230
         H            4.123272543733    -0.585377056044    -0.000222680444     1.007825032230
         H            3.446690543733     1.995838943956    -0.000144680444     1.007825032230

  Basis Set: AUG-CC-PVTZ
    Blend: AUG-CC-PVTZ
  Basis Set: (AUG-CC-PVTZ AUX)
    Blend: AUG-CC-PVTZ-JKFIT
	 Reference Energy          =    -813.0067461832793470 [Eh]
	 Singles Energy            =      -0.0000000000000000 [Eh]
	 Same-Spin Energy          =      -0.5259480446173984 [Eh]
	 Opposite-Spin Energy      =      -1.5548084325201486 [Eh]
	 Correlation Energy        =      -2.0807564771375469 [Eh]
	 Total Energy              =    -815.0875026604169307 [Eh]

	 ================> DF-SCS-MP2 Energies <==================
	-----------------------------------------------------------
	 SCS Same-Spin Scale       =       0.3333333333333333 [-]
	 SCS Opposite-Spin Scale   =       1.2000000000000000 [-]
	 SCS Same-Spin Energy      =      -0.1753160148724661 [Eh]
	 SCS Opposite-Spin Energy  =      -1.8657701190241782 [Eh]
	 SCS Correlation Energy    =      -2.0410861338966444 [Eh]
	 SCS Total Energy          =    -815.0478323171760167 [Eh]
	-----------------------------------------------------------

  Dipole Moment: [D]
     X:    -0.7706      Y:     0.1162      Z:    -0.0000     Total:     0.7793

*** Psi4 exiting successfully. Buy a developer a beer!
