                               Psi4 1.4a3.dev225

  ==> Input File <==

--------------------------------------------------------------------------
#psi4
#
memory 32 gb

molecule  {
0 1
  S        1.7618360    -1.1877300    -0.0001100
  N       -1.1892720    -1.1162850     0.0000840
  N        1.4363420     1.3812950    -0.0000570
  C       -0.6888070     0.1366280     0.0000400
  C        0.7702180     0.2369850    -0.0000350
  C       -1.4868030     1.2893490     0.0000580
  C       -2.8690220     1.1312400     0.0001290
  C       -3.4040470    -0.1590480     0.0001760
  C       -2.5262420    -1.2439110     0.0001500
  C        3.1506810    -0.1849920    -0.0001670
  C        2.7961810     1.0944175    -0.0001265
  H       -1.0124600     2.2659460     0.0000190
  H       -3.5213850     2.0011240     0.0001460
  H       -4.4778440    -0.3237170     0.0002310
  H       -2.9027010    -2.2653680     0.0001840
  H        4.1496320    -0.6018500    -0.0002240
  H        3.4730500     1.9793660    -0.0001460
units angstrom
no_reorient  #important for SAPT in psi4, default
symmetry c1  #important for SAPT in psi4, default
}

set PROPERTIES_ORIGIN ["COM"]
properties('MP2/aug-cc-pvtz', properties = ['dipole'])
--------------------------------------------------------------------------

    Molecular point group: c1
  Charge       = 0
  Multiplicity = 1
  Basis Set: AUG-CC-PVTZ
    Blend: AUG-CC-PVTZ
  Basis Set: (AUG-CC-PVTZ AUX)
    Blend: AUG-CC-PVTZ-JKFIT

    Orbital Energies [Eh]
    ---------------------

    Doubly Occupied:

       1A    -91.992512     2A    -15.579889     3A    -15.574445
       4A    -11.314855     5A    -11.297675     6A    -11.285958
       7A    -11.268162     8A    -11.266584     9A    -11.258773
      10A    -11.252424    11A    -11.250968    12A     -8.992929
      13A     -6.673725    14A     -6.673170    15A     -6.672422
      16A     -1.286752    17A     -1.260026    18A     -1.097257
      19A     -1.073447    20A     -1.060659    21A     -0.989324
      22A     -0.879567    23A     -0.869522    24A     -0.787998
      25A     -0.765092    26A     -0.709241    27A     -0.679733
      28A     -0.669853    29A     -0.638001    30A     -0.593762
      31A     -0.581849    32A     -0.580811    33A     -0.558365
      34A     -0.537111    35A     -0.529946    36A     -0.502253
      37A     -0.446206    38A     -0.424569    39A     -0.401587
      40A     -0.391569    41A     -0.370814    42A     -0.313796

  @DF-RHF Final Energy:  -813.00847135534650

   => Energetics <=

    Nuclear Repulsion Energy =            627.4885811551570214
    One-Electron Energy =               -2358.2869019750910411
    Two-Electron Energy =                 917.7898494645874052
    Total Energy =                       -813.0084713553465008
  Basis Set: (AUG-CC-PVTZ AUX)
    Blend: AUG-CC-PVTZ-RI
    Molecular point group: c1

    Geometry (in Angstrom), charge = 0, multiplicity = 1:

       Center              X                  Y                   Z               Mass
    ------------   -----------------  -----------------  -----------------  -----------------
         S            1.734865482103    -1.165660582798    -0.000108560708    31.972071174400
         N           -1.216242517897    -1.094215582798     0.000085439292    14.003074004430
         N            1.409371482103     1.403364417202    -0.000055560708    14.003074004430
         C           -0.715777517897     0.158697417202     0.000041439292    12.000000000000
         C            0.743247482103     0.259054417202    -0.000033560708    12.000000000000
         C           -1.513773517897     1.311418417202     0.000059439292    12.000000000000
         C           -2.895992517897     1.153309417202     0.000130439292    12.000000000000
         C           -3.431017517897    -0.136978582798     0.000177439292    12.000000000000
         C           -2.553212517897    -1.221841582798     0.000151439292    12.000000000000
         C            3.123710482103    -0.162922582798    -0.000165560708    12.000000000000
         C            2.769210482103     1.116486917202    -0.000125060708    12.000000000000
         H           -1.039430517897     2.288015417202     0.000020439292     1.007825032230
         H           -3.548355517897     2.023193417202     0.000147439292     1.007825032230
         H           -4.504814517897    -0.301647582798     0.000232439292     1.007825032230
         H           -2.929671517897    -2.243298582798     0.000185439292     1.007825032230
         H            4.122661482103    -0.579780582798    -0.000222560708     1.007825032230
         H            3.446079482103     2.001435417202    -0.000144560708     1.007825032230

  Basis Set: AUG-CC-PVTZ
    Blend: AUG-CC-PVTZ
  Basis Set: (AUG-CC-PVTZ AUX)
    Blend: AUG-CC-PVTZ-JKFIT
	 Reference Energy          =    -813.0084713553465008 [Eh]
	 Singles Energy            =      -0.0000000000000000 [Eh]
	 Same-Spin Energy          =      -0.5241396748527425 [Eh]
	 Opposite-Spin Energy      =      -1.5523840859137801 [Eh]
	 Correlation Energy        =      -2.0765237607665226 [Eh]
	 Total Energy              =    -815.0849951161130775 [Eh]

	 ================> DF-SCS-MP2 Energies <==================
	-----------------------------------------------------------
	 SCS Same-Spin Scale       =       0.3333333333333333 [-]
	 SCS Opposite-Spin Scale   =       1.2000000000000000 [-]
	 SCS Same-Spin Energy      =      -0.1747132249509142 [Eh]
	 SCS Opposite-Spin Energy  =      -1.8628609030965360 [Eh]
	 SCS Correlation Energy    =      -2.0375741280474502 [Eh]
	 SCS Total Energy          =    -815.0460454833939821 [Eh]
	-----------------------------------------------------------

  Dipole Moment: [D]
     X:    -0.8848      Y:     0.1799      Z:    -0.0000     Total:     0.9029

*** Psi4 exiting successfully. Buy a developer a beer!
