                               Psi4 1.3.2 release

  ==> Input File <==

--------------------------------------------------------------------------
#psi4
#
memory 32 gb

molecule  {
0 1
  S        1.7618360    -1.1877300    -0.0001100
  N       -1.1892720    -1.1162850     0.0000840
  N        1.4363420     1.3812950    -0.0000570
  C       -0.6888070     0.1366280     0.0000400
  C        0.7130917     0.3190617    -0.0000307
  C       -1.4868030     1.2893490     0.0000580
  C       -2.8690220     1.1312400     0.0001290
  C       -3.4040470    -0.1590480     0.0001760
  C       -2.5262420    -1.2439110     0.0001500
  C        3.1506810    -0.1849920    -0.0001670
  C        2.7828300     1.1426020    -0.0001250
  H       -1.0124600     2.2659460     0.0000190
  H       -3.5213850     2.0011240     0.0001460
  H       -4.4778440    -0.3237170     0.0002310
  H       -2.9027010    -2.2653680     0.0001840
  H        4.1496320    -0.6018500    -0.0002240
  H        3.4730500     1.9793660    -0.0001460
units angstrom
no_reorient  #important for SAPT in psi4, default
symmetry c1  #important for SAPT in psi4, default
}

set PROPERTIES_ORIGIN ["COM"]
properties('MP2/aug-cc-pvtz', properties = ['dipole'])
--------------------------------------------------------------------------

    Molecular point group: c1
  Charge       = 0
  Multiplicity = 1
  Basis Set: AUG-CC-PVTZ
    Blend: AUG-CC-PVTZ
  Basis Set: (AUG-CC-PVTZ AUX)
    Blend: AUG-CC-PVTZ-JKFIT

    Orbital Energies [Eh]
    ---------------------

    Doubly Occupied:

       1A    -91.985577     2A    -15.582491     3A    -15.575961
       4A    -11.315966     5A    -11.296507     6A    -11.288169
       7A    -11.269753     8A    -11.269215     9A    -11.268117
      10A    -11.254187    11A    -11.252120    12A     -8.984696
      13A     -6.665476    14A     -6.664755    15A     -6.664217
      16A     -1.293433    17A     -1.264189    18A     -1.098494
      19A     -1.078435    20A     -1.056021    21A     -0.982339
      22A     -0.885219    23A     -0.872369    24A     -0.794384
      25A     -0.769474    26A     -0.704605    27A     -0.683642
      28A     -0.670980    29A     -0.644309    30A     -0.605339
      31A     -0.590880    32A     -0.585336    33A     -0.553149
      34A     -0.535849    35A     -0.533899    36A     -0.496586
      37A     -0.440852    38A     -0.413249    39A     -0.405703
      40A     -0.394446    41A     -0.369887    42A     -0.303664

  @DF-RHF Final Energy:  -813.00182005612271

   => Energetics <=

    Nuclear Repulsion Energy =            626.5021934336548384
    One-Electron Energy =               -2356.2801514775874239
    Two-Electron Energy =                 916.7761379878098751
    Total Energy =                       -813.0018200561227104
  Basis Set: (AUG-CC-PVTZ AUX)
    Blend: AUG-CC-PVTZ-RI
    Molecular point group: c1

    Geometry (in Angstrom), charge = 0, multiplicity = 1:

       Center              X                  Y                   Z               Mass
    ------------   -----------------  -----------------  -----------------  -----------------
         S            1.740085211872    -1.175308061680    -0.000108990271    31.972071174400
         N           -1.211022788128    -1.103863061680     0.000085009729    14.003074004430
         N            1.414591211872     1.393716938320    -0.000055990271    14.003074004430
         C           -0.710557788128     0.149049938320     0.000041009729    12.000000000000
         C            0.691340911872     0.331483638320    -0.000029690271    12.000000000000
         C           -1.508553788128     1.301770938320     0.000059009729    12.000000000000
         C           -2.890772788128     1.143661938320     0.000130009729    12.000000000000
         C           -3.425797788128    -0.146626061680     0.000177009729    12.000000000000
         C           -2.547992788128    -1.231489061680     0.000151009729    12.000000000000
         C            3.128930211872    -0.172570061680    -0.000165990271    12.000000000000
         C            2.761079211872     1.155023938320    -0.000123990271    12.000000000000
         H           -1.034210788128     2.278367938320     0.000020009729     1.007825032230
         H           -3.543135788128     2.013545938320     0.000147009729     1.007825032230
         H           -4.499594788128    -0.311295061680     0.000232009729     1.007825032230
         H           -2.924451788128    -2.252946061680     0.000185009729     1.007825032230
         H            4.127881211872    -0.589428061680    -0.000222990271     1.007825032230
         H            3.451299211872     1.991787938320    -0.000144990271     1.007825032230

  Basis Set: AUG-CC-PVTZ
    Blend: AUG-CC-PVTZ
  Basis Set: (AUG-CC-PVTZ AUX)
    Blend: AUG-CC-PVTZ-JKFIT
	 Reference Energy          =    -813.0018200561227104 [Eh]
	 Singles Energy            =      -0.0000000000000000 [Eh]
	 Same-Spin Energy          =      -0.5254414594040757 [Eh]
	 Opposite-Spin Energy      =      -1.5541139223569673 [Eh]
	 Correlation Energy        =      -2.0795553817610433 [Eh]
	 Total Energy              =    -815.0813754378837075 [Eh]

	 ================> DF-SCS-MP2 Energies <==================
	-----------------------------------------------------------
	 SCS Same-Spin Scale       =       0.3333333333333333 [-]
	 SCS Opposite-Spin Scale   =       1.2000000000000000 [-]
	 SCS Same-Spin Energy      =      -0.1751471531346919 [Eh]
	 SCS Opposite-Spin Energy  =      -1.8649367068283607 [Eh]
	 SCS Correlation Energy    =      -2.0400838599630524 [Eh]
	 SCS Total Energy          =    -815.0419039160857437 [Eh]
	-----------------------------------------------------------

  Dipole Moment: [D]
     X:    -1.1087      Y:     0.5050      Z:     0.0000     Total:     1.2183

*** Psi4 exiting successfully. Buy a developer a beer!
