                               Psi4 1.3.2 release

  ==> Input File <==

--------------------------------------------------------------------------
#psi4
#
memory 32 gb

molecule  {
0 1
  S        1.7618360    -1.1877300    -0.0001100
  N       -1.1892720    -1.1162850     0.0000840
  N        1.4363420     1.3812950    -0.0000570
  C       -0.6888070     0.1366280     0.0000400
  C        0.8273443     0.1549083    -0.0000393
  C       -1.4868030     1.2893490     0.0000580
  C       -2.8690220     1.1312400     0.0001290
  C       -3.4040470    -0.1590480     0.0001760
  C       -2.5262420    -1.2439110     0.0001500
  C        3.1506810    -0.1849920    -0.0001670
  C        2.7828300     1.1426020    -0.0001250
  H       -1.0124600     2.2659460     0.0000190
  H       -3.5213850     2.0011240     0.0001460
  H       -4.4778440    -0.3237170     0.0002310
  H       -2.9027010    -2.2653680     0.0001840
  H        4.1496320    -0.6018500    -0.0002240
  H        3.4730500     1.9793660    -0.0001460
units angstrom
no_reorient  #important for SAPT in psi4, default
symmetry c1  #important for SAPT in psi4, default
}

set PROPERTIES_ORIGIN ["COM"]
properties('MP2/aug-cc-pvtz', properties = ['dipole'])
--------------------------------------------------------------------------

    Molecular point group: c1
  Charge       = 0
  Multiplicity = 1
  Basis Set: AUG-CC-PVTZ
    Blend: AUG-CC-PVTZ
  Basis Set: (AUG-CC-PVTZ AUX)
    Blend: AUG-CC-PVTZ-JKFIT

    Orbital Energies [Eh]
    ---------------------

    Doubly Occupied:

       1A    -92.003167     2A    -15.575907     3A    -15.573089
       4A    -11.312305     5A    -11.299723     6A    -11.283306
       7A    -11.270775     8A    -11.266512     9A    -11.260822
      10A    -11.249175    11A    -11.248711    12A     -9.005058
      13A     -6.685993    14A     -6.685241    15A     -6.684564
      16A     -1.282809    17A     -1.256962    18A     -1.095876
      19A     -1.074222    20A     -1.058957    21A     -0.988790
      22A     -0.869795    23A     -0.866610    24A     -0.786820
      25A     -0.765048    26A     -0.709436    27A     -0.677295
      28A     -0.667059    29A     -0.636339    30A     -0.590381
      31A     -0.580204    32A     -0.575789    33A     -0.564849
      34A     -0.536955    35A     -0.520371    36A     -0.508882
      37A     -0.449130    38A     -0.428489    39A     -0.395552
      40A     -0.388810    41A     -0.372856    42A     -0.309609

  @DF-RHF Final Energy:  -812.99766132927698

   => Energetics <=

    Nuclear Repulsion Energy =            627.5348858697146852
    One-Electron Energy =               -2358.3406087287344235
    Two-Electron Energy =                 917.8080615297426448
    Total Energy =                       -812.9976613292769798
  Basis Set: (AUG-CC-PVTZ AUX)
    Blend: AUG-CC-PVTZ-RI
    Molecular point group: c1

    Geometry (in Angstrom), charge = 0, multiplicity = 1:

       Center              X                  Y                   Z               Mass
    ------------   -----------------  -----------------  -----------------  -----------------
         S            1.731623371003    -1.163150439457    -0.000108353333    31.972071174400
         N           -1.219484628997    -1.091705439457     0.000085646667    14.003074004430
         N            1.406129371003     1.405874560543    -0.000055353333    14.003074004430
         C           -0.719019628997     0.161207560543     0.000041646667    12.000000000000
         C            0.797131671003     0.179487860543    -0.000037653333    12.000000000000
         C           -1.517015628997     1.313928560543     0.000059646667    12.000000000000
         C           -2.899234628997     1.155819560543     0.000130646667    12.000000000000
         C           -3.434259628997    -0.134468439457     0.000177646667    12.000000000000
         C           -2.556454628997    -1.219331439457     0.000151646667    12.000000000000
         C            3.120468371003    -0.160412439457    -0.000165353333    12.000000000000
         C            2.752617371003     1.167181560543    -0.000123353333    12.000000000000
         H           -1.042672628997     2.290525560543     0.000020646667     1.007825032230
         H           -3.551597628997     2.025703560543     0.000147646667     1.007825032230
         H           -4.508056628997    -0.299137439457     0.000232646667     1.007825032230
         H           -2.932913628997    -2.240788439457     0.000185646667     1.007825032230
         H            4.119419371003    -0.577270439457    -0.000222353333     1.007825032230
         H            3.442837371003     2.003945560543    -0.000144353333     1.007825032230

  Basis Set: AUG-CC-PVTZ
    Blend: AUG-CC-PVTZ
  Basis Set: (AUG-CC-PVTZ AUX)
    Blend: AUG-CC-PVTZ-JKFIT
	 Reference Energy          =    -812.9976613292769798 [Eh]
	 Singles Energy            =      -0.0000000000000000 [Eh]
	 Same-Spin Energy          =      -0.5262931516932738 [Eh]
	 Opposite-Spin Energy      =      -1.5547243536693303 [Eh]
	 Correlation Energy        =      -2.0810175053626043 [Eh]
	 Total Energy              =    -815.0786788346396179 [Eh]

	 ================> DF-SCS-MP2 Energies <==================
	-----------------------------------------------------------
	 SCS Same-Spin Scale       =       0.3333333333333333 [-]
	 SCS Opposite-Spin Scale   =       1.2000000000000000 [-]
	 SCS Same-Spin Energy      =      -0.1754310505644246 [Eh]
	 SCS Opposite-Spin Energy  =      -1.8656692244031963 [Eh]
	 SCS Correlation Energy    =      -2.0411002749676208 [Eh]
	 SCS Total Energy          =    -815.0387616042446552 [Eh]
	-----------------------------------------------------------

  Dipole Moment: [D]
     X:    -0.5839      Y:    -0.0412      Z:    -0.0000     Total:     0.5854

*** Psi4 exiting successfully. Buy a developer a beer!
