                               Psi4 1.3.2 release

  ==> Input File <==

--------------------------------------------------------------------------
#psi4
#
memory 32 gb

molecule  {
0 1
  S        1.8351666    -1.2821683    -0.0001155
  N       -1.1892720    -1.1162850     0.0000840
  N        1.4363420     1.3812950    -0.0000570
  C       -0.6888070     0.1366280     0.0000400
  C        0.7702180     0.2369850    -0.0000350
  C       -1.4868030     1.2893490     0.0000580
  C       -2.8690220     1.1312400     0.0001290
  C       -3.4040470    -0.1590480     0.0001760
  C       -2.5262420    -1.2439110     0.0001500
  C        3.1506810    -0.1849920    -0.0001670
  C        2.7828300     1.1426020    -0.0001250
  H       -1.0124600     2.2659460     0.0000190
  H       -3.5213850     2.0011240     0.0001460
  H       -4.4778440    -0.3237170     0.0002310
  H       -2.9027010    -2.2653680     0.0001840
  H        4.1496320    -0.6018500    -0.0002240
  H        3.4730500     1.9793660    -0.0001460
units angstrom
no_reorient  #important for SAPT in psi4, default
symmetry c1  #important for SAPT in psi4, default
}

set PROPERTIES_ORIGIN ["COM"]
properties('MP2/aug-cc-pvtz', properties = ['dipole'])
--------------------------------------------------------------------------

    Molecular point group: c1
  Charge       = 0
  Multiplicity = 1
  Basis Set: AUG-CC-PVTZ
    Blend: AUG-CC-PVTZ
  Basis Set: (AUG-CC-PVTZ AUX)
    Blend: AUG-CC-PVTZ-JKFIT

    Orbital Energies [Eh]
    ---------------------

    Doubly Occupied:

       1A    -91.997632     2A    -15.581527     3A    -15.579434
       4A    -11.324579     5A    -11.298507     6A    -11.285678
       7A    -11.269993     8A    -11.268157     9A    -11.267070
      10A    -11.252108    11A    -11.251284    12A     -8.995634
      13A     -6.676390    14A     -6.675592    15A     -6.675081
      16A     -1.283943    17A     -1.259494    18A     -1.096646
      19A     -1.069249    20A     -1.056310    21A     -0.978052
      22A     -0.877380    23A     -0.869453    24A     -0.791162
      25A     -0.762770    26A     -0.706945    27A     -0.680623
      28A     -0.669176    29A     -0.638925    30A     -0.594690
      31A     -0.587645    32A     -0.576866    33A     -0.547191
      34A     -0.533581    35A     -0.525776    36A     -0.506756
      37A     -0.443052    38A     -0.426210    39A     -0.403567
      40A     -0.393767    41A     -0.369611    42A     -0.302635

  @DF-RHF Final Energy:  -812.99970314186874

   => Energetics <=

    Nuclear Repulsion Energy =            621.5514841736909375
    One-Electron Energy =               -2346.4020866630498858
    Two-Electron Energy =                 911.8508993474903264
    Total Energy =                       -812.9997031418687357
  Basis Set: (AUG-CC-PVTZ AUX)
    Blend: AUG-CC-PVTZ-RI
    Molecular point group: c1

    Geometry (in Angstrom), charge = 0, multiplicity = 1:

       Center              X                  Y                   Z               Mass
    ------------   -----------------  -----------------  -----------------  -----------------
         S            1.794714725034    -1.245032248036    -0.000113086499    31.972071174400
         N           -1.229723874966    -1.079148948036     0.000086413501    14.003074004430
         N            1.395890125034     1.418431051964    -0.000054586499    14.003074004430
         C           -0.729258874966     0.173764051964     0.000042413501    12.000000000000
         C            0.729766125034     0.274121051964    -0.000032586499    12.000000000000
         C           -1.527254874966     1.326485051964     0.000060413501    12.000000000000
         C           -2.909473874966     1.168376051964     0.000131413501    12.000000000000
         C           -3.444498874966    -0.121911948036     0.000178413501    12.000000000000
         C           -2.566693874966    -1.206774948036     0.000152413501    12.000000000000
         C            3.110229125034    -0.147855948036    -0.000164586499    12.000000000000
         C            2.742378125034     1.179738051964    -0.000122586499    12.000000000000
         H           -1.052911874966     2.303082051964     0.000021413501     1.007825032230
         H           -3.561836874966     2.038260051964     0.000148413501     1.007825032230
         H           -4.518295874966    -0.286580948036     0.000233413501     1.007825032230
         H           -2.943152874966    -2.228231948036     0.000186413501     1.007825032230
         H            4.109180125034    -0.564713948036    -0.000221586499     1.007825032230
         H            3.432598125034     2.016502051964    -0.000143586499     1.007825032230

  Basis Set: AUG-CC-PVTZ
    Blend: AUG-CC-PVTZ
  Basis Set: (AUG-CC-PVTZ AUX)
    Blend: AUG-CC-PVTZ-JKFIT
	 Reference Energy          =    -812.9997031418687357 [Eh]
	 Singles Energy            =      -0.0000000000000000 [Eh]
	 Same-Spin Energy          =      -0.5251902240851067 [Eh]
	 Opposite-Spin Energy      =      -1.5557963018094463 [Eh]
	 Correlation Energy        =      -2.0809865258945530 [Eh]
	 Total Energy              =    -815.0806896677632949 [Eh]

	 ================> DF-SCS-MP2 Energies <==================
	-----------------------------------------------------------
	 SCS Same-Spin Scale       =       0.3333333333333333 [-]
	 SCS Opposite-Spin Scale   =       1.2000000000000000 [-]
	 SCS Same-Spin Energy      =      -0.1750634080283689 [Eh]
	 SCS Opposite-Spin Energy  =      -1.8669555621713354 [Eh]
	 SCS Correlation Energy    =      -2.0420189701997042 [Eh]
	 SCS Total Energy          =    -815.0417221120684417 [Eh]
	-----------------------------------------------------------

  Dipole Moment: [D]
     X:    -0.9118      Y:     0.3319      Z:    -0.0000     Total:     0.9703

*** Psi4 exiting successfully. Buy a developer a beer!
