                               Psi4 1.3.2 release

  ==> Input File <==

--------------------------------------------------------------------------
#psi4
#
memory 32 gb

molecule  {
0 1
  S        1.7618360    -1.1877300    -0.0001100
  N       -1.1892720    -1.1162850     0.0000840
  N        1.4363420     1.3812950    -0.0000570
  C       -0.7629956    -0.0491031     0.0000465
  C        0.7702180     0.2369850    -0.0000350
  C       -1.4868030     1.2893490     0.0000580
  C       -2.8690220     1.1312400     0.0001290
  C       -3.4040470    -0.1590480     0.0001760
  C       -2.5262420    -1.2439110     0.0001500
  C        3.1506810    -0.1849920    -0.0001670
  C        2.7828300     1.1426020    -0.0001250
  H       -1.0124600     2.2659460     0.0000190
  H       -3.5213850     2.0011240     0.0001460
  H       -4.4778440    -0.3237170     0.0002310
  H       -2.9027010    -2.2653680     0.0001840
  H        4.1496320    -0.6018500    -0.0002240
  H        3.4730500     1.9793660    -0.0001460
units angstrom
no_reorient  #important for SAPT in psi4, default
symmetry c1  #important for SAPT in psi4, default
}

set PROPERTIES_ORIGIN ["COM"]
properties('MP2/aug-cc-pvtz', properties = ['dipole'])
--------------------------------------------------------------------------

    Molecular point group: c1
  Charge       = 0
  Multiplicity = 1
  Basis Set: AUG-CC-PVTZ
    Blend: AUG-CC-PVTZ
  Basis Set: (AUG-CC-PVTZ AUX)
    Blend: AUG-CC-PVTZ-JKFIT

    Orbital Energies [Eh]
    ---------------------

    Doubly Occupied:

       1A    -91.989612     2A    -15.575007     3A    -15.566882
       4A    -11.314022     5A    -11.299786     6A    -11.286586
       7A    -11.269113     8A    -11.262665     9A    -11.262317
      10A    -11.257279    11A    -11.253159    12A     -8.990261
      13A     -6.671079    14A     -6.670439    15A     -6.669853
      16A     -1.343899    17A     -1.273839    18A     -1.107711
      19A     -1.060960    20A     -1.048072    21A     -0.983986
      22A     -0.889746    23A     -0.857370    24A     -0.786108
      25A     -0.766891    26A     -0.712837    27A     -0.691534
      28A     -0.664064    29A     -0.636537    30A     -0.600790
      31A     -0.596986    32A     -0.584679    33A     -0.563015
      34A     -0.548213    35A     -0.526203    36A     -0.499347
      37A     -0.447306    38A     -0.420273    39A     -0.402340
      40A     -0.388317    41A     -0.357653    42A     -0.311576

  @DF-RHF Final Energy:  -812.95567355771561

   => Energetics <=

    Nuclear Repulsion Energy =            627.9921316597173018
    One-Electron Energy =               -2359.0789893675569147
    Two-Electron Energy =                 918.1311841501238860
    Total Energy =                       -812.9556735577156132
  Basis Set: (AUG-CC-PVTZ AUX)
    Blend: AUG-CC-PVTZ-RI
    Molecular point group: c1

    Geometry (in Angstrom), charge = 0, multiplicity = 1:

       Center              X                  Y                   Z               Mass
    ------------   -----------------  -----------------  -----------------  -----------------
         S            1.741348889613    -1.155473528488    -0.000109153208    31.972071174400
         N           -1.209759110387    -1.084028528488     0.000084846792    14.003074004430
         N            1.415854889613     1.413551471512    -0.000056153208    14.003074004430
         C           -0.783482710387    -0.016846628488     0.000047346792    12.000000000000
         C            0.749730889613     0.269241471512    -0.000034153208    12.000000000000
         C           -1.507290110387     1.321605471512     0.000058846792    12.000000000000
         C           -2.889509110387     1.163496471512     0.000129846792    12.000000000000
         C           -3.424534110387    -0.126791528488     0.000176846792    12.000000000000
         C           -2.546729110387    -1.211654528488     0.000150846792    12.000000000000
         C            3.130193889613    -0.152735528488    -0.000166153208    12.000000000000
         C            2.762342889613     1.174858471512    -0.000124153208    12.000000000000
         H           -1.032947110387     2.298202471512     0.000019846792     1.007825032230
         H           -3.541872110387     2.033380471512     0.000146846792     1.007825032230
         H           -4.498331110387    -0.291460528488     0.000231846792     1.007825032230
         H           -2.923188110387    -2.233111528488     0.000184846792     1.007825032230
         H            4.129144889613    -0.569593528488    -0.000223153208     1.007825032230
         H            3.452562889613     2.011622471512    -0.000145153208     1.007825032230

  Basis Set: AUG-CC-PVTZ
    Blend: AUG-CC-PVTZ
  Basis Set: (AUG-CC-PVTZ AUX)
    Blend: AUG-CC-PVTZ-JKFIT
	 Reference Energy          =    -812.9556735577156132 [Eh]
	 Singles Energy            =      -0.0000000000000000 [Eh]
	 Same-Spin Energy          =      -0.5223329094362508 [Eh]
	 Opposite-Spin Energy      =      -1.5504335666560816 [Eh]
	 Correlation Energy        =      -2.0727664760923323 [Eh]
	 Total Energy              =    -815.0284400338078967 [Eh]

	 ================> DF-SCS-MP2 Energies <==================
	-----------------------------------------------------------
	 SCS Same-Spin Scale       =       0.3333333333333333 [-]
	 SCS Opposite-Spin Scale   =       1.2000000000000000 [-]
	 SCS Same-Spin Energy      =      -0.1741109698120836 [Eh]
	 SCS Opposite-Spin Energy  =      -1.8605202799872977 [Eh]
	 SCS Correlation Energy    =      -2.0346312497993813 [Eh]
	 SCS Total Energy          =    -814.9903048075150309 [Eh]
	-----------------------------------------------------------

  Dipole Moment: [D]
     X:    -1.0361      Y:     0.0578      Z:     0.0000     Total:     1.0377

*** Psi4 exiting successfully. Buy a developer a beer!
