                               Psi4 1.3.2 release

  ==> Input File <==

--------------------------------------------------------------------------
#psi4
#
memory 32 gb

molecule  {
0 1
  S        1.7618360    -1.1877300    -0.0001100
  N       -1.1892720    -1.1162850     0.0000840
  N        1.4363420     1.3812950    -0.0000570
  C       -0.6888070     0.1366280     0.0000400
  C        0.7702180     0.2369850    -0.0000350
  C       -1.4868030     1.2893490     0.0000580
  C       -2.8690220     1.1312400     0.0001290
  C       -3.4040470    -0.1590480     0.0001760
  C       -2.5262420    -1.2439110     0.0001500
  C        3.1506810    -0.1849920    -0.0001670
  C        2.9797597     1.1076921    -0.0001349
  H       -1.0124600     2.2659460     0.0000190
  H       -3.5213850     2.0011240     0.0001460
  H       -4.4778440    -0.3237170     0.0002310
  H       -2.9027010    -2.2653680     0.0001840
  H        4.1496320    -0.6018500    -0.0002240
  H        3.4730500     1.9793660    -0.0001460
units angstrom
no_reorient  #important for SAPT in psi4, default
symmetry c1  #important for SAPT in psi4, default
}

set PROPERTIES_ORIGIN ["COM"]
properties('MP2/aug-cc-pvtz', properties = ['dipole'])
--------------------------------------------------------------------------

    Molecular point group: c1
  Charge       = 0
  Multiplicity = 1
  Basis Set: AUG-CC-PVTZ
    Blend: AUG-CC-PVTZ
  Basis Set: (AUG-CC-PVTZ AUX)
    Blend: AUG-CC-PVTZ-JKFIT

    Orbital Energies [Eh]
    ---------------------

    Doubly Occupied:

       1A    -91.990028     2A    -15.580589     3A    -15.576421
       4A    -11.312678     5A    -11.297758     6A    -11.285636
       7A    -11.268592     8A    -11.267680     9A    -11.264361
      10A    -11.252587    11A    -11.250583    12A     -8.990778
      13A     -6.671721    14A     -6.670932    15A     -6.670110
      16A     -1.276062    17A     -1.236231    18A     -1.096824
      19A     -1.076549    20A     -1.046955    21A     -0.996254
      22A     -0.882804    23A     -0.868706    24A     -0.789429
      25A     -0.769778    26A     -0.704029    27A     -0.687302
      28A     -0.668326    29A     -0.637528    30A     -0.594607
      31A     -0.582245    32A     -0.574487    33A     -0.536778
      34A     -0.529957    35A     -0.529073    36A     -0.528825
      37A     -0.439378    38A     -0.409259    39A     -0.406495
      40A     -0.388925    41A     -0.360215    42A     -0.325230

  @DF-RHF Final Energy:  -812.97701339010041

   => Energetics <=

    Nuclear Repulsion Energy =            624.0035436036508827
    One-Electron Energy =               -2351.3757005750753706
    Two-Electron Energy =                 914.3951435813239641
    Total Energy =                       -812.9770133901004101
  Basis Set: (AUG-CC-PVTZ AUX)
    Blend: AUG-CC-PVTZ-RI
    Molecular point group: c1

    Geometry (in Angstrom), charge = 0, multiplicity = 1:

       Center              X                  Y                   Z               Mass
    ------------   -----------------  -----------------  -----------------  -----------------
         S            1.721269172292    -1.166643733753    -0.000107938582    31.972071174400
         N           -1.229838827708    -1.095198733753     0.000086061418    14.003074004430
         N            1.395775172292     1.402381266247    -0.000054938582    14.003074004430
         C           -0.729373827708     0.157714266247     0.000042061418    12.000000000000
         C            0.729651172292     0.258071266247    -0.000032938582    12.000000000000
         C           -1.527369827708     1.310435266247     0.000060061418    12.000000000000
         C           -2.909588827708     1.152326266247     0.000131061418    12.000000000000
         C           -3.444613827708    -0.137961733753     0.000178061418    12.000000000000
         C           -2.566808827708    -1.222824733753     0.000152061418    12.000000000000
         C            3.110114172292    -0.163905733753    -0.000164938582    12.000000000000
         C            2.939192872292     1.128778366247    -0.000132838582    12.000000000000
         H           -1.053026827708     2.287032266247     0.000021061418     1.007825032230
         H           -3.561951827708     2.022210266247     0.000148061418     1.007825032230
         H           -4.518410827708    -0.302630733753     0.000233061418     1.007825032230
         H           -2.943267827708    -2.244281733753     0.000186061418     1.007825032230
         H            4.109065172292    -0.580763733753    -0.000221938582     1.007825032230
         H            3.432483172292     2.000452266247    -0.000143938582     1.007825032230

  Basis Set: AUG-CC-PVTZ
    Blend: AUG-CC-PVTZ
  Basis Set: (AUG-CC-PVTZ AUX)
    Blend: AUG-CC-PVTZ-JKFIT
	 Reference Energy          =    -812.9770133901004101 [Eh]
	 Singles Energy            =      -0.0000000000000000 [Eh]
	 Same-Spin Energy          =      -0.5223634564071020 [Eh]
	 Opposite-Spin Energy      =      -1.5546950404677307 [Eh]
	 Correlation Energy        =      -2.0770584968748329 [Eh]
	 Total Energy              =    -815.0540718869752936 [Eh]

	 ================> DF-SCS-MP2 Energies <==================
	-----------------------------------------------------------
	 SCS Same-Spin Scale       =       0.3333333333333333 [-]
	 SCS Opposite-Spin Scale   =       1.2000000000000000 [-]
	 SCS Same-Spin Energy      =      -0.1741211521357007 [Eh]
	 SCS Opposite-Spin Energy  =      -1.8656340485612768 [Eh]
	 SCS Correlation Energy    =      -2.0397552006969777 [Eh]
	 SCS Total Energy          =    -815.0167685907973691 [Eh]
	-----------------------------------------------------------

  Dipole Moment: [D]
     X:    -1.0055      Y:     0.3265      Z:     0.0000     Total:     1.0572

*** Psi4 exiting successfully. Buy a developer a beer!
