                               Psi4 1.3.2 release

  ==> Input File <==

--------------------------------------------------------------------------
#psi4
#
memory 32 gb

molecule  {
0 1
  S        1.7618360    -1.1877300    -0.0001100
  N       -1.1892720    -1.1162850     0.0000840
  N        1.4363420     1.3812950    -0.0000570
  C       -0.6888070     0.1366280     0.0000400
  C        0.7702180     0.2369850    -0.0000350
  C       -1.4868030     1.2893490     0.0000580
  C       -2.8690220     1.1312400     0.0001290
  C       -3.4040470    -0.1590480     0.0001760
  C       -2.5262420    -1.2439110     0.0001500
  C        3.3128344    -0.0679182    -0.0001737
  C        2.7828300     1.1426020    -0.0001250
  H       -1.0124600     2.2659460     0.0000190
  H       -3.5213850     2.0011240     0.0001460
  H       -4.4778440    -0.3237170     0.0002310
  H       -2.9027010    -2.2653680     0.0001840
  H        4.1496320    -0.6018500    -0.0002240
  H        3.4730500     1.9793660    -0.0001460
units angstrom
no_reorient  #important for SAPT in psi4, default
symmetry c1  #important for SAPT in psi4, default
}

set PROPERTIES_ORIGIN ["COM"]
properties('MP2/aug-cc-pvtz', properties = ['dipole'])
--------------------------------------------------------------------------

    Molecular point group: c1
  Charge       = 0
  Multiplicity = 1
  Basis Set: AUG-CC-PVTZ
    Blend: AUG-CC-PVTZ
  Basis Set: (AUG-CC-PVTZ AUX)
    Blend: AUG-CC-PVTZ-JKFIT

    Orbital Energies [Eh]
    ---------------------

    Doubly Occupied:

       1A    -91.983664     2A    -15.582618     3A    -15.571755
       4A    -11.323533     5A    -11.299215     6A    -11.287364
       7A    -11.271732     8A    -11.269898     9A    -11.266428
      10A    -11.255780    11A    -11.254402    12A     -8.982029
      13A     -6.662754    14A     -6.661981    15A     -6.661504
      16A     -1.286230    17A     -1.260494    18A     -1.099239
      19A     -1.073120    20A     -1.040022    21A     -0.995171
      22A     -0.884087    23A     -0.870802    24A     -0.804978
      25A     -0.769046    26A     -0.717921    27A     -0.683850
      28A     -0.674645    29A     -0.640438    30A     -0.595534
      31A     -0.593862    32A     -0.579848    33A     -0.569857
      34A     -0.534555    35A     -0.531865    36A     -0.459048
      37A     -0.445419    38A     -0.418011    39A     -0.401637
      40A     -0.385032    41A     -0.370194    42A     -0.322479

  @DF-RHF Final Energy:  -812.98440550470309

   => Energetics <=

    Nuclear Repulsion Energy =            623.4005558333607269
    One-Electron Energy =               -2350.0858412588731881
    Two-Electron Energy =                 913.7008799208094842
    Total Energy =                       -812.9844055047030906
  Basis Set: (AUG-CC-PVTZ AUX)
    Blend: AUG-CC-PVTZ-RI
    Molecular point group: c1

    Geometry (in Angstrom), charge = 0, multiplicity = 1:

       Center              X                  Y                   Z               Mass
    ------------   -----------------  -----------------  -----------------  -----------------
         S            1.723844794349    -1.177900036752    -0.000108175582    31.972071174400
         N           -1.227263205651    -1.106455036752     0.000085824418    14.003074004430
         N            1.398350794349     1.391124963248    -0.000055175582    14.003074004430
         C           -0.726798205651     0.146457963248     0.000041824418    12.000000000000
         C            0.732226794349     0.246814963248    -0.000033175582    12.000000000000
         C           -1.524794205651     1.299178963248     0.000059824418    12.000000000000
         C           -2.907013205651     1.141069963248     0.000130824418    12.000000000000
         C           -3.442038205651    -0.149218036752     0.000177824418    12.000000000000
         C           -2.564233205651    -1.234081036752     0.000151824418    12.000000000000
         C            3.274843194349    -0.058088236752    -0.000171875582    12.000000000000
         C            2.744838794349     1.152431963248    -0.000123175582    12.000000000000
         H           -1.050451205651     2.275775963248     0.000020824418     1.007825032230
         H           -3.559376205651     2.010953963248     0.000147824418     1.007825032230
         H           -4.515835205651    -0.313887036752     0.000232824418     1.007825032230
         H           -2.940692205651    -2.255538036752     0.000185824418     1.007825032230
         H            4.111640794349    -0.592020036752    -0.000222175582     1.007825032230
         H            3.435058794349     1.989195963248    -0.000144175582     1.007825032230

  Basis Set: AUG-CC-PVTZ
    Blend: AUG-CC-PVTZ
  Basis Set: (AUG-CC-PVTZ AUX)
    Blend: AUG-CC-PVTZ-JKFIT
	 Reference Energy          =    -812.9844055047030906 [Eh]
	 Singles Energy            =      -0.0000000000000000 [Eh]
	 Same-Spin Energy          =      -0.5227569302885242 [Eh]
	 Opposite-Spin Energy      =      -1.5527898368439248 [Eh]
	 Correlation Energy        =      -2.0755467671324492 [Eh]
	 Total Energy              =    -815.0599522718355274 [Eh]

	 ================> DF-SCS-MP2 Energies <==================
	-----------------------------------------------------------
	 SCS Same-Spin Scale       =       0.3333333333333333 [-]
	 SCS Opposite-Spin Scale   =       1.2000000000000000 [-]
	 SCS Same-Spin Energy      =      -0.1742523100961747 [Eh]
	 SCS Opposite-Spin Energy  =      -1.8633478042127096 [Eh]
	 SCS Correlation Energy    =      -2.0376001143088844 [Eh]
	 SCS Total Energy          =    -815.0220056190120204 [Eh]
	-----------------------------------------------------------

  Dipole Moment: [D]
     X:    -0.9684      Y:     0.3718      Z:     0.0000     Total:     1.0373

*** Psi4 exiting successfully. Buy a developer a beer!
