                               Psi4 1.3.2 release

  ==> Input File <==

--------------------------------------------------------------------------
#psi4
#
memory 32 gb

molecule  {
0 1
  S        1.7618360    -1.1877300    -0.0001100
  N       -1.3174955    -1.0571086     0.0000890
  N        1.4363420     1.3812950    -0.0000570
  C       -0.6888070     0.1366280     0.0000400
  C        0.7702180     0.2369850    -0.0000350
  C       -1.4868030     1.2893490     0.0000580
  C       -2.8690220     1.1312400     0.0001290
  C       -3.4040470    -0.1590480     0.0001760
  C       -2.5262420    -1.2439110     0.0001500
  C        3.1506810    -0.1849920    -0.0001670
  C        2.7828300     1.1426020    -0.0001250
  H       -1.0124600     2.2659460     0.0000190
  H       -3.5213850     2.0011240     0.0001460
  H       -4.4778440    -0.3237170     0.0002310
  H       -2.9027010    -2.2653680     0.0001840
  H        4.1496320    -0.6018500    -0.0002240
  H        3.4730500     1.9793660    -0.0001460
units angstrom
no_reorient  #important for SAPT in psi4, default
symmetry c1  #important for SAPT in psi4, default
}

set PROPERTIES_ORIGIN ["COM"]
properties('MP2/aug-cc-pvtz', properties = ['dipole'])
--------------------------------------------------------------------------

    Molecular point group: c1
  Charge       = 0
  Multiplicity = 1
  Basis Set: AUG-CC-PVTZ
    Blend: AUG-CC-PVTZ
  Basis Set: (AUG-CC-PVTZ AUX)
    Blend: AUG-CC-PVTZ-JKFIT

    Orbital Energies [Eh]
    ---------------------

    Doubly Occupied:

       1A    -91.997578     2A    -15.575469     3A    -15.559551
       4A    -11.318102     5A    -11.296329     6A    -11.272169
       7A    -11.269185     8A    -11.266410     9A    -11.261565
      10A    -11.249334    11A    -11.247128    12A     -8.997676
      13A     -6.678459    14A     -6.677920    15A     -6.677252
      16A     -1.302277    17A     -1.276579    18A     -1.095674
      19A     -1.073951    20A     -1.065492    21A     -0.987676
      22A     -0.884653    23A     -0.863047    24A     -0.793982
      25A     -0.774919    26A     -0.709113    27A     -0.688661
      28A     -0.670726    29A     -0.639707    30A     -0.598497
      31A     -0.588975    32A     -0.587721    33A     -0.560422
      34A     -0.546868    35A     -0.535222    36A     -0.503873
      37A     -0.440051    38A     -0.401375    39A     -0.400103
      40A     -0.395085    41A     -0.377966    42A     -0.304328

  @DF-RHF Final Energy:  -812.99687849853149

   => Energetics <=

    Nuclear Repulsion Energy =            628.4748429006501738
    One-Electron Energy =               -2360.1212997614629785
    Two-Electron Energy =                 918.6495783622813178
    Total Energy =                       -812.9968784985314869
  Basis Set: (AUG-CC-PVTZ AUX)
    Blend: AUG-CC-PVTZ-RI
    Molecular point group: c1

    Geometry (in Angstrom), charge = 0, multiplicity = 1:

       Center              X                  Y                   Z               Mass
    ------------   -----------------  -----------------  -----------------  -----------------
         S            1.746936045998    -1.174343588740    -0.000109103928    31.972071174400
         N           -1.332395454002    -1.043722188740     0.000089896072    14.003074004430
         N            1.421442045998     1.394681411260    -0.000056103928    14.003074004430
         C           -0.703706954002     0.150014411260     0.000040896072    12.000000000000
         C            0.755318045998     0.250371411260    -0.000034103928    12.000000000000
         C           -1.501702954002     1.302735411260     0.000058896072    12.000000000000
         C           -2.883921954002     1.144626411260     0.000129896072    12.000000000000
         C           -3.418946954002    -0.145661588740     0.000176896072    12.000000000000
         C           -2.541141954002    -1.230524588740     0.000150896072    12.000000000000
         C            3.135781045998    -0.171605588740    -0.000166103928    12.000000000000
         C            2.767930045998     1.155988411260    -0.000124103928    12.000000000000
         H           -1.027359954002     2.279332411260     0.000019896072     1.007825032230
         H           -3.536284954002     2.014510411260     0.000146896072     1.007825032230
         H           -4.492743954002    -0.310330588740     0.000231896072     1.007825032230
         H           -2.917600954002    -2.251981588740     0.000184896072     1.007825032230
         H            4.134732045998    -0.588463588740    -0.000223103928     1.007825032230
         H            3.458150045998     1.992752411260    -0.000145103928     1.007825032230

  Basis Set: AUG-CC-PVTZ
    Blend: AUG-CC-PVTZ
  Basis Set: (AUG-CC-PVTZ AUX)
    Blend: AUG-CC-PVTZ-JKFIT
	 Reference Energy          =    -812.9968784985314869 [Eh]
	 Singles Energy            =      -0.0000000000000000 [Eh]
	 Same-Spin Energy          =      -0.5243125150453599 [Eh]
	 Opposite-Spin Energy      =      -1.5502457845736468 [Eh]
	 Correlation Energy        =      -2.0745582996190066 [Eh]
	 Total Energy              =    -815.0714367981504438 [Eh]

	 ================> DF-SCS-MP2 Energies <==================
	-----------------------------------------------------------
	 SCS Same-Spin Scale       =       0.3333333333333333 [-]
	 SCS Opposite-Spin Scale   =       1.2000000000000000 [-]
	 SCS Same-Spin Energy      =      -0.1747708383484533 [Eh]
	 SCS Opposite-Spin Energy  =      -1.8602949414883760 [Eh]
	 SCS Correlation Energy    =      -2.0350657798368292 [Eh]
	 SCS Total Energy          =    -815.0319442783683144 [Eh]
	-----------------------------------------------------------

  Dipole Moment: [D]
     X:    -0.3742      Y:     0.0716      Z:    -0.0000     Total:     0.3810

*** Psi4 exiting successfully. Buy a developer a beer!
