                               Psi4 1.3.2 release

  ==> Input File <==

--------------------------------------------------------------------------
#psi4
#
memory 32 gb

molecule  {
0 1
  S        1.7618360    -1.1877300    -0.0001100
  N       -1.1892720    -1.1162850     0.0000840
  N        1.4363420     1.3812950    -0.0000570
  C       -0.6888070     0.1366280     0.0000400
  C        0.8516637     0.1933060    -0.0000394
  C       -1.4868030     1.2893490     0.0000580
  C       -2.8690220     1.1312400     0.0001290
  C       -3.4040470    -0.1590480     0.0001760
  C       -2.5262420    -1.2439110     0.0001500
  C        3.1506810    -0.1849920    -0.0001670
  C        2.7828300     1.1426020    -0.0001250
  H       -1.0124600     2.2659460     0.0000190
  H       -3.5213850     2.0011240     0.0001460
  H       -4.4778440    -0.3237170     0.0002310
  H       -2.9027010    -2.2653680     0.0001840
  H        4.1496320    -0.6018500    -0.0002240
  H        3.4730500     1.9793660    -0.0001460
units angstrom
no_reorient  #important for SAPT in psi4, default
symmetry c1  #important for SAPT in psi4, default
}

set PROPERTIES_ORIGIN ["COM"]
properties('MP2/aug-cc-pvtz', properties = ['dipole'])
--------------------------------------------------------------------------

    Molecular point group: c1
  Charge       = 0
  Multiplicity = 1
  Basis Set: AUG-CC-PVTZ
    Blend: AUG-CC-PVTZ
  Basis Set: (AUG-CC-PVTZ AUX)
    Blend: AUG-CC-PVTZ-JKFIT

    Orbital Energies [Eh]
    ---------------------

    Doubly Occupied:

       1A    -92.000076     2A    -15.576269     3A    -15.571804
       4A    -11.311712     5A    -11.300183     6A    -11.283434
       7A    -11.270571     8A    -11.266176     9A    -11.261789
      10A    -11.248876    11A    -11.247917    12A     -9.001875
      13A     -6.682762    14A     -6.682054    15A     -6.681321
      16A     -1.291104    17A     -1.260031    18A     -1.095246
      19A     -1.075202    20A     -1.056937    21A     -0.988913
      22A     -0.867267    23A     -0.865779    24A     -0.791653
      25A     -0.762403    26A     -0.710224    27A     -0.678126
      28A     -0.666338    29A     -0.635984    30A     -0.589434
      31A     -0.582173    32A     -0.579210    33A     -0.563325
      34A     -0.538355    35A     -0.518413    36A     -0.508142
      37A     -0.452385    38A     -0.426383    39A     -0.394141
      40A     -0.392678    41A     -0.370791    42A     -0.312685

  @DF-RHF Final Energy:  -813.00186354780078

   => Energetics <=

    Nuclear Repulsion Energy =            627.5006693487441680
    One-Electron Energy =               -2358.2847906724250606
    Two-Electron Energy =                 917.7822577758801117
    Total Energy =                       -813.0018635478007809
  Basis Set: (AUG-CC-PVTZ AUX)
    Blend: AUG-CC-PVTZ-RI
    Molecular point group: c1

    Geometry (in Angstrom), charge = 0, multiplicity = 1:

       Center              X                  Y                   Z               Mass
    ------------   -----------------  -----------------  -----------------  -----------------
         S            1.729822213806    -1.165994271694    -0.000108345926    31.972071174400
         N           -1.221285786194    -1.094549271694     0.000085654074    14.003074004430
         N            1.404328213806     1.403030728306    -0.000055345926    14.003074004430
         C           -0.720820786194     0.158363728306     0.000041654074    12.000000000000
         C            0.819649913806     0.215041728306    -0.000037745926    12.000000000000
         C           -1.518816786194     1.311084728306     0.000059654074    12.000000000000
         C           -2.901035786194     1.152975728306     0.000130654074    12.000000000000
         C           -3.436060786194    -0.137312271694     0.000177654074    12.000000000000
         C           -2.558255786194    -1.222175271694     0.000151654074    12.000000000000
         C            3.118667213806    -0.163256271694    -0.000165345926    12.000000000000
         C            2.750816213806     1.164337728306    -0.000123345926    12.000000000000
         H           -1.044473786194     2.287681728306     0.000020654074     1.007825032230
         H           -3.553398786194     2.022859728306     0.000147654074     1.007825032230
         H           -4.509857786194    -0.301981271694     0.000232654074     1.007825032230
         H           -2.934714786194    -2.243632271694     0.000185654074     1.007825032230
         H            4.117618213806    -0.580114271694    -0.000222345926     1.007825032230
         H            3.441036213806     2.001101728306    -0.000144345926     1.007825032230

  Basis Set: AUG-CC-PVTZ
    Blend: AUG-CC-PVTZ
  Basis Set: (AUG-CC-PVTZ AUX)
    Blend: AUG-CC-PVTZ-JKFIT
	 Reference Energy          =    -813.0018635478007809 [Eh]
	 Singles Energy            =      -0.0000000000000000 [Eh]
	 Same-Spin Energy          =      -0.5249607685110907 [Eh]
	 Opposite-Spin Energy      =      -1.5529029080877033 [Eh]
	 Correlation Energy        =      -2.0778636765987941 [Eh]
	 Total Energy              =    -815.0797272243995621 [Eh]

	 ================> DF-SCS-MP2 Energies <==================
	-----------------------------------------------------------
	 SCS Same-Spin Scale       =       0.3333333333333333 [-]
	 SCS Opposite-Spin Scale   =       1.2000000000000000 [-]
	 SCS Same-Spin Energy      =      -0.1749869228370302 [Eh]
	 SCS Opposite-Spin Energy  =      -1.8634834897052439 [Eh]
	 SCS Correlation Energy    =      -2.0384704125422743 [Eh]
	 SCS Total Energy          =    -815.0403339603431050 [Eh]
	-----------------------------------------------------------

  Dipole Moment: [D]
     X:    -0.6469      Y:     0.0095      Z:    -0.0000     Total:     0.6469

*** Psi4 exiting successfully. Buy a developer a beer!
