                               Psi4 1.3.2 release

  ==> Input File <==

--------------------------------------------------------------------------
#psi4
#
memory 32 gb

molecule  {
0 1
  S        1.7618360    -1.1877300    -0.0001100
  N       -1.1892720    -1.1162850     0.0000840
  N        1.4363420     1.3812950    -0.0000570
  C       -0.6888070     0.1366280     0.0000400
  C        0.7503485     0.2487848    -0.0000339
  C       -1.4868030     1.2893490     0.0000580
  C       -2.8690220     1.1312400     0.0001290
  C       -3.4040470    -0.1590480     0.0001760
  C       -2.5262420    -1.2439110     0.0001500
  C        3.1506810    -0.1849920    -0.0001670
  C        2.7828300     1.1426020    -0.0001250
  H       -1.0124600     2.2659460     0.0000190
  H       -3.5213850     2.0011240     0.0001460
  H       -4.4778440    -0.3237170     0.0002310
  H       -2.9027010    -2.2653680     0.0001840
  H        4.1496320    -0.6018500    -0.0002240
  H        3.4730500     1.9793660    -0.0001460
units angstrom
no_reorient  #important for SAPT in psi4, default
symmetry c1  #important for SAPT in psi4, default
}

set PROPERTIES_ORIGIN ["COM"]
properties('MP2/aug-cc-pvtz', properties = ['dipole'])
--------------------------------------------------------------------------

    Molecular point group: c1
  Charge       = 0
  Multiplicity = 1
  Basis Set: AUG-CC-PVTZ
    Blend: AUG-CC-PVTZ
  Basis Set: (AUG-CC-PVTZ AUX)
    Blend: AUG-CC-PVTZ-JKFIT

    Orbital Energies [Eh]
    ---------------------

    Doubly Occupied:

       1A    -91.994364     2A    -15.579606     3A    -15.575085
       4A    -11.314416     5A    -11.296628     6A    -11.286039
       7A    -11.270086     8A    -11.267953     9A    -11.265877
      10A    -11.252044    11A    -11.250531    12A     -8.994048
      13A     -6.674808    14A     -6.674247    15A     -6.673613
      16A     -1.287139    17A     -1.260127    18A     -1.097021
      19A     -1.071259    20A     -1.060093    21A     -0.985695
      22A     -0.879584    23A     -0.870142    24A     -0.790792
      25A     -0.767551    26A     -0.706451    27A     -0.680609
      28A     -0.669624    29A     -0.640672    30A     -0.596181
      31A     -0.588844    32A     -0.581796    33A     -0.556918
      34A     -0.535334    35A     -0.531368    36A     -0.501469
      37A     -0.442724    38A     -0.423238    39A     -0.400355
      40A     -0.392612    41A     -0.371480    42A     -0.305556

  @DF-RHF Final Energy:  -813.00836307673148

   => Energetics <=

    Nuclear Repulsion Energy =            626.8395297061558722
    One-Electron Energy =               -2356.9678288626369067
    Two-Electron Energy =                 917.1199360797495501
    Total Energy =                       -813.0083630767314844
  Basis Set: (AUG-CC-PVTZ AUX)
    Blend: AUG-CC-PVTZ-RI
    Molecular point group: c1

    Geometry (in Angstrom), charge = 0, multiplicity = 1:

       Center              X                  Y                   Z               Mass
    ------------   -----------------  -----------------  -----------------  -----------------
         S            1.737325877617    -1.170103174049    -0.000108753270    31.972071174400
         N           -1.213782122383    -1.098658174049     0.000085246730    14.003074004430
         N            1.411831877617     1.398921825951    -0.000055753270    14.003074004430
         C           -0.713317122383     0.154254825951     0.000041246730    12.000000000000
         C            0.725838377617     0.266411625951    -0.000032653270    12.000000000000
         C           -1.511313122383     1.306975825951     0.000059246730    12.000000000000
         C           -2.893532122383     1.148866825951     0.000130246730    12.000000000000
         C           -3.428557122383    -0.141421174049     0.000177246730    12.000000000000
         C           -2.550752122383    -1.226284174049     0.000151246730    12.000000000000
         C            3.126170877617    -0.167365174049    -0.000165753270    12.000000000000
         C            2.758319877617     1.160228825951    -0.000123753270    12.000000000000
         H           -1.036970122383     2.283572825951     0.000020246730     1.007825032230
         H           -3.545895122383     2.018750825951     0.000147246730     1.007825032230
         H           -4.502354122383    -0.306090174049     0.000232246730     1.007825032230
         H           -2.927211122383    -2.247741174049     0.000185246730     1.007825032230
         H            4.125121877617    -0.584223174049    -0.000222753270     1.007825032230
         H            3.448539877617     1.996992825951    -0.000144753270     1.007825032230

  Basis Set: AUG-CC-PVTZ
    Blend: AUG-CC-PVTZ
  Basis Set: (AUG-CC-PVTZ AUX)
    Blend: AUG-CC-PVTZ-JKFIT
	 Reference Energy          =    -813.0083630767314844 [Eh]
	 Singles Energy            =      -0.0000000000000000 [Eh]
	 Same-Spin Energy          =      -0.5255944222168085 [Eh]
	 Opposite-Spin Energy      =      -1.5540715231381259 [Eh]
	 Correlation Energy        =      -2.0796659453549342 [Eh]
	 Total Energy              =    -815.0880290220864026 [Eh]

	 ================> DF-SCS-MP2 Energies <==================
	-----------------------------------------------------------
	 SCS Same-Spin Scale       =       0.3333333333333333 [-]
	 SCS Opposite-Spin Scale   =       1.2000000000000000 [-]
	 SCS Same-Spin Energy      =      -0.1751981407389362 [Eh]
	 SCS Opposite-Spin Energy  =      -1.8648858277657510 [Eh]
	 SCS Correlation Energy    =      -2.0400839685046872 [Eh]
	 SCS Total Energy          =    -815.0484470452361165 [Eh]
	-----------------------------------------------------------

  Dipole Moment: [D]
     X:    -0.8427      Y:     0.2449      Z:    -0.0000     Total:     0.8776

*** Psi4 exiting successfully. Buy a developer a beer!
