                               Psi4 1.3.2 release

  ==> Input File <==

--------------------------------------------------------------------------
#psi4
#
memory 32 gb

molecule  {
0 1
  S        1.7618360    -1.1877300    -0.0001100
  N       -1.1892720    -1.1162850     0.0000840
  N        1.4363420     1.3812950    -0.0000570
  C       -0.6888070     0.1366280     0.0000400
  C        0.7702180     0.2369850    -0.0000350
  C       -1.4868030     1.2893490     0.0000580
  C       -2.8690220     1.1312400     0.0001290
  C       -3.4040470    -0.1590480     0.0001760
  C       -2.5262420    -1.2439110     0.0001500
  C        3.0098945    -0.2161702    -0.0001603
  C        2.7828300     1.1426020    -0.0001250
  H       -1.0124600     2.2659460     0.0000190
  H       -3.5213850     2.0011240     0.0001460
  H       -4.4778440    -0.3237170     0.0002310
  H       -2.9027010    -2.2653680     0.0001840
  H        4.1496320    -0.6018500    -0.0002240
  H        3.4730500     1.9793660    -0.0001460
units angstrom
no_reorient  #important for SAPT in psi4, default
symmetry c1  #important for SAPT in psi4, default
}

set PROPERTIES_ORIGIN ["COM"]
properties('MP2/aug-cc-pvtz', properties = ['dipole'])
--------------------------------------------------------------------------

    Molecular point group: c1
  Charge       = 0
  Multiplicity = 1
  Basis Set: AUG-CC-PVTZ
    Blend: AUG-CC-PVTZ
  Basis Set: (AUG-CC-PVTZ AUX)
    Blend: AUG-CC-PVTZ-JKFIT

    Orbital Energies [Eh]
    ---------------------

    Doubly Occupied:

       1A    -91.998855     2A    -15.575527     3A    -15.574962
       4A    -11.305354     5A    -11.295082     6A    -11.283500
       7A    -11.267221     8A    -11.265730     9A    -11.265246
      10A    -11.247606    11A    -11.245974    12A     -9.002260
      13A     -6.683410    14A     -6.682218    15A     -6.681551
      16A     -1.292786    17A     -1.260505    18A     -1.098138
      19A     -1.088090    20A     -1.064154    21A     -0.981632
      22A     -0.873178    23A     -0.866817    24A     -0.778935
      25A     -0.768630    26A     -0.709204    27A     -0.679986
      28A     -0.661538    29A     -0.637789    30A     -0.591736
      31A     -0.586174    32A     -0.582493    33A     -0.541649
      34A     -0.539399    35A     -0.533665    36A     -0.511167
      37A     -0.442416    38A     -0.425508    39A     -0.408360
      40A     -0.393159    41A     -0.369482    42A     -0.299714

  @DF-RHF Final Energy:  -812.98260135540602

   => Energetics <=

    Nuclear Repulsion Energy =            630.5954095225242781
    One-Electron Energy =               -2364.4344251557999996
    Two-Electron Energy =                 920.8564142778697033
    Total Energy =                       -812.9826013554060182
  Basis Set: (AUG-CC-PVTZ AUX)
    Blend: AUG-CC-PVTZ-RI
    Molecular point group: c1

    Geometry (in Angstrom), charge = 0, multiplicity = 1:

       Center              X                  Y                   Z               Mass
    ------------   -----------------  -----------------  -----------------  -----------------
         S            1.746281301059    -1.166920113035    -0.000109168021    31.972071174400
         N           -1.204826698941    -1.095475113035     0.000084831979    14.003074004430
         N            1.420787301059     1.402104886965    -0.000056168021    14.003074004430
         C           -0.704361698941     0.157437886965     0.000040831979    12.000000000000
         C            0.754663301059     0.257794886965    -0.000034168021    12.000000000000
         C           -1.502357698941     1.310158886965     0.000058831979    12.000000000000
         C           -2.884576698941     1.152049886965     0.000129831979    12.000000000000
         C           -3.419601698941    -0.138238113035     0.000176831979    12.000000000000
         C           -2.541796698941    -1.223101113035     0.000150831979    12.000000000000
         C            2.994339801059    -0.195360313035    -0.000159468021    12.000000000000
         C            2.767275301059     1.163411886965    -0.000124168021    12.000000000000
         H           -1.028014698941     2.286755886965     0.000019831979     1.007825032230
         H           -3.536939698941     2.021933886965     0.000146831979     1.007825032230
         H           -4.493398698941    -0.302907113035     0.000231831979     1.007825032230
         H           -2.918255698941    -2.244558113035     0.000184831979     1.007825032230
         H            4.134077301059    -0.581040113035    -0.000223168021     1.007825032230
         H            3.457495301059     2.000175886965    -0.000145168021     1.007825032230

  Basis Set: AUG-CC-PVTZ
    Blend: AUG-CC-PVTZ
  Basis Set: (AUG-CC-PVTZ AUX)
    Blend: AUG-CC-PVTZ-JKFIT
	 Reference Energy          =    -812.9826013554060182 [Eh]
	 Singles Energy            =      -0.0000000000000000 [Eh]
	 Same-Spin Energy          =      -0.5279410058321201 [Eh]
	 Opposite-Spin Energy      =      -1.5557150871678822 [Eh]
	 Correlation Energy        =      -2.0836560930000023 [Eh]
	 Total Energy              =    -815.0662574484060769 [Eh]

	 ================> DF-SCS-MP2 Energies <==================
	-----------------------------------------------------------
	 SCS Same-Spin Scale       =       0.3333333333333333 [-]
	 SCS Opposite-Spin Scale   =       1.2000000000000000 [-]
	 SCS Same-Spin Energy      =      -0.1759803352773734 [Eh]
	 SCS Opposite-Spin Energy  =      -1.8668581046014585 [Eh]
	 SCS Correlation Energy    =      -2.0428384398788317 [Eh]
	 SCS Total Energy          =    -815.0254397952847967 [Eh]
	-----------------------------------------------------------

  Dipole Moment: [D]
     X:    -0.6683      Y:     0.0907      Z:    -0.0000     Total:     0.6744

*** Psi4 exiting successfully. Buy a developer a beer!
