                               Psi4 1.4a3.dev225

  ==> Input File <==

--------------------------------------------------------------------------
#psi4
#
memory 32 gb

molecule  {
0 1
  S        1.7618360    -1.1877300    -0.0001100
  N       -1.1892720    -1.1162850     0.0000840
  N        1.4363420     1.3812950    -0.0000570
  C       -0.6888070     0.1366280     0.0000400
  C        0.7702180     0.2369850    -0.0000350
  C       -1.4868030     1.2893490     0.0000580
  C       -2.8690220     1.1312400     0.0001290
  C       -3.4040470    -0.1590480     0.0001760
  C       -2.5063325    -1.2420105     0.0001490
  C        3.1506810    -0.1849920    -0.0001670
  C        2.7828300     1.1426020    -0.0001250
  H       -1.0124600     2.2659460     0.0000190
  H       -3.5213850     2.0011240     0.0001460
  H       -4.4778440    -0.3237170     0.0002310
  H       -2.9027010    -2.2653680     0.0001840
  H        4.1496320    -0.6018500    -0.0002240
  H        3.4730500     1.9793660    -0.0001460
units angstrom
no_reorient  #important for SAPT in psi4, default
symmetry c1  #important for SAPT in psi4, default
}

set PROPERTIES_ORIGIN ["COM"]
properties('MP2/aug-cc-pvtz', properties = ['dipole'])
--------------------------------------------------------------------------

    Molecular point group: c1
  Charge       = 0
  Multiplicity = 1
  Basis Set: AUG-CC-PVTZ
    Blend: AUG-CC-PVTZ
  Basis Set: (AUG-CC-PVTZ AUX)
    Blend: AUG-CC-PVTZ-JKFIT

    Orbital Energies [Eh]
    ---------------------

    Doubly Occupied:

       1A    -91.995714     2A    -15.577816     3A    -15.574082
       4A    -11.313765     5A    -11.297312     6A    -11.285868
       7A    -11.270140     8A    -11.267273     9A    -11.264955
      10A    -11.252260    11A    -11.249940    12A     -8.995745
      13A     -6.676513    14A     -6.675965    15A     -6.675299
      16A     -1.289039    17A     -1.263912    18A     -1.097207
      19A     -1.068238    20A     -1.062696    21A     -0.985574
      22A     -0.877802    23A     -0.868403    24A     -0.790953
      25A     -0.766557    26A     -0.707153    27A     -0.680166
      28A     -0.670583    29A     -0.638055    30A     -0.592743
      31A     -0.587932    32A     -0.582286    33A     -0.559099
      34A     -0.537341    35A     -0.530035    36A     -0.502736
      37A     -0.443548    38A     -0.424136    39A     -0.398420
      40A     -0.393918    41A     -0.372298    42A     -0.306033

  @DF-RHF Final Energy:  -813.00965115261249

   => Energetics <=

    Nuclear Repulsion Energy =            627.2698900457774016
    One-Electron Energy =               -2357.8200646522777788
    Two-Electron Energy =                 917.5405234538878858
    Total Energy =                       -813.0096511526124914
  Basis Set: (AUG-CC-PVTZ AUX)
    Blend: AUG-CC-PVTZ-RI
    Molecular point group: c1

    Geometry (in Angstrom), charge = 0, multiplicity = 1:

       Center              X                  Y                   Z               Mass
    ------------   -----------------  -----------------  -----------------  -----------------
         S            1.734379742756    -1.169370006477    -0.000108597739    31.972071174400
         N           -1.216728257244    -1.097925006477     0.000085402261    14.003074004430
         N            1.408885742756     1.399654993523    -0.000055597739    14.003074004430
         C           -0.716263257244     0.154987993523     0.000041402261    12.000000000000
         C            0.742761742756     0.255344993523    -0.000033597739    12.000000000000
         C           -1.514259257244     1.307708993523     0.000059402261    12.000000000000
         C           -2.896478257244     1.149599993523     0.000130402261    12.000000000000
         C           -3.431503257244    -0.140688006477     0.000177402261    12.000000000000
         C           -2.533788757244    -1.223650506477     0.000150402261    12.000000000000
         C            3.123224742756    -0.166632006477    -0.000165597739    12.000000000000
         C            2.755373742756     1.160961993523    -0.000123597739    12.000000000000
         H           -1.039916257244     2.284305993523     0.000020402261     1.007825032230
         H           -3.548841257244     2.019483993523     0.000147402261     1.007825032230
         H           -4.505300257244    -0.305357006477     0.000232402261     1.007825032230
         H           -2.930157257244    -2.247008006477     0.000185402261     1.007825032230
         H            4.122175742756    -0.583490006477    -0.000222597739     1.007825032230
         H            3.445593742756     1.997725993523    -0.000144597739     1.007825032230

  Basis Set: AUG-CC-PVTZ
    Blend: AUG-CC-PVTZ
  Basis Set: (AUG-CC-PVTZ AUX)
    Blend: AUG-CC-PVTZ-JKFIT
	 Reference Energy          =    -813.0096511526124914 [Eh]
	 Singles Energy            =      -0.0000000000000000 [Eh]
	 Same-Spin Energy          =      -0.5252132766745716 [Eh]
	 Opposite-Spin Energy      =      -1.5532450738785339 [Eh]
	 Correlation Energy        =      -2.0784583505531056 [Eh]
	 Total Energy              =    -815.0881095031655832 [Eh]

	 ================> DF-SCS-MP2 Energies <==================
	-----------------------------------------------------------
	 SCS Same-Spin Scale       =       0.3333333333333333 [-]
	 SCS Opposite-Spin Scale   =       1.2000000000000000 [-]
	 SCS Same-Spin Energy      =      -0.1750710922248572 [Eh]
	 SCS Opposite-Spin Energy  =      -1.8638940886542406 [Eh]
	 SCS Correlation Energy    =      -2.0389651808790976 [Eh]
	 SCS Total Energy          =    -815.0486163334916228 [Eh]
	-----------------------------------------------------------

  Dipole Moment: [D]
     X:    -0.7890      Y:     0.1938      Z:    -0.0000     Total:     0.8125

*** Psi4 exiting successfully. Buy a developer a beer!
