                               Psi4 1.3.2 release

  ==> Input File <==

--------------------------------------------------------------------------
#psi4
#
memory 32 gb

molecule  {
0 1
  S        1.7618360    -1.1877300    -0.0001100
  N       -1.1892720    -1.1162850     0.0000840
  N        1.4363420     1.3812950    -0.0000570
  C       -0.6888070     0.1366280     0.0000400
  C        0.6704537     0.2301229    -0.0000299
  C       -1.4868030     1.2893490     0.0000580
  C       -2.8690220     1.1312400     0.0001290
  C       -3.4040470    -0.1590480     0.0001760
  C       -2.5262420    -1.2439110     0.0001500
  C        3.1506810    -0.1849920    -0.0001670
  C        2.7828300     1.1426020    -0.0001250
  H       -1.0124600     2.2659460     0.0000190
  H       -3.5213850     2.0011240     0.0001460
  H       -4.4778440    -0.3237170     0.0002310
  H       -2.9027010    -2.2653680     0.0001840
  H        4.1496320    -0.6018500    -0.0002240
  H        3.4730500     1.9793660    -0.0001460
units angstrom
no_reorient  #important for SAPT in psi4, default
symmetry c1  #important for SAPT in psi4, default
}

set PROPERTIES_ORIGIN ["COM"]
properties('MP2/aug-cc-pvtz', properties = ['dipole'])
--------------------------------------------------------------------------

    Molecular point group: c1
  Charge       = 0
  Multiplicity = 1
  Basis Set: AUG-CC-PVTZ
    Blend: AUG-CC-PVTZ
  Basis Set: (AUG-CC-PVTZ AUX)
    Blend: AUG-CC-PVTZ-JKFIT

    Orbital Energies [Eh]
    ---------------------

    Doubly Occupied:

       1A    -91.996088     2A    -15.580153     3A    -15.579096
       4A    -11.316485     5A    -11.291000     6A    -11.286829
       7A    -11.270850     8A    -11.268874     9A    -11.267657
      10A    -11.253626    11A    -11.252629    12A     -8.994787
      13A     -6.675516    14A     -6.674989    15A     -6.674447
      16A     -1.283309    17A     -1.249041    18A     -1.098761
      19A     -1.083368    20A     -1.052822    21A     -0.984015
      22A     -0.889624    23A     -0.873019    24A     -0.786992
      25A     -0.769506    26A     -0.704113    27A     -0.681199
      28A     -0.671957    29A     -0.643391    30A     -0.601828
      31A     -0.589763    32A     -0.582387    33A     -0.551935
      34A     -0.537475    35A     -0.530011    36A     -0.498600
      37A     -0.438877    38A     -0.419168    39A     -0.405015
      40A     -0.390519    41A     -0.372839    42A     -0.296630

  @DF-RHF Final Energy:  -812.98863331182179

   => Energetics <=

    Nuclear Repulsion Energy =            626.6912777188933887
    One-Electron Energy =               -2356.6214368378200561
    Two-Electron Energy =                 916.9415258071048811
    Total Energy =                       -812.9886333118217863
  Basis Set: (AUG-CC-PVTZ AUX)
    Blend: AUG-CC-PVTZ-RI
    Molecular point group: c1

    Geometry (in Angstrom), charge = 0, multiplicity = 1:

       Center              X                  Y                   Z               Mass
    ------------   -----------------  -----------------  -----------------  -----------------
         S            1.743243091614    -1.168721025826    -0.000109049521    31.972071174400
         N           -1.207864908386    -1.097276025826     0.000084950479    14.003074004430
         N            1.417749091614     1.400303974174    -0.000056049521    14.003074004430
         C           -0.707399908386     0.155636974174     0.000040950479    12.000000000000
         C            0.651860791614     0.249131874174    -0.000028949521    12.000000000000
         C           -1.505395908386     1.308357974174     0.000058950479    12.000000000000
         C           -2.887614908386     1.150248974174     0.000129950479    12.000000000000
         C           -3.422639908386    -0.140039025826     0.000176950479    12.000000000000
         C           -2.544834908386    -1.224902025826     0.000150950479    12.000000000000
         C            3.132088091614    -0.165983025826    -0.000166049521    12.000000000000
         C            2.764237091614     1.161610974174    -0.000124049521    12.000000000000
         H           -1.031052908386     2.284954974174     0.000019950479     1.007825032230
         H           -3.539977908386     2.020132974174     0.000146950479     1.007825032230
         H           -4.496436908386    -0.304708025826     0.000231950479     1.007825032230
         H           -2.921293908386    -2.246359025826     0.000184950479     1.007825032230
         H            4.131039091614    -0.582841025826    -0.000223049521     1.007825032230
         H            3.454457091614     1.998374974174    -0.000145049521     1.007825032230

  Basis Set: AUG-CC-PVTZ
    Blend: AUG-CC-PVTZ
  Basis Set: (AUG-CC-PVTZ AUX)
    Blend: AUG-CC-PVTZ-JKFIT
	 Reference Energy          =    -812.9886333118217863 [Eh]
	 Singles Energy            =      -0.0000000000000000 [Eh]
	 Same-Spin Energy          =      -0.5285528675768023 [Eh]
	 Opposite-Spin Energy      =      -1.5587256006627013 [Eh]
	 Correlation Energy        =      -2.0872784682395036 [Eh]
	 Total Energy              =    -815.0759117800612330 [Eh]

	 ================> DF-SCS-MP2 Energies <==================
	-----------------------------------------------------------
	 SCS Same-Spin Scale       =       0.3333333333333333 [-]
	 SCS Opposite-Spin Scale   =       1.2000000000000000 [-]
	 SCS Same-Spin Energy      =      -0.1761842891922674 [Eh]
	 SCS Opposite-Spin Energy  =      -1.8704707207952413 [Eh]
	 SCS Correlation Energy    =      -2.0466550099875089 [Eh]
	 SCS Total Energy          =    -815.0352883218092757 [Eh]
	-----------------------------------------------------------

  Dipole Moment: [D]
     X:    -0.7848      Y:     0.2653      Z:    -0.0000     Total:     0.8285

*** Psi4 exiting successfully. Buy a developer a beer!
