                               Psi4 1.3.2 release

  ==> Input File <==

--------------------------------------------------------------------------
#psi4
#
memory 32 gb

molecule  {
0 1
  S        1.7618360    -1.1877300    -0.0001100
  N       -1.1892720    -1.1162850     0.0000840
  N        1.3130799     1.4446553    -0.0000499
  C       -0.6888070     0.1366280     0.0000400
  C        0.7702180     0.2369850    -0.0000350
  C       -1.4868030     1.2893490     0.0000580
  C       -2.8690220     1.1312400     0.0001290
  C       -3.4040470    -0.1590480     0.0001760
  C       -2.5262420    -1.2439110     0.0001500
  C        3.1506810    -0.1849920    -0.0001670
  C        2.7828300     1.1426020    -0.0001250
  H       -1.0124600     2.2659460     0.0000190
  H       -3.5213850     2.0011240     0.0001460
  H       -4.4778440    -0.3237170     0.0002310
  H       -2.9027010    -2.2653680     0.0001840
  H        4.1496320    -0.6018500    -0.0002240
  H        3.4730500     1.9793660    -0.0001460
units angstrom
no_reorient  #important for SAPT in psi4, default
symmetry c1  #important for SAPT in psi4, default
}

set PROPERTIES_ORIGIN ["COM"]
properties('MP2/aug-cc-pvtz', properties = ['dipole'])
--------------------------------------------------------------------------

    Molecular point group: c1
  Charge       = 0
  Multiplicity = 1
  Basis Set: AUG-CC-PVTZ
    Blend: AUG-CC-PVTZ
  Basis Set: (AUG-CC-PVTZ AUX)
    Blend: AUG-CC-PVTZ-JKFIT

    Orbital Energies [Eh]
    ---------------------

    Doubly Occupied:

       1A    -91.995961     2A    -15.588275     3A    -15.577932
       4A    -11.316639     5A    -11.293788     6A    -11.283869
       7A    -11.281894     8A    -11.270527     9A    -11.266207
      10A    -11.250710    11A    -11.248399    12A     -8.996319
      13A     -6.677187    14A     -6.676499    15A     -6.675728
      16A     -1.278418    17A     -1.245888    18A     -1.095770
      19A     -1.075778    20A     -1.054745    21A     -0.980247
      22A     -0.875943    23A     -0.867597    24A     -0.780739
      25A     -0.767724    26A     -0.703751    27A     -0.675617
      28A     -0.668329    29A     -0.633880    30A     -0.591838
      31A     -0.576786    32A     -0.574000    33A     -0.557393
      34A     -0.529405    35A     -0.525165    36A     -0.507906
      37A     -0.454368    38A     -0.425753    39A     -0.403699
      40A     -0.390822    41A     -0.363002    42A     -0.314143

  @DF-RHF Final Energy:  -812.99235763142724

   => Energetics <=

    Nuclear Repulsion Energy =            625.2709571067670140
    One-Electron Energy =               -2353.8893489905403840
    Two-Electron Energy =                 915.6260342523460167
    Total Energy =                       -812.9923576314272395
  Basis Set: (AUG-CC-PVTZ AUX)
    Blend: AUG-CC-PVTZ-RI
    Molecular point group: c1

    Geometry (in Angstrom), charge = 0, multiplicity = 1:

       Center              X                  Y                   Z               Mass
    ------------   -----------------  -----------------  -----------------  -----------------
         S            1.746507255511    -1.174705183556    -0.000109285421    31.972071174400
         N           -1.204600744489    -1.103260183556     0.000084714579    14.003074004430
         N            1.297751155511     1.457680116444    -0.000049185421    14.003074004430
         C           -0.704135744489     0.149652816444     0.000040714579    12.000000000000
         C            0.754889255511     0.250009816444    -0.000034285421    12.000000000000
         C           -1.502131744489     1.302373816444     0.000058714579    12.000000000000
         C           -2.884350744489     1.144264816444     0.000129714579    12.000000000000
         C           -3.419375744489    -0.146023183556     0.000176714579    12.000000000000
         C           -2.541570744489    -1.230886183556     0.000150714579    12.000000000000
         C            3.135352255511    -0.171967183556    -0.000166285421    12.000000000000
         C            2.767501255511     1.155626816444    -0.000124285421    12.000000000000
         H           -1.027788744489     2.278970816444     0.000019714579     1.007825032230
         H           -3.536713744489     2.014148816444     0.000146714579     1.007825032230
         H           -4.493172744489    -0.310692183556     0.000231714579     1.007825032230
         H           -2.918029744489    -2.252343183556     0.000184714579     1.007825032230
         H            4.134303255511    -0.588825183556    -0.000223285421     1.007825032230
         H            3.457721255511     1.992390816444    -0.000145285421     1.007825032230

  Basis Set: AUG-CC-PVTZ
    Blend: AUG-CC-PVTZ
  Basis Set: (AUG-CC-PVTZ AUX)
    Blend: AUG-CC-PVTZ-JKFIT
	 Reference Energy          =    -812.9923576314272395 [Eh]
	 Singles Energy            =      -0.0000000000000000 [Eh]
	 Same-Spin Energy          =      -0.5242162554203494 [Eh]
	 Opposite-Spin Energy      =      -1.5563852638740014 [Eh]
	 Correlation Energy        =      -2.0806015192943508 [Eh]
	 Total Energy              =    -815.0729591507215446 [Eh]

	 ================> DF-SCS-MP2 Energies <==================
	-----------------------------------------------------------
	 SCS Same-Spin Scale       =       0.3333333333333333 [-]
	 SCS Opposite-Spin Scale   =       1.2000000000000000 [-]
	 SCS Same-Spin Energy      =      -0.1747387518067831 [Eh]
	 SCS Opposite-Spin Energy  =      -1.8676623166488016 [Eh]
	 SCS Correlation Energy    =      -2.0424010684555847 [Eh]
	 SCS Total Energy          =    -815.0347586998827865 [Eh]
	-----------------------------------------------------------

  Dipole Moment: [D]
     X:    -0.6711      Y:     0.0815      Z:    -0.0000     Total:     0.6761

*** Psi4 exiting successfully. Buy a developer a beer!
