                               Psi4 1.4a3.dev225

  ==> Input File <==

--------------------------------------------------------------------------
#psi4
#
memory 32 gb

molecule  {
0 1
  S        1.7618360    -1.1877300    -0.0001100
  N       -1.1892720    -1.1162850     0.0000840
  N        1.4363420     1.3812950    -0.0000570
  C       -0.6888070     0.1366280     0.0000400
  C        0.7702180     0.2369850    -0.0000350
  C       -1.4868030     1.2893490     0.0000580
  C       -2.8690220     1.1312400     0.0001290
  C       -3.4040470    -0.1590480     0.0001760
  C       -2.5262420    -1.2439110     0.0001500
  C        3.1506810    -0.1849920    -0.0001670
  C        2.7694790     1.1907865    -0.0001235
  H       -1.0124600     2.2659460     0.0000190
  H       -3.5213850     2.0011240     0.0001460
  H       -4.4778440    -0.3237170     0.0002310
  H       -2.9027010    -2.2653680     0.0001840
  H        4.1496320    -0.6018500    -0.0002240
  H        3.4730500     1.9793660    -0.0001460
units angstrom
no_reorient  #important for SAPT in psi4, default
symmetry c1  #important for SAPT in psi4, default
}

set PROPERTIES_ORIGIN ["COM"]
properties('MP2/aug-cc-pvtz', properties = ['dipole'])
--------------------------------------------------------------------------

    Molecular point group: c1
  Charge       = 0
  Multiplicity = 1
  Basis Set: AUG-CC-PVTZ
    Blend: AUG-CC-PVTZ
  Basis Set: (AUG-CC-PVTZ AUX)
    Blend: AUG-CC-PVTZ-JKFIT

    Orbital Energies [Eh]
    ---------------------

    Doubly Occupied:

       1A    -91.999099     2A    -15.577819     3A    -15.574489
       4A    -11.312524     5A    -11.297119     6A    -11.284956
       7A    -11.273597     8A    -11.270903     9A    -11.266922
      10A    -11.250208    11A    -11.248831    12A     -8.998724
      13A     -6.679458    14A     -6.678916    15A     -6.678334
      16A     -1.288465    17A     -1.260474    18A     -1.095785
      19A     -1.066664    20A     -1.062197    21A     -0.983793
      22A     -0.874690    23A     -0.868925    24A     -0.793711
      25A     -0.767987    26A     -0.705299    27A     -0.680485
      28A     -0.667769    29A     -0.642143    30A     -0.598255
      31A     -0.590375    32A     -0.581259    33A     -0.557713
      34A     -0.535214    35A     -0.528660    36A     -0.502114
      37A     -0.441589    38A     -0.424414    39A     -0.396859
      40A     -0.394202    41A     -0.371704    42A     -0.300428

  @DF-RHF Final Energy:  -813.00395042168361

   => Energetics <=

    Nuclear Repulsion Energy =            626.4481380076083497
    One-Electron Energy =               -2356.1580372064672702
    Two-Electron Energy =                 916.7059487771753084
    Total Energy =                       -813.0039504216836121
  Basis Set: (AUG-CC-PVTZ AUX)
    Blend: AUG-CC-PVTZ-RI
    Molecular point group: c1

    Geometry (in Angstrom), charge = 0, multiplicity = 1:

       Center              X                  Y                   Z               Mass
    ------------   -----------------  -----------------  -----------------  -----------------
         S            1.736843100773    -1.172797918339    -0.000108782895    31.972071174400
         N           -1.214264899227    -1.101352918339     0.000085217105    14.003074004430
         N            1.411349100773     1.396227081661    -0.000055782895    14.003074004430
         C           -0.713799899227     0.151560081661     0.000041217105    12.000000000000
         C            0.745225100773     0.251917081661    -0.000033782895    12.000000000000
         C           -1.511795899227     1.304281081661     0.000059217105    12.000000000000
         C           -2.894014899227     1.146172081661     0.000130217105    12.000000000000
         C           -3.429039899227    -0.144115918339     0.000177217105    12.000000000000
         C           -2.551234899227    -1.228978918339     0.000151217105    12.000000000000
         C            3.125688100773    -0.170059918339    -0.000165782895    12.000000000000
         C            2.744486100773     1.205718581661    -0.000122282895    12.000000000000
         H           -1.037452899227     2.280878081661     0.000020217105     1.007825032230
         H           -3.546377899227     2.016056081661     0.000147217105     1.007825032230
         H           -4.502836899227    -0.308784918339     0.000232217105     1.007825032230
         H           -2.927693899227    -2.250435918339     0.000185217105     1.007825032230
         H            4.124639100773    -0.586917918339    -0.000222782895     1.007825032230
         H            3.448057100773     1.994298081661    -0.000144782895     1.007825032230

  Basis Set: AUG-CC-PVTZ
    Blend: AUG-CC-PVTZ
  Basis Set: (AUG-CC-PVTZ AUX)
    Blend: AUG-CC-PVTZ-JKFIT
	 Reference Energy          =    -813.0039504216836121 [Eh]
	 Singles Energy            =      -0.0000000000000000 [Eh]
	 Same-Spin Energy          =      -0.5266785507174241 [Eh]
	 Opposite-Spin Energy      =      -1.5551920399303447 [Eh]
	 Correlation Energy        =      -2.0818705906477688 [Eh]
	 Total Energy              =    -815.0858210123313938 [Eh]

	 ================> DF-SCS-MP2 Energies <==================
	-----------------------------------------------------------
	 SCS Same-Spin Scale       =       0.3333333333333333 [-]
	 SCS Opposite-Spin Scale   =       1.2000000000000000 [-]
	 SCS Same-Spin Energy      =      -0.1755595169058080 [Eh]
	 SCS Opposite-Spin Energy  =      -1.8662304479164136 [Eh]
	 SCS Correlation Energy    =      -2.0417899648222217 [Eh]
	 SCS Total Energy          =    -815.0457403865058268 [Eh]
	-----------------------------------------------------------

  Dipole Moment: [D]
     X:    -0.7205      Y:     0.2223      Z:    -0.0000     Total:     0.7540

*** Psi4 exiting successfully. Buy a developer a beer!
