                               Psi4 1.3.2 release

  ==> Input File <==

--------------------------------------------------------------------------
#psi4
#
memory 32 gb

molecule  {
0 1
  S        1.7618360    -1.1877300    -0.0001100
  N       -1.1892720    -1.1162850     0.0000840
  N        1.4363420     1.3812950    -0.0000570
  C       -0.6888070     0.1366280     0.0000400
  C        0.7702180     0.2369850    -0.0000350
  C       -1.4868030     1.2893490     0.0000580
  C       -2.8690220     1.1312400     0.0001290
  C       -3.4040470    -0.1590480     0.0001760
  C       -2.5262420    -1.2439110     0.0001500
  C        3.1506810    -0.1849920    -0.0001670
  C        2.8763343     1.1650280    -0.0001292
  H       -1.0124600     2.2659460     0.0000190
  H       -3.5213850     2.0011240     0.0001460
  H       -4.4778440    -0.3237170     0.0002310
  H       -2.9027010    -2.2653680     0.0001840
  H        4.1496320    -0.6018500    -0.0002240
  H        3.4730500     1.9793660    -0.0001460
units angstrom
no_reorient  #important for SAPT in psi4, default
symmetry c1  #important for SAPT in psi4, default
}

set PROPERTIES_ORIGIN ["COM"]
properties('MP2/aug-cc-pvtz', properties = ['dipole'])
--------------------------------------------------------------------------

    Molecular point group: c1
  Charge       = 0
  Multiplicity = 1
  Basis Set: AUG-CC-PVTZ
    Blend: AUG-CC-PVTZ
  Basis Set: (AUG-CC-PVTZ AUX)
    Blend: AUG-CC-PVTZ-JKFIT

    Orbital Energies [Eh]
    ---------------------

    Doubly Occupied:

       1A    -91.994452     2A    -15.579549     3A    -15.576911
       4A    -11.313198     5A    -11.297670     6A    -11.285480
       7A    -11.271478     8A    -11.269671     9A    -11.267458
      10A    -11.251657    11A    -11.249916    12A     -8.994669
      13A     -6.675518    14A     -6.674848    15A     -6.674142
      16A     -1.278308    17A     -1.248105    18A     -1.096438
      19A     -1.068596    20A     -1.054186    21A     -0.989813
      22A     -0.879221    23A     -0.869012    24A     -0.790861
      25A     -0.770154    26A     -0.701979    27A     -0.685421
      28A     -0.667764    29A     -0.640593    30A     -0.595956
      31A     -0.587784    32A     -0.576714    33A     -0.550987
      34A     -0.530738    35A     -0.529371    36A     -0.517033
      37A     -0.440609    38A     -0.419058    39A     -0.400058
      40A     -0.389757    41A     -0.366216    42A     -0.312645

  @DF-RHF Final Energy:  -812.99788465564859

   => Energetics <=

    Nuclear Repulsion Energy =            624.8840098341257772
    One-Electron Energy =               -2353.0958036414785965
    Two-Electron Energy =                 915.2139091517043425
    Total Energy =                       -812.9978846556485905
  Basis Set: (AUG-CC-PVTZ AUX)
    Blend: AUG-CC-PVTZ-RI
    Molecular point group: c1

    Geometry (in Angstrom), charge = 0, multiplicity = 1:

       Center              X                  Y                   Z               Mass
    ------------   -----------------  -----------------  -----------------  -----------------
         S            1.728929122933    -1.170890177701    -0.000108360739    31.972071174400
         N           -1.222178877067    -1.099445177701     0.000085639261    14.003074004430
         N            1.403435122933     1.398134822299    -0.000055360739    14.003074004430
         C           -0.721713877067     0.153467822299     0.000041639261    12.000000000000
         C            0.737311122933     0.253824822299    -0.000033360739    12.000000000000
         C           -1.519709877067     1.306188822299     0.000059639261    12.000000000000
         C           -2.901928877067     1.148079822299     0.000130639261    12.000000000000
         C           -3.436953877067    -0.142208177701     0.000177639261    12.000000000000
         C           -2.559148877067    -1.227071177701     0.000151639261    12.000000000000
         C            3.117774122933    -0.168152177701    -0.000165360739    12.000000000000
         C            2.843427422933     1.181867822299    -0.000127560739    12.000000000000
         H           -1.045366877067     2.282785822299     0.000020639261     1.007825032230
         H           -3.554291877067     2.017963822299     0.000147639261     1.007825032230
         H           -4.510750877067    -0.306877177701     0.000232639261     1.007825032230
         H           -2.935607877067    -2.248528177701     0.000185639261     1.007825032230
         H            4.116725122933    -0.585010177701    -0.000222360739     1.007825032230
         H            3.440143122933     1.996205822299    -0.000144360739     1.007825032230

  Basis Set: AUG-CC-PVTZ
    Blend: AUG-CC-PVTZ
  Basis Set: (AUG-CC-PVTZ AUX)
    Blend: AUG-CC-PVTZ-JKFIT
	 Reference Energy          =    -812.9978846556485905 [Eh]
	 Singles Energy            =      -0.0000000000000000 [Eh]
	 Same-Spin Energy          =      -0.5242657950468543 [Eh]
	 Opposite-Spin Energy      =      -1.5546579742859288 [Eh]
	 Correlation Energy        =      -2.0789237693327829 [Eh]
	 Total Energy              =    -815.0768084249813228 [Eh]

	 ================> DF-SCS-MP2 Energies <==================
	-----------------------------------------------------------
	 SCS Same-Spin Scale       =       0.3333333333333333 [-]
	 SCS Opposite-Spin Scale   =       1.2000000000000000 [-]
	 SCS Same-Spin Energy      =      -0.1747552650156181 [Eh]
	 SCS Opposite-Spin Energy  =      -1.8655895691431144 [Eh]
	 SCS Correlation Energy    =      -2.0403448341587325 [Eh]
	 SCS Total Energy          =    -815.0382294898073496 [Eh]
	-----------------------------------------------------------

  Dipole Moment: [D]
     X:    -0.8744      Y:     0.2540      Z:    -0.0000     Total:     0.9105

*** Psi4 exiting successfully. Buy a developer a beer!
