                               Psi4 1.4a3.dev225

  ==> Input File <==

--------------------------------------------------------------------------
#psi4
#
memory 32 gb

molecule  {
0 1
  S        1.7618360    -1.1877300    -0.0001100
  N       -1.1892720    -1.1162850     0.0000840
  N        1.4363420     1.3812950    -0.0000570
  C       -0.6888070     0.1366280     0.0000400
  C        0.7802797     0.2542697    -0.0000353
  C       -1.4868030     1.2893490     0.0000580
  C       -2.8690220     1.1312400     0.0001290
  C       -3.4040470    -0.1590480     0.0001760
  C       -2.5262420    -1.2439110     0.0001500
  C        3.1506810    -0.1849920    -0.0001670
  C        2.7828300     1.1426020    -0.0001250
  H       -1.0124600     2.2659460     0.0000190
  H       -3.5213850     2.0011240     0.0001460
  H       -4.4778440    -0.3237170     0.0002310
  H       -2.9027010    -2.2653680     0.0001840
  H        4.1496320    -0.6018500    -0.0002240
  H        3.4730500     1.9793660    -0.0001460
units angstrom
no_reorient  #important for SAPT in psi4, default
symmetry c1  #important for SAPT in psi4, default
}

set PROPERTIES_ORIGIN ["COM"]
properties('MP2/aug-cc-pvtz', properties = ['dipole'])
--------------------------------------------------------------------------

    Molecular point group: c1
  Charge       = 0
  Multiplicity = 1
  Basis Set: AUG-CC-PVTZ
    Blend: AUG-CC-PVTZ
  Basis Set: (AUG-CC-PVTZ AUX)
    Blend: AUG-CC-PVTZ-JKFIT

    Orbital Energies [Eh]
    ---------------------

    Doubly Occupied:

       1A    -91.993952     2A    -15.579227     3A    -15.573545
       4A    -11.313385     5A    -11.298080     6A    -11.285649
       7A    -11.269996     8A    -11.267536     9A    -11.265340
      10A    -11.251366    11A    -11.249728    12A     -8.994014
      13A     -6.674785    14A     -6.674206    15A     -6.673537
      16A     -1.291466    17A     -1.261988    18A     -1.096410
      19A     -1.068361    20A     -1.062052    21A     -0.986225
      22A     -0.875924    23A     -0.868991    24A     -0.792853
      25A     -0.765720    26A     -0.707434    27A     -0.680405
      28A     -0.668739    29A     -0.639645    30A     -0.594111
      31A     -0.588446    32A     -0.582414    33A     -0.558234
      34A     -0.537019    35A     -0.528578    36A     -0.502528
      37A     -0.444941    38A     -0.423548    39A     -0.399273
      40A     -0.393441    41A     -0.370656    42A     -0.308413

  @DF-RHF Final Energy:  -813.01054916807777

   => Energetics <=

    Nuclear Repulsion Energy =            626.9399735950793229
    One-Electron Energy =               -2357.1767228500543752
    Two-Electron Energy =                 917.2262000868973928
    Total Energy =                       -813.0105491680777732
  Basis Set: (AUG-CC-PVTZ AUX)
    Blend: AUG-CC-PVTZ-RI
    Molecular point group: c1

    Geometry (in Angstrom), charge = 0, multiplicity = 1:

       Center              X                  Y                   Z               Mass
    ------------   -----------------  -----------------  -----------------  -----------------
         S            1.735109096105    -1.170509399824    -0.000108649583    31.972071174400
         N           -1.215998903895    -1.099064399824     0.000085350417    14.003074004430
         N            1.409615096105     1.398515600176    -0.000055649583    14.003074004430
         C           -0.715533903895     0.153848600176     0.000041350417    12.000000000000
         C            0.753552796105     0.271490300176    -0.000033949583    12.000000000000
         C           -1.513529903895     1.306569600176     0.000059350417    12.000000000000
         C           -2.895748903895     1.148460600176     0.000130350417    12.000000000000
         C           -3.430773903895    -0.141827399824     0.000177350417    12.000000000000
         C           -2.552968903895    -1.226690399824     0.000151350417    12.000000000000
         C            3.123954096105    -0.167771399824    -0.000165649583    12.000000000000
         C            2.756103096105     1.159822600176    -0.000123649583    12.000000000000
         H           -1.039186903895     2.283166600176     0.000020350417     1.007825032230
         H           -3.548111903895     2.018344600176     0.000147350417     1.007825032230
         H           -4.504570903895    -0.306496399824     0.000232350417     1.007825032230
         H           -2.929427903895    -2.248147399824     0.000185350417     1.007825032230
         H            4.122905096105    -0.584629399824    -0.000222649583     1.007825032230
         H            3.446323096105     1.996586600176    -0.000144649583     1.007825032230

  Basis Set: AUG-CC-PVTZ
    Blend: AUG-CC-PVTZ
  Basis Set: (AUG-CC-PVTZ AUX)
    Blend: AUG-CC-PVTZ-JKFIT
	 Reference Energy          =    -813.0105491680777732 [Eh]
	 Singles Energy            =      -0.0000000000000000 [Eh]
	 Same-Spin Energy          =      -0.5247266815621332 [Eh]
	 Opposite-Spin Energy      =      -1.5527802287742156 [Eh]
	 Correlation Energy        =      -2.0775069103363490 [Eh]
	 Total Energy              =    -815.0880560784140698 [Eh]

	 ================> DF-SCS-MP2 Energies <==================
	-----------------------------------------------------------
	 SCS Same-Spin Scale       =       0.3333333333333333 [-]
	 SCS Opposite-Spin Scale   =       1.2000000000000000 [-]
	 SCS Same-Spin Energy      =      -0.1749088938540444 [Eh]
	 SCS Opposite-Spin Energy  =      -1.8633362745290587 [Eh]
	 SCS Correlation Energy    =      -2.0382451683831029 [Eh]
	 SCS Total Energy          =    -815.0487943364609009 [Eh]
	-----------------------------------------------------------

  Dipole Moment: [D]
     X:    -0.8459      Y:     0.2343      Z:    -0.0000     Total:     0.8777

*** Psi4 exiting successfully. Buy a developer a beer!
