                               Psi4 1.3.2 release

  ==> Input File <==

--------------------------------------------------------------------------
#psi4
#
memory 32 gb

molecule  {
0 1
  S        1.7618360    -1.1877300    -0.0001100
  N       -1.1892720    -1.1162850     0.0000840
  N        1.4363420     1.3812950    -0.0000570
  C       -0.6888070     0.1366280     0.0000400
  C        0.9697466     0.2507093    -0.0000453
  C       -1.4868030     1.2893490     0.0000580
  C       -2.8690220     1.1312400     0.0001290
  C       -3.4040470    -0.1590480     0.0001760
  C       -2.5262420    -1.2439110     0.0001500
  C        3.1506810    -0.1849920    -0.0001670
  C        2.7828300     1.1426020    -0.0001250
  H       -1.0124600     2.2659460     0.0000190
  H       -3.5213850     2.0011240     0.0001460
  H       -4.4778440    -0.3237170     0.0002310
  H       -2.9027010    -2.2653680     0.0001840
  H        4.1496320    -0.6018500    -0.0002240
  H        3.4730500     1.9793660    -0.0001460
units angstrom
no_reorient  #important for SAPT in psi4, default
symmetry c1  #important for SAPT in psi4, default
}

set PROPERTIES_ORIGIN ["COM"]
properties('MP2/aug-cc-pvtz', properties = ['dipole'])
--------------------------------------------------------------------------

    Molecular point group: c1
  Charge       = 0
  Multiplicity = 1
  Basis Set: AUG-CC-PVTZ
    Blend: AUG-CC-PVTZ
  Basis Set: (AUG-CC-PVTZ AUX)
    Blend: AUG-CC-PVTZ-JKFIT

    Orbital Energies [Eh]
    ---------------------

    Doubly Occupied:

       1A    -91.997021     2A    -15.573980     3A    -15.566948
       4A    -11.309431     5A    -11.298915     6A    -11.281379
       7A    -11.272501     8A    -11.263669     9A    -11.263042
      10A    -11.245649    11A    -11.243918    12A     -8.999897
      13A     -6.680813    14A     -6.679948    15A     -6.679072
      16A     -1.329567    17A     -1.258529    18A     -1.097216
      19A     -1.086469    20A     -1.045316    21A     -0.989196
      22A     -0.862015    23A     -0.854639    24A     -0.804158
      25A     -0.751916    26A     -0.715624    27A     -0.678872
      28A     -0.662166    29A     -0.632624    30A     -0.595706
      31A     -0.587037    32A     -0.583294    33A     -0.558750
      34A     -0.540258    35A     -0.513201    36A     -0.505611
      37A     -0.457348    38A     -0.415899    39A     -0.404239
      40A     -0.389341    41A     -0.364505    42A     -0.321272

  @DF-RHF Final Energy:  -812.97134714903143

   => Energetics <=

    Nuclear Repulsion Energy =            628.0512643938769770
    One-Electron Energy =               -2359.3233221903533376
    Two-Electron Energy =                 918.3007106474450438
    Total Energy =                       -812.9713471490314305
  Basis Set: (AUG-CC-PVTZ AUX)
    Blend: AUG-CC-PVTZ-RI
    Molecular point group: c1

    Geometry (in Angstrom), charge = 0, multiplicity = 1:

       Center              X                  Y                   Z               Mass
    ------------   -----------------  -----------------  -----------------  -----------------
         S            1.721076691086    -1.170245707460    -0.000107908957    31.972071174400
         N           -1.230031308914    -1.098800707460     0.000086091043    14.003074004430
         N            1.395582691086     1.398779292540    -0.000054908957    14.003074004430
         C           -0.729566308914     0.154112292540     0.000042091043    12.000000000000
         C            0.928987291086     0.268193592540    -0.000043208957    12.000000000000
         C           -1.527562308914     1.306833292540     0.000060091043    12.000000000000
         C           -2.909781308914     1.148724292540     0.000131091043    12.000000000000
         C           -3.444806308914    -0.141563707460     0.000178091043    12.000000000000
         C           -2.567001308914    -1.226426707460     0.000152091043    12.000000000000
         C            3.109921691086    -0.167507707460    -0.000164908957    12.000000000000
         C            2.742070691086     1.160086292540    -0.000122908957    12.000000000000
         H           -1.053219308914     2.283430292540     0.000021091043     1.007825032230
         H           -3.562144308914     2.018608292540     0.000148091043     1.007825032230
         H           -4.518603308914    -0.306232707460     0.000233091043     1.007825032230
         H           -2.943460308914    -2.247883707460     0.000186091043     1.007825032230
         H            4.108872691086    -0.584365707460    -0.000221908957     1.007825032230
         H            3.432290691086     1.996850292540    -0.000143908957     1.007825032230

  Basis Set: AUG-CC-PVTZ
    Blend: AUG-CC-PVTZ
  Basis Set: (AUG-CC-PVTZ AUX)
    Blend: AUG-CC-PVTZ-JKFIT
	 Reference Energy          =    -812.9713471490314305 [Eh]
	 Singles Energy            =      -0.0000000000000000 [Eh]
	 Same-Spin Energy          =      -0.5228795010460422 [Eh]
	 Opposite-Spin Energy      =      -1.5506984673699691 [Eh]
	 Correlation Energy        =      -2.0735779684160112 [Eh]
	 Total Energy              =    -815.0449251174474057 [Eh]

	 ================> DF-SCS-MP2 Energies <==================
	-----------------------------------------------------------
	 SCS Same-Spin Scale       =       0.3333333333333333 [-]
	 SCS Opposite-Spin Scale   =       1.2000000000000000 [-]
	 SCS Same-Spin Energy      =      -0.1742931670153474 [Eh]
	 SCS Opposite-Spin Energy  =      -1.8608381608439628 [Eh]
	 SCS Correlation Energy    =      -2.0351313278593102 [Eh]
	 SCS Total Energy          =    -815.0064784768907202 [Eh]
	-----------------------------------------------------------

  Dipole Moment: [D]
     X:    -0.5756      Y:     0.0468      Z:    -0.0000     Total:     0.5775

*** Psi4 exiting successfully. Buy a developer a beer!
