                               Psi4 1.3.2 release

  ==> Input File <==

--------------------------------------------------------------------------
#psi4
#
memory 32 gb

molecule  {
0 1
  S        1.7618360    -1.1877300    -0.0001100
  N       -1.1892720    -1.1162850     0.0000840
  N        1.4363420     1.3812950    -0.0000570
  C       -0.6888070     0.1366280     0.0000400
  C        0.7702180     0.2369850    -0.0000350
  C       -1.5437220     1.3715696     0.0000593
  C       -2.8690220     1.1312400     0.0001290
  C       -3.4040470    -0.1590480     0.0001760
  C       -2.5262420    -1.2439110     0.0001500
  C        3.1506810    -0.1849920    -0.0001670
  C        2.7828300     1.1426020    -0.0001250
  H       -1.0124600     2.2659460     0.0000190
  H       -3.5213850     2.0011240     0.0001460
  H       -4.4778440    -0.3237170     0.0002310
  H       -2.9027010    -2.2653680     0.0001840
  H        4.1496320    -0.6018500    -0.0002240
  H        3.4730500     1.9793660    -0.0001460
units angstrom
no_reorient  #important for SAPT in psi4, default
symmetry c1  #important for SAPT in psi4, default
}

set PROPERTIES_ORIGIN ["COM"]
properties('MP2/aug-cc-pvtz', properties = ['dipole'])
--------------------------------------------------------------------------

    Molecular point group: c1
  Charge       = 0
  Multiplicity = 1
  Basis Set: AUG-CC-PVTZ
    Blend: AUG-CC-PVTZ
  Basis Set: (AUG-CC-PVTZ AUX)
    Blend: AUG-CC-PVTZ-JKFIT

    Orbital Energies [Eh]
    ---------------------

    Doubly Occupied:

       1A    -91.997530     2A    -15.579968     3A    -15.577355
       4A    -11.315633     5A    -11.308929     6A    -11.283598
       7A    -11.271932     8A    -11.267619     9A    -11.260159
      10A    -11.251990    11A    -11.249707    12A     -8.997543
      13A     -6.678302    14A     -6.677751    15A     -6.677085
      16A     -1.287785    17A     -1.258955    18A     -1.101061
      19A     -1.066403    20A     -1.060348    21A     -0.986653
      22A     -0.881477    23A     -0.862759    24A     -0.791039
      25A     -0.764281    26A     -0.709807    27A     -0.685874
      28A     -0.670066    29A     -0.635748    30A     -0.596676
      31A     -0.584914    32A     -0.580250    33A     -0.553781
      34A     -0.541108    35A     -0.534774    36A     -0.504084
      37A     -0.444578    38A     -0.420741    39A     -0.404424
      40A     -0.394211    41A     -0.369198    42A     -0.304098

  @DF-RHF Final Energy:  -812.99771629267116

   => Energetics <=

    Nuclear Repulsion Energy =            625.3711902579686921
    One-Electron Energy =               -2353.9574236839916921
    Two-Electron Energy =                 915.5885171333518429
    Total Energy =                       -812.9977162926711571
  Basis Set: (AUG-CC-PVTZ AUX)
    Blend: AUG-CC-PVTZ-RI
    Molecular point group: c1

    Geometry (in Angstrom), charge = 0, multiplicity = 1:

       Center              X                  Y                   Z               Mass
    ------------   -----------------  -----------------  -----------------  -----------------
         S            1.740069858702    -1.175318719284    -0.000108768083    31.972071174400
         N           -1.211038141298    -1.103873719284     0.000085231917    14.003074004430
         N            1.414575858702     1.393706280716    -0.000055768083    14.003074004430
         C           -0.710573141298     0.149039280716     0.000041231917    12.000000000000
         C            0.748451858702     0.249396280716    -0.000033768083    12.000000000000
         C           -1.565488141298     1.383980880716     0.000060531917    12.000000000000
         C           -2.890788141298     1.143651280716     0.000130231917    12.000000000000
         C           -3.425813141298    -0.146636719284     0.000177231917    12.000000000000
         C           -2.548008141298    -1.231499719284     0.000151231917    12.000000000000
         C            3.128914858702    -0.172580719284    -0.000165768083    12.000000000000
         C            2.761063858702     1.155013280716    -0.000123768083    12.000000000000
         H           -1.034226141298     2.278357280716     0.000020231917     1.007825032230
         H           -3.543151141298     2.013535280716     0.000147231917     1.007825032230
         H           -4.499610141298    -0.311305719284     0.000232231917     1.007825032230
         H           -2.924467141298    -2.252956719284     0.000185231917     1.007825032230
         H            4.127865858702    -0.589438719284    -0.000222768083     1.007825032230
         H            3.451283858702     1.991777280716    -0.000144768083     1.007825032230

  Basis Set: AUG-CC-PVTZ
    Blend: AUG-CC-PVTZ
  Basis Set: (AUG-CC-PVTZ AUX)
    Blend: AUG-CC-PVTZ-JKFIT
	 Reference Energy          =    -812.9977162926711571 [Eh]
	 Singles Energy            =      -0.0000000000000000 [Eh]
	 Same-Spin Energy          =      -0.5252811477017745 [Eh]
	 Opposite-Spin Energy      =      -1.5541973440157224 [Eh]
	 Correlation Energy        =      -2.0794784917174969 [Eh]
	 Total Energy              =    -815.0771947843886664 [Eh]

	 ================> DF-SCS-MP2 Energies <==================
	-----------------------------------------------------------
	 SCS Same-Spin Scale       =       0.3333333333333333 [-]
	 SCS Opposite-Spin Scale   =       1.2000000000000000 [-]
	 SCS Same-Spin Energy      =      -0.1750937159005915 [Eh]
	 SCS Opposite-Spin Energy  =      -1.8650368128188668 [Eh]
	 SCS Correlation Energy    =      -2.0401305287194584 [Eh]
	 SCS Total Energy          =    -815.0378468213906444 [Eh]
	-----------------------------------------------------------

  Dipole Moment: [D]
     X:    -0.6389      Y:     0.1819      Z:    -0.0000     Total:     0.6643

*** Psi4 exiting successfully. Buy a developer a beer!
