                               Psi4 1.3.2 release

  ==> Input File <==

--------------------------------------------------------------------------
#psi4
#
memory 32 gb

molecule  {
0 1
  S        1.7618360    -1.1877300    -0.0001100
  N       -1.1892720    -1.1162850     0.0000840
  N        1.4363420     1.3812950    -0.0000570
  C       -0.6888070     0.1366280     0.0000400
  C        0.7702180     0.2369850    -0.0000350
  C       -1.4868030     1.2893490     0.0000580
  C       -2.8690220     1.1312400     0.0001290
  C       -3.4040470    -0.1590480     0.0001760
  C       -2.5262420    -1.2439110     0.0001500
  C        3.1506810    -0.1849920    -0.0001670
  C        2.7294259     1.3353402    -0.0001189
  H       -1.0124600     2.2659460     0.0000190
  H       -3.5213850     2.0011240     0.0001460
  H       -4.4778440    -0.3237170     0.0002310
  H       -2.9027010    -2.2653680     0.0001840
  H        4.1496320    -0.6018500    -0.0002240
  H        3.4730500     1.9793660    -0.0001460
units angstrom
no_reorient  #important for SAPT in psi4, default
symmetry c1  #important for SAPT in psi4, default
}

set PROPERTIES_ORIGIN ["COM"]
properties('MP2/aug-cc-pvtz', properties = ['dipole'])
--------------------------------------------------------------------------

    Molecular point group: c1
  Charge       = 0
  Multiplicity = 1
  Basis Set: AUG-CC-PVTZ
    Blend: AUG-CC-PVTZ
  Basis Set: (AUG-CC-PVTZ AUX)
    Blend: AUG-CC-PVTZ-JKFIT

    Orbital Energies [Eh]
    ---------------------

    Doubly Occupied:

       1A    -92.009653     2A    -15.576986     3A    -15.573584
       4A    -11.307012     5A    -11.295631     6A    -11.285761
       7A    -11.283837     8A    -11.282747     9A    -11.264365
      10A    -11.245756    11A    -11.244611    12A     -9.008086
      13A     -6.688698    14A     -6.688188    15A     -6.687849
      16A     -1.291922    17A     -1.259888    18A     -1.093038
      19A     -1.072723    20A     -1.055404    21A     -0.977974
      22A     -0.870969    23A     -0.866587    24A     -0.801037
      25A     -0.774952    26A     -0.706331    27A     -0.680841
      28A     -0.662854    29A     -0.651100    30A     -0.611399
      31A     -0.587821    32A     -0.581223    33A     -0.554170
      34A     -0.533647    35A     -0.526324    36A     -0.495501
      37A     -0.430287    38A     -0.419829    39A     -0.403216
      40A     -0.392094    41A     -0.370048    42A     -0.282516

  @DF-RHF Final Energy:  -812.95858409423226

   => Energetics <=

    Nuclear Repulsion Energy =            625.0284568899191981
    One-Electron Energy =               -2353.1811690776062278
    Two-Electron Energy =                 915.1941280934547649
    Total Energy =                       -812.9585840942322648
  Basis Set: (AUG-CC-PVTZ AUX)
    Blend: AUG-CC-PVTZ-RI
    Molecular point group: c1

    Geometry (in Angstrom), charge = 0, multiplicity = 1:

       Center              X                  Y                   Z               Mass
    ------------   -----------------  -----------------  -----------------  -----------------
         S            1.739809536185    -1.183503936464    -0.000109123583    31.972071174400
         N           -1.211298463815    -1.112058936464     0.000084876417    14.003074004430
         N            1.414315536185     1.385521063536    -0.000056123583    14.003074004430
         C           -0.710833463815     0.140854063536     0.000040876417    12.000000000000
         C            0.748191536185     0.241211063536    -0.000034123583    12.000000000000
         C           -1.508829463815     1.293575063536     0.000058876417    12.000000000000
         C           -2.891048463815     1.135466063536     0.000129876417    12.000000000000
         C           -3.426073463815    -0.154821936464     0.000176876417    12.000000000000
         C           -2.548268463815    -1.239684936464     0.000150876417    12.000000000000
         C            3.128654536185    -0.180765936464    -0.000166123583    12.000000000000
         C            2.707399436185     1.339566263536    -0.000118023583    12.000000000000
         H           -1.034486463815     2.270172063536     0.000019876417     1.007825032230
         H           -3.543411463815     2.005350063536     0.000146876417     1.007825032230
         H           -4.499870463815    -0.319490936464     0.000231876417     1.007825032230
         H           -2.924727463815    -2.261141936464     0.000184876417     1.007825032230
         H            4.127605536185    -0.597623936464    -0.000223123583     1.007825032230
         H            3.451023536185     1.983592063536    -0.000145123583     1.007825032230

  Basis Set: AUG-CC-PVTZ
    Blend: AUG-CC-PVTZ
  Basis Set: (AUG-CC-PVTZ AUX)
    Blend: AUG-CC-PVTZ-JKFIT
	 Reference Energy          =    -812.9585840942322648 [Eh]
	 Singles Energy            =      -0.0000000000000000 [Eh]
	 Same-Spin Energy          =      -0.5310402856254210 [Eh]
	 Opposite-Spin Energy      =      -1.5612408883930380 [Eh]
	 Correlation Energy        =      -2.0922811740184590 [Eh]
	 Total Energy              =    -815.0508652682507318 [Eh]

	 ================> DF-SCS-MP2 Energies <==================
	-----------------------------------------------------------
	 SCS Same-Spin Scale       =       0.3333333333333333 [-]
	 SCS Opposite-Spin Scale   =       1.2000000000000000 [-]
	 SCS Same-Spin Energy      =      -0.1770134285418070 [Eh]
	 SCS Opposite-Spin Energy  =      -1.8734890660716454 [Eh]
	 SCS Correlation Energy    =      -2.0505024946134522 [Eh]
	 SCS Total Energy          =    -815.0090865888456619 [Eh]
	-----------------------------------------------------------

  Dipole Moment: [D]
     X:    -0.6034      Y:     0.4099      Z:    -0.0000     Total:     0.7295

*** Psi4 exiting successfully. Buy a developer a beer!
