                               Psi4 1.4a3.dev225

  ==> Input File <==

--------------------------------------------------------------------------
#psi4
#
memory 32 gb

molecule  {
0 1
  S        1.7618360    -1.1877300    -0.0001100
  N       -1.1892720    -1.1162850     0.0000840
  N        1.4363420     1.3812950    -0.0000570
  C       -0.6813881     0.1552011     0.0000393
  C        0.7702180     0.2369850    -0.0000350
  C       -1.4868030     1.2893490     0.0000580
  C       -2.8690220     1.1312400     0.0001290
  C       -3.4040470    -0.1590480     0.0001760
  C       -2.5262420    -1.2439110     0.0001500
  C        3.1506810    -0.1849920    -0.0001670
  C        2.7828300     1.1426020    -0.0001250
  H       -1.0124600     2.2659460     0.0000190
  H       -3.5213850     2.0011240     0.0001460
  H       -4.4778440    -0.3237170     0.0002310
  H       -2.9027010    -2.2653680     0.0001840
  H        4.1496320    -0.6018500    -0.0002240
  H        3.4730500     1.9793660    -0.0001460
units angstrom
no_reorient  #important for SAPT in psi4, default
symmetry c1  #important for SAPT in psi4, default
}

set PROPERTIES_ORIGIN ["COM"]
properties('MP2/aug-cc-pvtz', properties = ['dipole'])
--------------------------------------------------------------------------

    Molecular point group: c1
  Charge       = 0
  Multiplicity = 1
  Basis Set: AUG-CC-PVTZ
    Blend: AUG-CC-PVTZ
  Basis Set: (AUG-CC-PVTZ AUX)
    Blend: AUG-CC-PVTZ-JKFIT

    Orbital Energies [Eh]
    ---------------------

    Doubly Occupied:

       1A    -91.996258     2A    -15.579698     3A    -15.574162
       4A    -11.313476     5A    -11.296707     6A    -11.285461
       7A    -11.270163     8A    -11.267978     9A    -11.265262
      10A    -11.251441    11A    -11.249052    12A     -8.996223
      13A     -6.676985    14A     -6.676445    15A     -6.675772
      16A     -1.286545    17A     -1.256388    18A     -1.095669
      19A     -1.070072    20A     -1.062616    21A     -0.986842
      22A     -0.878252    23A     -0.867805    24A     -0.791476
      25A     -0.766391    26A     -0.707198    27A     -0.678992
      28A     -0.668855    29A     -0.639661    30A     -0.594675
      31A     -0.586893    32A     -0.581013    33A     -0.558471
      34A     -0.534748    35A     -0.529493    36A     -0.502976
      37A     -0.443542    38A     -0.425460    39A     -0.398349
      40A     -0.392046    41A     -0.372796    42A     -0.306599

  @DF-RHF Final Energy:  -813.00812981414913

   => Energetics <=

    Nuclear Repulsion Energy =            626.8914547585246737
    One-Electron Energy =               -2357.0813509375111607
    Two-Electron Energy =                 917.1817663648374719
    Total Energy =                       -813.0081298141491288
  Basis Set: (AUG-CC-PVTZ AUX)
    Blend: AUG-CC-PVTZ-RI
    Molecular point group: c1

    Geometry (in Angstrom), charge = 0, multiplicity = 1:

       Center              X                  Y                   Z               Mass
    ------------   -----------------  -----------------  -----------------  -----------------
         S            1.735304828658    -1.170604822036    -0.000108619958    31.972071174400
         N           -1.215803171342    -1.099159822036     0.000085380042    14.003074004430
         N            1.409810828658     1.398420177964    -0.000055619958    14.003074004430
         C           -0.707919271342     0.172326277964     0.000040680042    12.000000000000
         C            0.743686828658     0.254110177964    -0.000033619958    12.000000000000
         C           -1.513334171342     1.306474177964     0.000059380042    12.000000000000
         C           -2.895553171342     1.148365177964     0.000130380042    12.000000000000
         C           -3.430578171342    -0.141922822036     0.000177380042    12.000000000000
         C           -2.552773171342    -1.226785822036     0.000151380042    12.000000000000
         C            3.124149828658    -0.167866822036    -0.000165619958    12.000000000000
         C            2.756298828658     1.159727177964    -0.000123619958    12.000000000000
         H           -1.038991171342     2.283071177964     0.000020380042     1.007825032230
         H           -3.547916171342     2.018249177964     0.000147380042     1.007825032230
         H           -4.504375171342    -0.306591822036     0.000232380042     1.007825032230
         H           -2.929232171342    -2.248242822036     0.000185380042     1.007825032230
         H            4.123100828658    -0.584724822036    -0.000222619958     1.007825032230
         H            3.446518828658     1.996491177964    -0.000144619958     1.007825032230

  Basis Set: AUG-CC-PVTZ
    Blend: AUG-CC-PVTZ
  Basis Set: (AUG-CC-PVTZ AUX)
    Blend: AUG-CC-PVTZ-JKFIT
	 Reference Energy          =    -813.0081298141491288 [Eh]
	 Singles Energy            =      -0.0000000000000000 [Eh]
	 Same-Spin Energy          =      -0.5255750371304799 [Eh]
	 Opposite-Spin Energy      =      -1.5541835406221394 [Eh]
	 Correlation Energy        =      -2.0797585777526191 [Eh]
	 Total Energy              =    -815.0878883919017426 [Eh]

	 ================> DF-SCS-MP2 Energies <==================
	-----------------------------------------------------------
	 SCS Same-Spin Scale       =       0.3333333333333333 [-]
	 SCS Opposite-Spin Scale   =       1.2000000000000000 [-]
	 SCS Same-Spin Energy      =      -0.1751916790434933 [Eh]
	 SCS Opposite-Spin Energy  =      -1.8650202487465672 [Eh]
	 SCS Correlation Energy    =      -2.0402119277900606 [Eh]
	 SCS Total Energy          =    -815.0483417419392254 [Eh]
	-----------------------------------------------------------

  Dipole Moment: [D]
     X:    -0.7744      Y:     0.1943      Z:    -0.0000     Total:     0.7984

*** Psi4 exiting successfully. Buy a developer a beer!
