                               Psi4 1.3.2 release

  ==> Input File <==

--------------------------------------------------------------------------
#psi4
#
memory 32 gb

molecule  {
0 1
  S        1.7618360    -1.1877300    -0.0001100
  N       -1.1892720    -1.1162850     0.0000840
  N        1.4363420     1.3812950    -0.0000570
  C       -0.6517127     0.2294936     0.0000367
  C        0.7702180     0.2369850    -0.0000350
  C       -1.4868030     1.2893490     0.0000580
  C       -2.8690220     1.1312400     0.0001290
  C       -3.4040470    -0.1590480     0.0001760
  C       -2.5262420    -1.2439110     0.0001500
  C        3.1506810    -0.1849920    -0.0001670
  C        2.7828300     1.1426020    -0.0001250
  H       -1.0124600     2.2659460     0.0000190
  H       -3.5213850     2.0011240     0.0001460
  H       -4.4778440    -0.3237170     0.0002310
  H       -2.9027010    -2.2653680     0.0001840
  H        4.1496320    -0.6018500    -0.0002240
  H        3.4730500     1.9793660    -0.0001460
units angstrom
no_reorient  #important for SAPT in psi4, default
symmetry c1  #important for SAPT in psi4, default
}

set PROPERTIES_ORIGIN ["COM"]
properties('MP2/aug-cc-pvtz', properties = ['dipole'])
--------------------------------------------------------------------------

    Molecular point group: c1
  Charge       = 0
  Multiplicity = 1
  Basis Set: AUG-CC-PVTZ
    Blend: AUG-CC-PVTZ
  Basis Set: (AUG-CC-PVTZ AUX)
    Blend: AUG-CC-PVTZ-JKFIT

    Orbital Energies [Eh]
    ---------------------

    Doubly Occupied:

       1A    -91.998510     2A    -15.581801     3A    -15.573515
       4A    -11.312134     5A    -11.293429     6A    -11.285111
       7A    -11.270260     8A    -11.269211     9A    -11.266035
      10A    -11.251852    11A    -11.245284    12A     -8.998230
      13A     -6.678974    14A     -6.678466    15A     -6.677764
      16A     -1.285621    17A     -1.241225    18A     -1.093336
      19A     -1.075629    20A     -1.063509    21A     -0.988578
      22A     -0.883204    23A     -0.862482    24A     -0.794254
      25A     -0.765179    26A     -0.707576    27A     -0.679463
      28A     -0.663848    29A     -0.639346    30A     -0.597924
      31A     -0.583288    32A     -0.580369    33A     -0.560091
      34A     -0.530139    35A     -0.528382    36A     -0.502749
      37A     -0.441167    38A     -0.425225    39A     -0.401361
      40A     -0.386799    41A     -0.377219    42A     -0.304826

  @DF-RHF Final Energy:  -812.99434390902854

   => Energetics <=

    Nuclear Repulsion Energy =            626.6860321645413023
    One-Electron Energy =               -2356.6740202661003423
    Two-Electron Energy =                 916.9936441925304962
    Total Energy =                       -812.9943439090285437
  Basis Set: (AUG-CC-PVTZ AUX)
    Blend: AUG-CC-PVTZ-RI
    Molecular point group: c1

    Geometry (in Angstrom), charge = 0, multiplicity = 1:

       Center              X                  Y                   Z               Mass
    ------------   -----------------  -----------------  -----------------  -----------------
         S            1.733106992350    -1.176107115312    -0.000108427395    31.972071174400
         N           -1.218001007650    -1.104662115312     0.000085572605    14.003074004430
         N            1.407612992350     1.392917884688    -0.000055427395    14.003074004430
         C           -0.680441707650     0.241116484688     0.000038272605    12.000000000000
         C            0.741488992350     0.248607884688    -0.000033427395    12.000000000000
         C           -1.515532007650     1.300971884688     0.000059572605    12.000000000000
         C           -2.897751007650     1.142862884688     0.000130572605    12.000000000000
         C           -3.432776007650    -0.147425115312     0.000177572605    12.000000000000
         C           -2.554971007650    -1.232288115312     0.000151572605    12.000000000000
         C            3.121951992350    -0.173369115312    -0.000165427395    12.000000000000
         C            2.754100992350     1.154224884688    -0.000123427395    12.000000000000
         H           -1.041189007650     2.277568884688     0.000020572605     1.007825032230
         H           -3.550114007650     2.012746884688     0.000147572605     1.007825032230
         H           -4.506573007650    -0.312094115312     0.000232572605     1.007825032230
         H           -2.931430007650    -2.253745115312     0.000185572605     1.007825032230
         H            4.120902992350    -0.590227115312    -0.000222427395     1.007825032230
         H            3.444320992350     1.990988884688    -0.000144427395     1.007825032230

  Basis Set: AUG-CC-PVTZ
    Blend: AUG-CC-PVTZ
  Basis Set: (AUG-CC-PVTZ AUX)
    Blend: AUG-CC-PVTZ-JKFIT
	 Reference Energy          =    -812.9943439090285437 [Eh]
	 Singles Energy            =      -0.0000000000000000 [Eh]
	 Same-Spin Energy          =      -0.5263716631643678 [Eh]
	 Opposite-Spin Energy      =      -1.5567496939220498 [Eh]
	 Correlation Energy        =      -2.0831213570864175 [Eh]
	 Total Energy              =    -815.0774652661149275 [Eh]

	 ================> DF-SCS-MP2 Energies <==================
	-----------------------------------------------------------
	 SCS Same-Spin Scale       =       0.3333333333333333 [-]
	 SCS Opposite-Spin Scale   =       1.2000000000000000 [-]
	 SCS Same-Spin Energy      =      -0.1754572210547893 [Eh]
	 SCS Opposite-Spin Energy  =      -1.8680996327064596 [Eh]
	 SCS Correlation Energy    =      -2.0435568537612490 [Eh]
	 SCS Total Energy          =    -815.0379007627898318 [Eh]
	-----------------------------------------------------------

  Dipole Moment: [D]
     X:    -0.6638      Y:     0.1788      Z:    -0.0000     Total:     0.6875

*** Psi4 exiting successfully. Buy a developer a beer!
