                               Psi4 1.3.2 release

  ==> Input File <==

--------------------------------------------------------------------------
#psi4
#
memory 32 gb

molecule  {
0 1
  S        1.7618360    -1.1877300    -0.0001100
  N       -1.1892720    -1.1162850     0.0000840
  N        1.4363420     1.3812950    -0.0000570
  C       -0.6888070     0.1366280     0.0000400
  C        0.6542541     0.3128826    -0.0000286
  C       -1.4868030     1.2893490     0.0000580
  C       -2.8690220     1.1312400     0.0001290
  C       -3.4040470    -0.1590480     0.0001760
  C       -2.5262420    -1.2439110     0.0001500
  C        3.1506810    -0.1849920    -0.0001670
  C        2.7828300     1.1426020    -0.0001250
  H       -1.0124600     2.2659460     0.0000190
  H       -3.5213850     2.0011240     0.0001460
  H       -4.4778440    -0.3237170     0.0002310
  H       -2.9027010    -2.2653680     0.0001840
  H        4.1496320    -0.6018500    -0.0002240
  H        3.4730500     1.9793660    -0.0001460
units angstrom
no_reorient  #important for SAPT in psi4, default
symmetry c1  #important for SAPT in psi4, default
}

set PROPERTIES_ORIGIN ["COM"]
properties('MP2/aug-cc-pvtz', properties = ['dipole'])
--------------------------------------------------------------------------

    Molecular point group: c1
  Charge       = 0
  Multiplicity = 1
  Basis Set: AUG-CC-PVTZ
    Blend: AUG-CC-PVTZ
  Basis Set: (AUG-CC-PVTZ AUX)
    Blend: AUG-CC-PVTZ-JKFIT

    Orbital Energies [Eh]
    ---------------------

    Doubly Occupied:

       1A    -91.985718     2A    -15.583108     3A    -15.579618
       4A    -11.318232     5A    -11.292498     6A    -11.288974
       7A    -11.270518     8A    -11.270034     9A    -11.269163
      10A    -11.255514    11A    -11.253904    12A     -8.984275
      13A     -6.665043    14A     -6.664309    15A     -6.663842
      16A     -1.287998    17A     -1.258211    18A     -1.099746
      19A     -1.088271    20A     -1.051461    21A     -0.981325
      22A     -0.892484    23A     -0.874746    24A     -0.791391
      25A     -0.771991    26A     -0.702945    27A     -0.684703
      28A     -0.672503    29A     -0.646574    30A     -0.609215
      31A     -0.591626    32A     -0.585947    33A     -0.550171
      34A     -0.536214    35A     -0.531738    36A     -0.494374
      37A     -0.439475    38A     -0.408685    39A     -0.408679
      40A     -0.393815    41A     -0.370390    42A     -0.297397

  @DF-RHF Final Energy:  -812.98590619891309

   => Energetics <=

    Nuclear Repulsion Energy =            626.3778462567038332
    One-Electron Energy =               -2355.9938488456627965
    Two-Electron Energy =                 916.6300963900458783
    Total Energy =                       -812.9859061989130851
  Basis Set: (AUG-CC-PVTZ AUX)
    Blend: AUG-CC-PVTZ-RI
    Molecular point group: c1

    Geometry (in Angstrom), charge = 0, multiplicity = 1:

       Center              X                  Y                   Z               Mass
    ------------   -----------------  -----------------  -----------------  -----------------
         S            1.744442875578    -1.174850421671    -0.000109145802    31.972071174400
         N           -1.206665124422    -1.103405421671     0.000084854198    14.003074004430
         N            1.418948875578     1.394174578329    -0.000056145802    14.003074004430
         C           -0.706200124422     0.149507578329     0.000040854198    12.000000000000
         C            0.636860975578     0.325762178329    -0.000027745802    12.000000000000
         C           -1.504196124422     1.302228578329     0.000058854198    12.000000000000
         C           -2.886415124422     1.144119578329     0.000129854198    12.000000000000
         C           -3.421440124422    -0.146168421671     0.000176854198    12.000000000000
         C           -2.543635124422    -1.231031421671     0.000150854198    12.000000000000
         C            3.133287875578    -0.172112421671    -0.000166145802    12.000000000000
         C            2.765436875578     1.155481578329    -0.000124145802    12.000000000000
         H           -1.029853124422     2.278825578329     0.000019854198     1.007825032230
         H           -3.538778124422     2.014003578329     0.000146854198     1.007825032230
         H           -4.495237124422    -0.310837421671     0.000231854198     1.007825032230
         H           -2.920094124422    -2.252488421671     0.000184854198     1.007825032230
         H            4.132238875578    -0.588970421671    -0.000223145802     1.007825032230
         H            3.455656875578     1.992245578329    -0.000145145802     1.007825032230

  Basis Set: AUG-CC-PVTZ
    Blend: AUG-CC-PVTZ
  Basis Set: (AUG-CC-PVTZ AUX)
    Blend: AUG-CC-PVTZ-JKFIT
	 Reference Energy          =    -812.9859061989130851 [Eh]
	 Singles Energy            =      -0.0000000000000000 [Eh]
	 Same-Spin Energy          =      -0.5277755875038670 [Eh]
	 Opposite-Spin Energy      =      -1.5577055964650401 [Eh]
	 Correlation Energy        =      -2.0854811839689074 [Eh]
	 Total Energy              =    -815.0713873828819942 [Eh]

	 ================> DF-SCS-MP2 Energies <==================
	-----------------------------------------------------------
	 SCS Same-Spin Scale       =       0.3333333333333333 [-]
	 SCS Opposite-Spin Scale   =       1.2000000000000000 [-]
	 SCS Same-Spin Energy      =      -0.1759251958346223 [Eh]
	 SCS Opposite-Spin Energy  =      -1.8692467157580481 [Eh]
	 SCS Correlation Energy    =      -2.0451719115926705 [Eh]
	 SCS Total Energy          =    -815.0310781105057458 [Eh]
	-----------------------------------------------------------

  Dipole Moment: [D]
     X:    -1.0989      Y:     0.5250      Z:     0.0000     Total:     1.2179

*** Psi4 exiting successfully. Buy a developer a beer!
