                               Psi4 1.4a3.dev225

  ==> Input File <==

--------------------------------------------------------------------------
#psi4
#
memory 32 gb

molecule  {
0 1
  S        1.7618360    -1.1877300    -0.0001100
  N       -1.1892720    -1.1162850     0.0000840
  N        1.4363420     1.3812950    -0.0000570
  C       -0.6888070     0.1366280     0.0000400
  C        0.7702180     0.2369850    -0.0000350
  C       -1.4868030     1.2893490     0.0000580
  C       -2.8690220     1.1312400     0.0001290
  C       -3.4040470    -0.1590480     0.0001760
  C       -2.5760157    -1.2486624     0.0001525
  C        3.1506810    -0.1849920    -0.0001670
  C        2.7828300     1.1426020    -0.0001250
  H       -1.0124600     2.2659460     0.0000190
  H       -3.5213850     2.0011240     0.0001460
  H       -4.4778440    -0.3237170     0.0002310
  H       -2.9027010    -2.2653680     0.0001840
  H        4.1496320    -0.6018500    -0.0002240
  H        3.4730500     1.9793660    -0.0001460
units angstrom
no_reorient  #important for SAPT in psi4, default
symmetry c1  #important for SAPT in psi4, default
}

set PROPERTIES_ORIGIN ["COM"]
properties('MP2/aug-cc-pvtz', properties = ['dipole'])
--------------------------------------------------------------------------

    Molecular point group: c1
  Charge       = 0
  Multiplicity = 1
  Basis Set: AUG-CC-PVTZ
    Blend: AUG-CC-PVTZ
  Basis Set: (AUG-CC-PVTZ AUX)
    Blend: AUG-CC-PVTZ-JKFIT

    Orbital Energies [Eh]
    ---------------------

    Doubly Occupied:

       1A    -91.995682     2A    -15.581275     3A    -15.574957
       4A    -11.313904     5A    -11.297711     6A    -11.284343
       7A    -11.270139     8A    -11.268273     9A    -11.265375
      10A    -11.250225    11A    -11.249238    12A     -8.995700
      13A     -6.676465    14A     -6.675914    15A     -6.675249
      16A     -1.285489    17A     -1.251045    18A     -1.095807
      19A     -1.068780    20A     -1.061086    21A     -0.988694
      22A     -0.877906    23A     -0.868464    24A     -0.790556
      25A     -0.766967    26A     -0.707391    27A     -0.679748
      28A     -0.665310    29A     -0.643468    30A     -0.596283
      31A     -0.587543    32A     -0.579894    33A     -0.556989
      34A     -0.533114    35A     -0.527279    36A     -0.503272
      37A     -0.445175    38A     -0.425229    39A     -0.400779
      40A     -0.389901    41A     -0.368818    42A     -0.309679

  @DF-RHF Final Energy:  -813.00496864684760

   => Energetics <=

    Nuclear Repulsion Energy =            626.2002118251284628
    One-Electron Energy =               -2355.7121225367950501
    Two-Electron Energy =                 916.5069420648189862
    Total Energy =                       -813.0049686468476011
  Basis Set: (AUG-CC-PVTZ AUX)
    Blend: AUG-CC-PVTZ-RI
    Molecular point group: c1

    Geometry (in Angstrom), charge = 0, multiplicity = 1:

       Center              X                  Y                   Z               Mass
    ------------   -----------------  -----------------  -----------------  -----------------
         S            1.739540659440    -1.168877349686    -0.000108856958    31.972071174400
         N           -1.211567340560    -1.097432349686     0.000085143042    14.003074004430
         N            1.414046659440     1.400147650314    -0.000055856958    14.003074004430
         C           -0.711102340560     0.155480650314     0.000041143042    12.000000000000
         C            0.747922659440     0.255837650314    -0.000033856958    12.000000000000
         C           -1.509098340560     1.308201650314     0.000059143042    12.000000000000
         C           -2.891317340560     1.150092650314     0.000130143042    12.000000000000
         C           -3.426342340560    -0.140195349686     0.000177143042    12.000000000000
         C           -2.598311040560    -1.229809749686     0.000153643042    12.000000000000
         C            3.128385659440    -0.166139349686    -0.000165856958    12.000000000000
         C            2.760534659440     1.161454650314    -0.000123856958    12.000000000000
         H           -1.034755340560     2.284798650314     0.000020143042     1.007825032230
         H           -3.543680340560     2.019976650314     0.000147143042     1.007825032230
         H           -4.500139340560    -0.304864349686     0.000232143042     1.007825032230
         H           -2.924996340560    -2.246515349686     0.000185143042     1.007825032230
         H            4.127336659440    -0.582997349686    -0.000222856958     1.007825032230
         H            3.450754659440     1.998218650314    -0.000144856958     1.007825032230

  Basis Set: AUG-CC-PVTZ
    Blend: AUG-CC-PVTZ
  Basis Set: (AUG-CC-PVTZ AUX)
    Blend: AUG-CC-PVTZ-JKFIT
	 Reference Energy          =    -813.0049686468476011 [Eh]
	 Singles Energy            =      -0.0000000000000000 [Eh]
	 Same-Spin Energy          =      -0.5255754156466128 [Eh]
	 Opposite-Spin Energy      =      -1.5547537212938254 [Eh]
	 Correlation Energy        =      -2.0803291369404384 [Eh]
	 Total Energy              =    -815.0852977837880644 [Eh]

	 ================> DF-SCS-MP2 Energies <==================
	-----------------------------------------------------------
	 SCS Same-Spin Scale       =       0.3333333333333333 [-]
	 SCS Opposite-Spin Scale   =       1.2000000000000000 [-]
	 SCS Same-Spin Energy      =      -0.1751918052155376 [Eh]
	 SCS Opposite-Spin Energy  =      -1.8657044655525903 [Eh]
	 SCS Correlation Energy    =      -2.0408962707681280 [Eh]
	 SCS Total Energy          =    -815.0458649176157451 [Eh]
	-----------------------------------------------------------

  Dipole Moment: [D]
     X:    -0.8142      Y:     0.1978      Z:    -0.0000     Total:     0.8378

*** Psi4 exiting successfully. Buy a developer a beer!
