                               Psi4 1.3.2 release

  ==> Input File <==

--------------------------------------------------------------------------
#psi4
#
memory 32 gb

molecule  {
0 1
  S        1.7276870    -1.1386492    -0.0001074
  N       -1.1892720    -1.1162850     0.0000840
  N        1.4363420     1.3812950    -0.0000570
  C       -0.6888070     0.1366280     0.0000400
  C        0.7702180     0.2369850    -0.0000350
  C       -1.4868030     1.2893490     0.0000580
  C       -2.8690220     1.1312400     0.0001290
  C       -3.4040470    -0.1590480     0.0001760
  C       -2.5262420    -1.2439110     0.0001500
  C        3.1506810    -0.1849920    -0.0001670
  C        2.7828300     1.1426020    -0.0001250
  H       -1.0124600     2.2659460     0.0000190
  H       -3.5213850     2.0011240     0.0001460
  H       -4.4778440    -0.3237170     0.0002310
  H       -2.9027010    -2.2653680     0.0001840
  H        4.1496320    -0.6018500    -0.0002240
  H        3.4730500     1.9793660    -0.0001460
units angstrom
no_reorient  #important for SAPT in psi4, default
symmetry c1  #important for SAPT in psi4, default
}

set PROPERTIES_ORIGIN ["COM"]
properties('MP2/aug-cc-pvtz', properties = ['dipole'])
--------------------------------------------------------------------------

    Molecular point group: c1
  Charge       = 0
  Multiplicity = 1
  Basis Set: AUG-CC-PVTZ
    Blend: AUG-CC-PVTZ
  Basis Set: (AUG-CC-PVTZ AUX)
    Blend: AUG-CC-PVTZ-JKFIT

    Orbital Energies [Eh]
    ---------------------

    Doubly Occupied:

       1A    -91.994110     2A    -15.578699     3A    -15.570560
       4A    -11.307785     5A    -11.297151     6A    -11.285442
       7A    -11.270321     8A    -11.267375     9A    -11.263940
      10A    -11.251112    11A    -11.249452    12A     -8.995581
      13A     -6.676399    14A     -6.675880    15A     -6.675134
      16A     -1.290556    17A     -1.260933    18A     -1.096771
      19A     -1.068439    20A     -1.066025    21A     -0.991125
      22A     -0.877026    23A     -0.869227    24A     -0.791341
      25A     -0.768060    26A     -0.707246    27A     -0.679806
      28A     -0.668998    29A     -0.640276    30A     -0.594193
      31A     -0.587765    32A     -0.584900    33A     -0.564782
      34A     -0.537377    35A     -0.529882    36A     -0.500193
      37A     -0.444152    38A     -0.423349    39A     -0.398021
      40A     -0.390413    41A     -0.372758    42A     -0.309568

  @DF-RHF Final Energy:  -813.00894072412143

   => Energetics <=

    Nuclear Repulsion Energy =            629.8048370060078014
    One-Electron Energy =               -2362.8833118850443498
    Two-Electron Energy =                 920.0695341549151181
    Total Energy =                       -813.0089407241214303
  Basis Set: (AUG-CC-PVTZ AUX)
    Blend: AUG-CC-PVTZ-RI
    Molecular point group: c1

    Geometry (in Angstrom), charge = 0, multiplicity = 1:

       Center              X                  Y                   Z               Mass
    ------------   -----------------  -----------------  -----------------  -----------------
         S            1.708443838682    -1.129833457144    -0.000106584854    31.972071174400
         N           -1.208515161318    -1.107469257144     0.000084815146    14.003074004430
         N            1.417098838682     1.390110742856    -0.000056184854    14.003074004430
         C           -0.708050161318     0.145443742856     0.000040815146    12.000000000000
         C            0.750974838682     0.245800742856    -0.000034184854    12.000000000000
         C           -1.506046161318     1.298164742856     0.000058815146    12.000000000000
         C           -2.888265161318     1.140055742856     0.000129815146    12.000000000000
         C           -3.423290161318    -0.150232257144     0.000176815146    12.000000000000
         C           -2.545485161318    -1.235095257144     0.000150815146    12.000000000000
         C            3.131437838682    -0.176176257144    -0.000166184854    12.000000000000
         C            2.763586838682     1.151417742856    -0.000124184854    12.000000000000
         H           -1.031703161318     2.274761742856     0.000019815146     1.007825032230
         H           -3.540628161318     2.009939742856     0.000146815146     1.007825032230
         H           -4.497087161318    -0.314901257144     0.000231815146     1.007825032230
         H           -2.921944161318    -2.256552257144     0.000184815146     1.007825032230
         H            4.130388838682    -0.593034257144    -0.000223184854     1.007825032230
         H            3.453806838682     1.988181742856    -0.000145184854     1.007825032230

  Basis Set: AUG-CC-PVTZ
    Blend: AUG-CC-PVTZ
  Basis Set: (AUG-CC-PVTZ AUX)
    Blend: AUG-CC-PVTZ-JKFIT
	 Reference Energy          =    -813.0089407241214303 [Eh]
	 Singles Energy            =      -0.0000000000000000 [Eh]
	 Same-Spin Energy          =      -0.5256354776011045 [Eh]
	 Opposite-Spin Energy      =      -1.5529035668363091 [Eh]
	 Correlation Energy        =      -2.0785390444374139 [Eh]
	 Total Energy              =    -815.0874797685588646 [Eh]

	 ================> DF-SCS-MP2 Energies <==================
	-----------------------------------------------------------
	 SCS Same-Spin Scale       =       0.3333333333333333 [-]
	 SCS Opposite-Spin Scale   =       1.2000000000000000 [-]
	 SCS Same-Spin Energy      =      -0.1752118258670348 [Eh]
	 SCS Opposite-Spin Energy  =      -1.8634842802035709 [Eh]
	 SCS Correlation Energy    =      -2.0386961060706059 [Eh]
	 SCS Total Energy          =    -815.0476368301920047 [Eh]
	-----------------------------------------------------------

  Dipole Moment: [D]
     X:    -0.7631      Y:     0.1468      Z:    -0.0000     Total:     0.7771

*** Psi4 exiting successfully. Buy a developer a beer!
