                               Psi4 1.3.2 release

  ==> Input File <==

--------------------------------------------------------------------------
#psi4
#
memory 32 gb

molecule  {
0 1
  S        1.7618360    -1.1877300    -0.0001100
  N       -1.1892720    -1.1162850     0.0000840
  N        1.4363420     1.3812950    -0.0000570
  C       -0.6888070     0.1366280     0.0000400
  C        0.7702180     0.2369850    -0.0000350
  C       -1.4868030     1.2893490     0.0000580
  C       -2.8690220     1.1312400     0.0001290
  C       -3.4040470    -0.1590480     0.0001760
  C       -2.5262420    -1.2439110     0.0001500
  C        3.1506810    -0.1849920    -0.0001670
  C        2.8060557     1.1488197    -0.0001260
  H       -1.0124600     2.2659460     0.0000190
  H       -3.5213850     2.0011240     0.0001460
  H       -4.4778440    -0.3237170     0.0002310
  H       -2.9027010    -2.2653680     0.0001840
  H        4.1496320    -0.6018500    -0.0002240
  H        3.4730500     1.9793660    -0.0001460
units angstrom
no_reorient  #important for SAPT in psi4, default
symmetry c1  #important for SAPT in psi4, default
}

set PROPERTIES_ORIGIN ["COM"]
properties('MP2/aug-cc-pvtz', properties = ['dipole'])
--------------------------------------------------------------------------

    Molecular point group: c1
  Charge       = 0
  Multiplicity = 1
  Basis Set: AUG-CC-PVTZ
    Blend: AUG-CC-PVTZ
  Basis Set: (AUG-CC-PVTZ AUX)
    Blend: AUG-CC-PVTZ-JKFIT

    Orbital Energies [Eh]
    ---------------------

    Doubly Occupied:

       1A    -91.995300     2A    -15.579078     3A    -15.575082
       4A    -11.313628     5A    -11.297481     6A    -11.285484
       7A    -11.270321     8A    -11.267543     9A    -11.266126
      10A    -11.251450    11A    -11.249942    12A     -8.995378
      13A     -6.676167    14A     -6.675587    15A     -6.674911
      16A     -1.284094    17A     -1.257784    18A     -1.096508
      19A     -1.068455    20A     -1.060094    21A     -0.987282
      22A     -0.877494    23A     -0.869218    24A     -0.789808
      25A     -0.767975    26A     -0.705650    27A     -0.681160
      28A     -0.668700    29A     -0.640096    30A     -0.594425
      31A     -0.587823    32A     -0.580027    33A     -0.556725
      34A     -0.534655    35A     -0.529351    36A     -0.506879
      37A     -0.443238    38A     -0.423597    39A     -0.399108
      40A     -0.391616    41A     -0.370284    42A     -0.308461

  @DF-RHF Final Energy:  -813.00871111384640

   => Energetics <=

    Nuclear Repulsion Energy =            626.4187041719663966
    One-Electron Energy =               -2356.1468639937816079
    Two-Electron Energy =                 916.7194487079686951
    Total Energy =                       -813.0087111138464024
  Basis Set: (AUG-CC-PVTZ AUX)
    Blend: AUG-CC-PVTZ-RI
    Molecular point group: c1

    Geometry (in Angstrom), charge = 0, multiplicity = 1:

       Center              X                  Y                   Z               Mass
    ------------   -----------------  -----------------  -----------------  -----------------
         S            1.734134136470    -1.169689749393    -0.000108597739    31.972071174400
         N           -1.216973863530    -1.098244749393     0.000085402261    14.003074004430
         N            1.408640136470     1.399335250607    -0.000055597739    14.003074004430
         C           -0.716508863530     0.154668250607     0.000041402261    12.000000000000
         C            0.742516136470     0.255025250607    -0.000033597739    12.000000000000
         C           -1.514504863530     1.307389250607     0.000059402261    12.000000000000
         C           -2.896723863530     1.149280250607     0.000130402261    12.000000000000
         C           -3.431748863530    -0.141007749393     0.000177402261    12.000000000000
         C           -2.553943863530    -1.225870749393     0.000151402261    12.000000000000
         C            3.122979136470    -0.166951749393    -0.000165597739    12.000000000000
         C            2.778353836470     1.166859950607    -0.000124597739    12.000000000000
         H           -1.040161863530     2.283986250607     0.000020402261     1.007825032230
         H           -3.549086863530     2.019164250607     0.000147402261     1.007825032230
         H           -4.505545863530    -0.305676749393     0.000232402261     1.007825032230
         H           -2.930402863530    -2.247327749393     0.000185402261     1.007825032230
         H            4.121930136470    -0.583809749393    -0.000222597739     1.007825032230
         H            3.445348136470     1.997406250607    -0.000144597739     1.007825032230

  Basis Set: AUG-CC-PVTZ
    Blend: AUG-CC-PVTZ
  Basis Set: (AUG-CC-PVTZ AUX)
    Blend: AUG-CC-PVTZ-JKFIT
	 Reference Energy          =    -813.0087111138464024 [Eh]
	 Singles Energy            =      -0.0000000000000000 [Eh]
	 Same-Spin Energy          =      -0.5250296936143592 [Eh]
	 Opposite-Spin Energy      =      -1.5537599672075939 [Eh]
	 Correlation Energy        =      -2.0787896608219532 [Eh]
	 Total Energy              =    -815.0875007746683423 [Eh]

	 ================> DF-SCS-MP2 Energies <==================
	-----------------------------------------------------------
	 SCS Same-Spin Scale       =       0.3333333333333333 [-]
	 SCS Opposite-Spin Scale   =       1.2000000000000000 [-]
	 SCS Same-Spin Energy      =      -0.1750098978714531 [Eh]
	 SCS Opposite-Spin Energy  =      -1.8645119606491125 [Eh]
	 SCS Correlation Energy    =      -2.0395218585205654 [Eh]
	 SCS Total Energy          =    -815.0482329723669181 [Eh]
	-----------------------------------------------------------

  Dipole Moment: [D]
     X:    -0.8147      Y:     0.2123      Z:    -0.0000     Total:     0.8419

*** Psi4 exiting successfully. Buy a developer a beer!
