                               Psi4 1.3.2 release

  ==> Input File <==

--------------------------------------------------------------------------
#psi4
#
memory 32 gb

molecule  {
0 1
  S        1.7618360    -1.1877300    -0.0001100
  N       -1.1892720    -1.1162850     0.0000840
  N        1.4363420     1.3812950    -0.0000570
  C       -0.6888070     0.1366280     0.0000400
  C        0.7702180     0.2369850    -0.0000350
  C       -1.4868030     1.2893490     0.0000580
  C       -2.8690220     1.1312400     0.0001290
  C       -3.4040470    -0.1590480     0.0001760
  C       -2.5262420    -1.2439110     0.0001500
  C        3.1506810    -0.1849920    -0.0001670
  C        2.8812948     1.1251471    -0.0001300
  H       -1.0124600     2.2659460     0.0000190
  H       -3.5213850     2.0011240     0.0001460
  H       -4.4778440    -0.3237170     0.0002310
  H       -2.9027010    -2.2653680     0.0001840
  H        4.1496320    -0.6018500    -0.0002240
  H        3.4730500     1.9793660    -0.0001460
units angstrom
no_reorient  #important for SAPT in psi4, default
symmetry c1  #important for SAPT in psi4, default
}

set PROPERTIES_ORIGIN ["COM"]
properties('MP2/aug-cc-pvtz', properties = ['dipole'])
--------------------------------------------------------------------------

    Molecular point group: c1
  Charge       = 0
  Multiplicity = 1
  Basis Set: AUG-CC-PVTZ
    Blend: AUG-CC-PVTZ
  Basis Set: (AUG-CC-PVTZ AUX)
    Blend: AUG-CC-PVTZ-JKFIT

    Orbital Energies [Eh]
    ---------------------

    Doubly Occupied:

       1A    -91.992103     2A    -15.580064     3A    -15.576336
       4A    -11.313681     5A    -11.297726     6A    -11.285717
       7A    -11.268330     8A    -11.267793     9A    -11.264057
      10A    -11.252269    11A    -11.250529    12A     -8.992573
      13A     -6.673439    14A     -6.672768    15A     -6.672010
      16A     -1.278699    17A     -1.248627    18A     -1.096850
      19A     -1.072229    20A     -1.053506    21A     -0.991649
      22A     -0.880413    23A     -0.869140    24A     -0.786452
      25A     -0.769692    26A     -0.704127    27A     -0.684163
      28A     -0.668756    29A     -0.639116    30A     -0.594617
      31A     -0.584108    32A     -0.577193    33A     -0.549276
      34A     -0.531993    35A     -0.529719    36A     -0.517935
      37A     -0.441750    38A     -0.419154    39A     -0.402223
      40A     -0.389687    41A     -0.365769    42A     -0.317236

  @DF-RHF Final Energy:  -813.00132549753596

   => Energetics <=

    Nuclear Repulsion Energy =            625.4321381384381766
    One-Electron Energy =               -2354.2199776755373932
    Two-Electron Energy =                 915.7865140395632579
    Total Energy =                       -813.0013254975359587
  Basis Set: (AUG-CC-PVTZ AUX)
    Blend: AUG-CC-PVTZ-RI
    Molecular point group: c1

    Geometry (in Angstrom), charge = 0, multiplicity = 1:

       Center              X                  Y                   Z               Mass
    ------------   -----------------  -----------------  -----------------  -----------------
         S            1.728561735568    -1.167936495864    -0.000108301489    31.972071174400
         N           -1.222546264432    -1.096491495864     0.000085698511    14.003074004430
         N            1.403067735568     1.401088504136    -0.000055301489    14.003074004430
         C           -0.722081264432     0.156421504136     0.000041698511    12.000000000000
         C            0.736943735568     0.256778504136    -0.000033301489    12.000000000000
         C           -1.520077264432     1.309142504136     0.000059698511    12.000000000000
         C           -2.902296264432     1.151033504136     0.000130698511    12.000000000000
         C           -3.437321264432    -0.139254495864     0.000177698511    12.000000000000
         C           -2.559516264432    -1.224117495864     0.000151698511    12.000000000000
         C            3.117406735568    -0.165198495864    -0.000165301489    12.000000000000
         C            2.848020535568     1.144940604136    -0.000128301489    12.000000000000
         H           -1.045734264432     2.285739504136     0.000020698511     1.007825032230
         H           -3.554659264432     2.020917504136     0.000147698511     1.007825032230
         H           -4.511118264432    -0.303923495864     0.000232698511     1.007825032230
         H           -2.935975264432    -2.245574495864     0.000185698511     1.007825032230
         H            4.116357735568    -0.582056495864    -0.000222301489     1.007825032230
         H            3.439775735568     1.999159504136    -0.000144301489     1.007825032230

  Basis Set: AUG-CC-PVTZ
    Blend: AUG-CC-PVTZ
  Basis Set: (AUG-CC-PVTZ AUX)
    Blend: AUG-CC-PVTZ-JKFIT
	 Reference Energy          =    -813.0013254975359587 [Eh]
	 Singles Energy            =      -0.0000000000000000 [Eh]
	 Same-Spin Energy          =      -0.5233878679762791 [Eh]
	 Opposite-Spin Energy      =      -1.5534584438757424 [Eh]
	 Correlation Energy        =      -2.0768463118520213 [Eh]
	 Total Energy              =    -815.0781718093879817 [Eh]

	 ================> DF-SCS-MP2 Energies <==================
	-----------------------------------------------------------
	 SCS Same-Spin Scale       =       0.3333333333333333 [-]
	 SCS Opposite-Spin Scale   =       1.2000000000000000 [-]
	 SCS Same-Spin Energy      =      -0.1744626226587597 [Eh]
	 SCS Opposite-Spin Energy  =      -1.8641501326508907 [Eh]
	 SCS Correlation Energy    =      -2.0386127553096505 [Eh]
	 SCS Total Energy          =    -815.0399382528455590 [Eh]
	-----------------------------------------------------------

  Dipole Moment: [D]
     X:    -0.9150      Y:     0.2558      Z:    -0.0000     Total:     0.9501

*** Psi4 exiting successfully. Buy a developer a beer!
