                               Psi4 1.3.2 release

  ==> Input File <==

--------------------------------------------------------------------------
#psi4
#
memory 32 gb

molecule  {
0 1
  S        1.8588036    -1.1150877    -0.0001145
  N       -1.1892720    -1.1162850     0.0000840
  N        1.4363420     1.3812950    -0.0000570
  C       -0.6888070     0.1366280     0.0000400
  C        0.7702180     0.2369850    -0.0000350
  C       -1.4868030     1.2893490     0.0000580
  C       -2.8690220     1.1312400     0.0001290
  C       -3.4040470    -0.1590480     0.0001760
  C       -2.5262420    -1.2439110     0.0001500
  C        3.1506810    -0.1849920    -0.0001670
  C        2.7828300     1.1426020    -0.0001250
  H       -1.0124600     2.2659460     0.0000190
  H       -3.5213850     2.0011240     0.0001460
  H       -4.4778440    -0.3237170     0.0002310
  H       -2.9027010    -2.2653680     0.0001840
  H        4.1496320    -0.6018500    -0.0002240
  H        3.4730500     1.9793660    -0.0001460
units angstrom
no_reorient  #important for SAPT in psi4, default
symmetry c1  #important for SAPT in psi4, default
}

set PROPERTIES_ORIGIN ["COM"]
properties('MP2/aug-cc-pvtz', properties = ['dipole'])
--------------------------------------------------------------------------

    Molecular point group: c1
  Charge       = 0
  Multiplicity = 1
  Basis Set: AUG-CC-PVTZ
    Blend: AUG-CC-PVTZ
  Basis Set: (AUG-CC-PVTZ AUX)
    Blend: AUG-CC-PVTZ-JKFIT

    Orbital Energies [Eh]
    ---------------------

    Doubly Occupied:

       1A    -91.992290     2A    -15.576853     3A    -15.575214
       4A    -11.308749     5A    -11.298014     6A    -11.284086
       7A    -11.267151     8A    -11.266588     9A    -11.257700
      10A    -11.249585    11A    -11.248678    12A     -8.995741
      13A     -6.676876    14A     -6.675935    15A     -6.675240
      16A     -1.292146    17A     -1.261338    18A     -1.098318
      19A     -1.090640    20A     -1.063141    21A     -0.983646
      22A     -0.876054    23A     -0.868466    24A     -0.787356
      25A     -0.771207    26A     -0.714438    27A     -0.681073
      28A     -0.668396    29A     -0.641256    30A     -0.595640
      31A     -0.585603    32A     -0.585587    33A     -0.564852
      34A     -0.540242    35A     -0.531468    36A     -0.502540
      37A     -0.442718    38A     -0.423625    39A     -0.408930
      40A     -0.392367    41A     -0.368483    42A     -0.303134

  @DF-RHF Final Energy:  -813.00009001605360

   => Energetics <=

    Nuclear Repulsion Energy =            629.1612002051174386
    One-Electron Energy =               -2361.5398490478937674
    Two-Electron Energy =                 919.3785588267227240
    Total Energy =                       -813.0000900160536048
  Basis Set: (AUG-CC-PVTZ AUX)
    Blend: AUG-CC-PVTZ-RI
    Molecular point group: c1

    Geometry (in Angstrom), charge = 0, multiplicity = 1:

       Center              X                  Y                   Z               Mass
    ------------   -----------------  -----------------  -----------------  -----------------
         S            1.813687487686    -1.110921296243    -0.000112283826    31.972071174400
         N           -1.234388112314    -1.112118596243     0.000086216174    14.003074004430
         N            1.391225887686     1.385461403757    -0.000054783826    14.003074004430
         C           -0.733923112314     0.140794403757     0.000042216174    12.000000000000
         C            0.725101887686     0.241151403757    -0.000032783826    12.000000000000
         C           -1.531919112314     1.293515403757     0.000060216174    12.000000000000
         C           -2.914138112314     1.135406403757     0.000131216174    12.000000000000
         C           -3.449163112314    -0.154881596243     0.000178216174    12.000000000000
         C           -2.571358112314    -1.239744596243     0.000152216174    12.000000000000
         C            3.105564887686    -0.180825596243    -0.000164783826    12.000000000000
         C            2.737713887686     1.146768403757    -0.000122783826    12.000000000000
         H           -1.057576112314     2.270112403757     0.000021216174     1.007825032230
         H           -3.566501112314     2.005290403757     0.000148216174     1.007825032230
         H           -4.522960112314    -0.319550596243     0.000233216174     1.007825032230
         H           -2.947817112314    -2.261201596243     0.000186216174     1.007825032230
         H            4.104515887686    -0.597683596243    -0.000221783826     1.007825032230
         H            3.427933887686     1.983532403757    -0.000143783826     1.007825032230

  Basis Set: AUG-CC-PVTZ
    Blend: AUG-CC-PVTZ
  Basis Set: (AUG-CC-PVTZ AUX)
    Blend: AUG-CC-PVTZ-JKFIT
	 Reference Energy          =    -813.0000900160536048 [Eh]
	 Singles Energy            =      -0.0000000000000000 [Eh]
	 Same-Spin Energy          =      -0.5266584381055142 [Eh]
	 Opposite-Spin Energy      =      -1.5528591785870627 [Eh]
	 Correlation Energy        =      -2.0795176166925771 [Eh]
	 Total Energy              =    -815.0796076327461606 [Eh]

	 ================> DF-SCS-MP2 Energies <==================
	-----------------------------------------------------------
	 SCS Same-Spin Scale       =       0.3333333333333333 [-]
	 SCS Opposite-Spin Scale   =       1.2000000000000000 [-]
	 SCS Same-Spin Energy      =      -0.1755528127018380 [Eh]
	 SCS Opposite-Spin Energy  =      -1.8634310143044752 [Eh]
	 SCS Correlation Energy    =      -2.0389838270063132 [Eh]
	 SCS Total Energy          =    -815.0390738430598958 [Eh]
	-----------------------------------------------------------

  Dipole Moment: [D]
     X:    -0.6022      Y:     0.1589      Z:    -0.0000     Total:     0.6228

*** Psi4 exiting successfully. Buy a developer a beer!
