                               Psi4 1.4a3.dev225

  ==> Input File <==

--------------------------------------------------------------------------
#psi4
#
memory 32 gb

molecule  {
0 1
  S        1.7618360    -1.1877300    -0.0001100
  N       -1.1892720    -1.1162850     0.0000840
  N        1.4363420     1.3812950    -0.0000570
  C       -0.6888070     0.1366280     0.0000400
  C        0.7953724     0.2801968    -0.0000358
  C       -1.4868030     1.2893490     0.0000580
  C       -2.8690220     1.1312400     0.0001290
  C       -3.4040470    -0.1590480     0.0001760
  C       -2.5262420    -1.2439110     0.0001500
  C        3.1506810    -0.1849920    -0.0001670
  C        2.7828300     1.1426020    -0.0001250
  H       -1.0124600     2.2659460     0.0000190
  H       -3.5213850     2.0011240     0.0001460
  H       -4.4778440    -0.3237170     0.0002310
  H       -2.9027010    -2.2653680     0.0001840
  H        4.1496320    -0.6018500    -0.0002240
  H        3.4730500     1.9793660    -0.0001460
units angstrom
no_reorient  #important for SAPT in psi4, default
symmetry c1  #important for SAPT in psi4, default
}

set PROPERTIES_ORIGIN ["COM"]
properties('MP2/aug-cc-pvtz', properties = ['dipole'])
--------------------------------------------------------------------------

    Molecular point group: c1
  Charge       = 0
  Multiplicity = 1
  Basis Set: AUG-CC-PVTZ
    Blend: AUG-CC-PVTZ
  Basis Set: (AUG-CC-PVTZ AUX)
    Blend: AUG-CC-PVTZ-JKFIT

    Orbital Energies [Eh]
    ---------------------

    Doubly Occupied:

       1A    -91.991257     2A    -15.579660     3A    -15.572197
       4A    -11.312616     5A    -11.298981     6A    -11.285862
       7A    -11.269860     8A    -11.267460     9A    -11.265763
      10A    -11.251326    11A    -11.249376    12A     -8.991376
      13A     -6.672155    14A     -6.671529    15A     -6.670854
      16A     -1.299081    17A     -1.263623    18A     -1.096221
      19A     -1.069170    20A     -1.060866    21A     -0.985651
      22A     -0.874454    23A     -0.868480    24A     -0.795970
      25A     -0.764196    26A     -0.707809    27A     -0.681001
      28A     -0.668388    29A     -0.639718    30A     -0.595055
      31A     -0.589066    32A     -0.584302    33A     -0.557898
      34A     -0.538523    35A     -0.527534    36A     -0.501907
      37A     -0.445667    38A     -0.421425    39A     -0.400843
      40A     -0.394057    41A     -0.369384    42A     -0.310237

  @DF-RHF Final Energy:  -813.01018142120415

   => Energetics <=

    Nuclear Repulsion Energy =            626.9314434443599566
    One-Electron Energy =               -2357.1616581194448372
    Two-Electron Energy =                 917.2200332538807288
    Total Energy =                       -813.0101814212041518
  Basis Set: (AUG-CC-PVTZ AUX)
    Blend: AUG-CC-PVTZ-RI
    Molecular point group: c1

    Geometry (in Angstrom), charge = 0, multiplicity = 1:

       Center              X                  Y                   Z               Mass
    ------------   -----------------  -----------------  -----------------  -----------------
         S            1.733991291997    -1.172429627411    -0.000108612552    31.972071174400
         N           -1.217116708003    -1.100984627411     0.000085387448    14.003074004430
         N            1.408497291997     1.396595372589    -0.000055612552    14.003074004430
         C           -0.716651708003     0.151928372589     0.000041387448    12.000000000000
         C            0.767527691997     0.295497172589    -0.000034412552    12.000000000000
         C           -1.514647708003     1.304649372589     0.000059387448    12.000000000000
         C           -2.896866708003     1.146540372589     0.000130387448    12.000000000000
         C           -3.431891708003    -0.143747627411     0.000177387448    12.000000000000
         C           -2.554086708003    -1.228610627411     0.000151387448    12.000000000000
         C            3.122836291997    -0.169691627411    -0.000165612552    12.000000000000
         C            2.754985291997     1.157902372589    -0.000123612552    12.000000000000
         H           -1.040304708003     2.281246372589     0.000020387448     1.007825032230
         H           -3.549229708003     2.016424372589     0.000147387448     1.007825032230
         H           -4.505688708003    -0.308416627411     0.000232387448     1.007825032230
         H           -2.930545708003    -2.250067627411     0.000185387448     1.007825032230
         H            4.121787291997    -0.586549627411    -0.000222612552     1.007825032230
         H            3.445205291997     1.994666372589    -0.000144612552     1.007825032230

  Basis Set: AUG-CC-PVTZ
    Blend: AUG-CC-PVTZ
  Basis Set: (AUG-CC-PVTZ AUX)
    Blend: AUG-CC-PVTZ-JKFIT
	 Reference Energy          =    -813.0101814212041518 [Eh]
	 Singles Energy            =      -0.0000000000000000 [Eh]
	 Same-Spin Energy          =      -0.5238433619639473 [Eh]
	 Opposite-Spin Energy      =      -1.5515979676762339 [Eh]
	 Correlation Energy        =      -2.0754413296401815 [Eh]
	 Total Energy              =    -815.0856227508443226 [Eh]

	 ================> DF-SCS-MP2 Energies <==================
	-----------------------------------------------------------
	 SCS Same-Spin Scale       =       0.3333333333333333 [-]
	 SCS Opposite-Spin Scale   =       1.2000000000000000 [-]
	 SCS Same-Spin Energy      =      -0.1746144539879824 [Eh]
	 SCS Opposite-Spin Energy  =      -1.8619175612114807 [Eh]
	 SCS Correlation Energy    =      -2.0365320151994633 [Eh]
	 SCS Total Energy          =    -815.0467134364035928 [Eh]
	-----------------------------------------------------------

  Dipole Moment: [D]
     X:    -0.9144      Y:     0.3022      Z:    -0.0000     Total:     0.9631

*** Psi4 exiting successfully. Buy a developer a beer!
