                               Psi4 1.4a3.dev225

  ==> Input File <==

--------------------------------------------------------------------------
#psi4
#
memory 32 gb

molecule  {
0 1
  S        1.7618360    -1.1877300    -0.0001100
  N       -1.1892720    -1.1162850     0.0000840
  N        1.4363420     1.3812950    -0.0000570
  C       -0.6888070     0.1366280     0.0000400
  C        0.7702180     0.2369850    -0.0000350
  C       -1.4868030     1.2893490     0.0000580
  C       -2.8690220     1.1312400     0.0001290
  C       -3.4040470    -0.1590480     0.0001760
  C       -2.5262420    -1.2439110     0.0001500
  C        3.1506810    -0.1849920    -0.0001670
  C        2.7335976     1.1513295    -0.0001225
  H       -1.0124600     2.2659460     0.0000190
  H       -3.5213850     2.0011240     0.0001460
  H       -4.4778440    -0.3237170     0.0002310
  H       -2.9027010    -2.2653680     0.0001840
  H        4.1496320    -0.6018500    -0.0002240
  H        3.4730500     1.9793660    -0.0001460
units angstrom
no_reorient  #important for SAPT in psi4, default
symmetry c1  #important for SAPT in psi4, default
}

set PROPERTIES_ORIGIN ["COM"]
properties('MP2/aug-cc-pvtz', properties = ['dipole'])
--------------------------------------------------------------------------

    Molecular point group: c1
  Charge       = 0
  Multiplicity = 1
  Basis Set: AUG-CC-PVTZ
    Blend: AUG-CC-PVTZ
  Basis Set: (AUG-CC-PVTZ AUX)
    Blend: AUG-CC-PVTZ-JKFIT

    Orbital Energies [Eh]
    ---------------------

    Doubly Occupied:

       1A    -91.998195     2A    -15.578113     3A    -15.572728
       4A    -11.313551     5A    -11.297213     6A    -11.285285
       7A    -11.271468     8A    -11.267369     9A    -11.265900
      10A    -11.250720    11A    -11.249490    12A     -8.997925
      13A     -6.678633    14A     -6.678146    15A     -6.677541
      16A     -1.297245    17A     -1.263599    18A     -1.096334
      19A     -1.068341    20A     -1.065947    21A     -0.983804
      22A     -0.874996    23A     -0.869124    24A     -0.794961
      25A     -0.764318    26A     -0.709656    27A     -0.678454
      28A     -0.668967    29A     -0.639369    30A     -0.593364
      31A     -0.590305    32A     -0.584732    33A     -0.560574
      34A     -0.538285    35A     -0.529011    36A     -0.495366
      37A     -0.444559    38A     -0.426171    39A     -0.397620
      40A     -0.395756    41A     -0.373490    42A     -0.301496

  @DF-RHF Final Energy:  -813.00534015854373

   => Energetics <=

    Nuclear Repulsion Energy =            627.7678359331064257
    One-Electron Energy =               -2358.7701156758280376
    Two-Electron Energy =                 917.9969395841778805
    Total Energy =                       -813.0053401585437314
  Basis Set: (AUG-CC-PVTZ AUX)
    Blend: AUG-CC-PVTZ-RI
    Molecular point group: c1

    Geometry (in Angstrom), charge = 0, multiplicity = 1:

       Center              X                  Y                   Z               Mass
    ------------   -----------------  -----------------  -----------------  -----------------
         S            1.739500569373    -1.169875631624    -0.000108856958    31.972071174400
         N           -1.211607430627    -1.098430631624     0.000085143042    14.003074004430
         N            1.414006569373     1.399149368376    -0.000055856958    14.003074004430
         C           -0.711142430627     0.154482368376     0.000041143042    12.000000000000
         C            0.747882569373     0.254839368376    -0.000033856958    12.000000000000
         C           -1.509138430627     1.307203368376     0.000059143042    12.000000000000
         C           -2.891357430627     1.149094368376     0.000130143042    12.000000000000
         C           -3.426382430627    -0.141193631624     0.000177143042    12.000000000000
         C           -2.548577430627    -1.226056631624     0.000151143042    12.000000000000
         C            3.128345569373    -0.167137631624    -0.000165856958    12.000000000000
         C            2.711262169373     1.169183868376    -0.000121356958    12.000000000000
         H           -1.034795430627     2.283800368376     0.000020143042     1.007825032230
         H           -3.543720430627     2.018978368376     0.000147143042     1.007825032230
         H           -4.500179430627    -0.305862631624     0.000232143042     1.007825032230
         H           -2.925036430627    -2.247513631624     0.000185143042     1.007825032230
         H            4.127296569373    -0.583995631624    -0.000222856958     1.007825032230
         H            3.450714569373     1.997220368376    -0.000144856958     1.007825032230

  Basis Set: AUG-CC-PVTZ
    Blend: AUG-CC-PVTZ
  Basis Set: (AUG-CC-PVTZ AUX)
    Blend: AUG-CC-PVTZ-JKFIT
	 Reference Energy          =    -813.0053401585437314 [Eh]
	 Singles Energy            =      -0.0000000000000000 [Eh]
	 Same-Spin Energy          =      -0.5265786705063554 [Eh]
	 Opposite-Spin Energy      =      -1.5542712349067362 [Eh]
	 Correlation Energy        =      -2.0808499054130918 [Eh]
	 Total Energy              =    -815.0861900639567921 [Eh]

	 ================> DF-SCS-MP2 Energies <==================
	-----------------------------------------------------------
	 SCS Same-Spin Scale       =       0.3333333333333333 [-]
	 SCS Opposite-Spin Scale   =       1.2000000000000000 [-]
	 SCS Same-Spin Energy      =      -0.1755262235021185 [Eh]
	 SCS Opposite-Spin Energy  =      -1.8651254818880834 [Eh]
	 SCS Correlation Energy    =      -2.0406517053902018 [Eh]
	 SCS Total Energy          =    -815.0459918639339776 [Eh]
	-----------------------------------------------------------

  Dipole Moment: [D]
     X:    -0.7371      Y:     0.1724      Z:    -0.0000     Total:     0.7570

*** Psi4 exiting successfully. Buy a developer a beer!
