                               Psi4 1.3.2 release

  ==> Input File <==

--------------------------------------------------------------------------
#psi4
#
memory 32 gb

molecule  {
0 1
  S        1.6952717    -1.0884065    -0.0001052
  N       -1.1892720    -1.1162850     0.0000840
  N        1.4363420     1.3812950    -0.0000570
  C       -0.6888070     0.1366280     0.0000400
  C        0.7702180     0.2369850    -0.0000350
  C       -1.4868030     1.2893490     0.0000580
  C       -2.8690220     1.1312400     0.0001290
  C       -3.4040470    -0.1590480     0.0001760
  C       -2.5262420    -1.2439110     0.0001500
  C        3.1506810    -0.1849920    -0.0001670
  C        2.7828300     1.1426020    -0.0001250
  H       -1.0124600     2.2659460     0.0000190
  H       -3.5213850     2.0011240     0.0001460
  H       -4.4778440    -0.3237170     0.0002310
  H       -2.9027010    -2.2653680     0.0001840
  H        4.1496320    -0.6018500    -0.0002240
  H        3.4730500     1.9793660    -0.0001460
units angstrom
no_reorient  #important for SAPT in psi4, default
symmetry c1  #important for SAPT in psi4, default
}

set PROPERTIES_ORIGIN ["COM"]
properties('MP2/aug-cc-pvtz', properties = ['dipole'])
--------------------------------------------------------------------------

    Molecular point group: c1
  Charge       = 0
  Multiplicity = 1
  Basis Set: AUG-CC-PVTZ
    Blend: AUG-CC-PVTZ
  Basis Set: (AUG-CC-PVTZ AUX)
    Blend: AUG-CC-PVTZ-JKFIT

    Orbital Energies [Eh]
    ---------------------

    Doubly Occupied:

       1A    -91.992020     2A    -15.578503     3A    -15.566664
       4A    -11.301350     5A    -11.297052     6A    -11.285411
       7A    -11.270575     8A    -11.267224     9A    -11.262683
      10A    -11.250906    11A    -11.249056    12A     -8.995303
      13A     -6.676287    14A     -6.675558    15A     -6.674800
      16A     -1.294761    17A     -1.261696    18A     -1.097282
      19A     -1.071719    20A     -1.067154    21A     -0.995795
      22A     -0.877199    23A     -0.869233    24A     -0.792355
      25A     -0.769069    26A     -0.707226    27A     -0.679683
      28A     -0.669077    29A     -0.641171    30A     -0.595461
      31A     -0.589267    32A     -0.587638    33A     -0.570416
      34A     -0.538758    35A     -0.530197    36A     -0.496846
      37A     -0.443771    38A     -0.421582    39A     -0.398239
      40A     -0.387356    41A     -0.374160    42A     -0.312186

  @DF-RHF Final Energy:  -813.00333221648668

   => Energetics <=

    Nuclear Repulsion Energy =            632.7595453073563476
    One-Electron Energy =               -2368.7603779882006165
    Two-Electron Energy =                 922.9975004643575858
    Total Energy =                       -813.0033322164866831
  Basis Set: (AUG-CC-PVTZ AUX)
    Blend: AUG-CC-PVTZ-RI
    Molecular point group: c1

    Geometry (in Angstrom), charge = 0, multiplicity = 1:

       Center              X                  Y                   Z               Mass
    ------------   -----------------  -----------------  -----------------  -----------------
         S            1.682424978708    -1.089505038898    -0.000104818975    31.972071174400
         N           -1.202118721292    -1.117383538898     0.000084381025    14.003074004430
         N            1.423495278708     1.380196461102    -0.000056618975    14.003074004430
         C           -0.701653721292     0.135529461102     0.000040381025    12.000000000000
         C            0.757371278708     0.235886461102    -0.000034618975    12.000000000000
         C           -1.499649721292     1.288250461102     0.000058381025    12.000000000000
         C           -2.881868721292     1.130141461102     0.000129381025    12.000000000000
         C           -3.416893721292    -0.160146538898     0.000176381025    12.000000000000
         C           -2.539088721292    -1.245009538898     0.000150381025    12.000000000000
         C            3.137834278708    -0.186090538898    -0.000166618975    12.000000000000
         C            2.769983278708     1.141503461102    -0.000124618975    12.000000000000
         H           -1.025306721292     2.264847461102     0.000019381025     1.007825032230
         H           -3.534231721292     2.000025461102     0.000146381025     1.007825032230
         H           -4.490690721292    -0.324815538898     0.000231381025     1.007825032230
         H           -2.915547721292    -2.266466538898     0.000184381025     1.007825032230
         H            4.136785278708    -0.602948538898    -0.000223618975     1.007825032230
         H            3.460203278708     1.978267461102    -0.000145618975     1.007825032230

  Basis Set: AUG-CC-PVTZ
    Blend: AUG-CC-PVTZ
  Basis Set: (AUG-CC-PVTZ AUX)
    Blend: AUG-CC-PVTZ-JKFIT
	 Reference Energy          =    -813.0033322164866831 [Eh]
	 Singles Energy            =      -0.0000000000000000 [Eh]
	 Same-Spin Energy          =      -0.5260591046020225 [Eh]
	 Opposite-Spin Energy      =      -1.5524163765619603 [Eh]
	 Correlation Energy        =      -2.0784754811639830 [Eh]
	 Total Energy              =    -815.0818076976506745 [Eh]

	 ================> DF-SCS-MP2 Energies <==================
	-----------------------------------------------------------
	 SCS Same-Spin Scale       =       0.3333333333333333 [-]
	 SCS Opposite-Spin Scale   =       1.2000000000000000 [-]
	 SCS Same-Spin Energy      =      -0.1753530348673408 [Eh]
	 SCS Opposite-Spin Energy  =      -1.8628996518743524 [Eh]
	 SCS Correlation Energy    =      -2.0382526867416932 [Eh]
	 SCS Total Energy          =    -815.0415849032283404 [Eh]
	-----------------------------------------------------------

  Dipole Moment: [D]
     X:    -0.7424      Y:     0.1134      Z:    -0.0000     Total:     0.7510

*** Psi4 exiting successfully. Buy a developer a beer!
