                               Psi4 1.3.2 release

  ==> Input File <==

--------------------------------------------------------------------------
#psi4
#
memory 32 gb

molecule  {
0 1
  S        1.7618360    -1.1877300    -0.0001100
  N       -1.1892720    -1.1162850     0.0000840
  N        1.4363420     1.3812950    -0.0000570
  C       -0.6888070     0.1366280     0.0000400
  C        0.7702180     0.2369850    -0.0000350
  C       -1.4868030     1.2893490     0.0000580
  C       -2.8690220     1.1312400     0.0001290
  C       -3.4040470    -0.1590480     0.0001760
  C       -2.7253369    -1.2629164     0.0001598
  C        3.1506810    -0.1849920    -0.0001670
  C        2.7828300     1.1426020    -0.0001250
  H       -1.0124600     2.2659460     0.0000190
  H       -3.5213850     2.0011240     0.0001460
  H       -4.4778440    -0.3237170     0.0002310
  H       -2.9027010    -2.2653680     0.0001840
  H        4.1496320    -0.6018500    -0.0002240
  H        3.4730500     1.9793660    -0.0001460
units angstrom
no_reorient  #important for SAPT in psi4, default
symmetry c1  #important for SAPT in psi4, default
}

set PROPERTIES_ORIGIN ["COM"]
properties('MP2/aug-cc-pvtz', properties = ['dipole'])
--------------------------------------------------------------------------

    Molecular point group: c1
  Charge       = 0
  Multiplicity = 1
  Basis Set: AUG-CC-PVTZ
    Blend: AUG-CC-PVTZ
  Basis Set: (AUG-CC-PVTZ AUX)
    Blend: AUG-CC-PVTZ-JKFIT

    Orbital Energies [Eh]
    ---------------------

    Doubly Occupied:

       1A    -91.995280     2A    -15.584508     3A    -15.576021
       4A    -11.313920     5A    -11.297566     6A    -11.281015
       7A    -11.269904     8A    -11.269492     9A    -11.265740
      10A    -11.252347    11A    -11.244115    12A     -8.995287
      13A     -6.676050    14A     -6.675492    15A     -6.674827
      16A     -1.283758    17A     -1.229191    18A     -1.099851
      19A     -1.068602    20A     -1.055876    21A     -0.993977
      22A     -0.886994    23A     -0.859850    24A     -0.789781
      25A     -0.769789    26A     -0.707882    27A     -0.680573
      28A     -0.670026    29A     -0.641837    30A     -0.600702
      31A     -0.588012    32A     -0.577030    33A     -0.553409
      34A     -0.527252    35A     -0.518627    36A     -0.503259
      37A     -0.442330    38A     -0.419073    39A     -0.409740
      40A     -0.387329    41A     -0.359252    42A     -0.315799

  @DF-RHF Final Energy:  -812.96500497236218

   => Energetics <=

    Nuclear Repulsion Energy =            624.1615648157211353
    One-Electron Energy =               -2351.6304102622798382
    Two-Electron Energy =                 914.5038404741964086
    Total Energy =                       -812.9650049723621805
  Basis Set: (AUG-CC-PVTZ AUX)
    Blend: AUG-CC-PVTZ-RI
    Molecular point group: c1

    Geometry (in Angstrom), charge = 0, multiplicity = 1:

       Center              X                  Y                   Z               Mass
    ------------   -----------------  -----------------  -----------------  -----------------
         S            1.750599770854    -1.167821661853    -0.000109397615    31.972071174400
         N           -1.200508229146    -1.096376661853     0.000084602385    14.003074004430
         N            1.425105770854     1.401203338147    -0.000056397615    14.003074004430
         C           -0.700043229146     0.156536338147     0.000040602385    12.000000000000
         C            0.758981770854     0.256893338147    -0.000034397615    12.000000000000
         C           -1.498039229146     1.309257338147     0.000058602385    12.000000000000
         C           -2.880258229146     1.151148338147     0.000129602385    12.000000000000
         C           -3.415283229146    -0.139139661853     0.000176602385    12.000000000000
         C           -2.736573129146    -1.243008061853     0.000160402385    12.000000000000
         C            3.139444770854    -0.165083661853    -0.000166397615    12.000000000000
         C            2.771593770854     1.162510338147    -0.000124397615    12.000000000000
         H           -1.023696229146     2.285854338147     0.000019602385     1.007825032230
         H           -3.532621229146     2.021032338147     0.000146602385     1.007825032230
         H           -4.489080229146    -0.303808661853     0.000231602385     1.007825032230
         H           -2.913937229146    -2.245459661853     0.000184602385     1.007825032230
         H            4.138395770854    -0.581941661853    -0.000223397615     1.007825032230
         H            3.461813770854     1.999274338147    -0.000145397615     1.007825032230

  Basis Set: AUG-CC-PVTZ
    Blend: AUG-CC-PVTZ
  Basis Set: (AUG-CC-PVTZ AUX)
    Blend: AUG-CC-PVTZ-JKFIT
	 Reference Energy          =    -812.9650049723621805 [Eh]
	 Singles Energy            =      -0.0000000000000000 [Eh]
	 Same-Spin Energy          =      -0.5258223806232839 [Eh]
	 Opposite-Spin Energy      =      -1.5592576229088089 [Eh]
	 Correlation Energy        =      -2.0850800035320929 [Eh]
	 Total Energy              =    -815.0500849758942650 [Eh]

	 ================> DF-SCS-MP2 Energies <==================
	-----------------------------------------------------------
	 SCS Same-Spin Scale       =       0.3333333333333333 [-]
	 SCS Opposite-Spin Scale   =       1.2000000000000000 [-]
	 SCS Same-Spin Energy      =      -0.1752741268744279 [Eh]
	 SCS Opposite-Spin Energy  =      -1.8711091474905706 [Eh]
	 SCS Correlation Energy    =      -2.0463832743649983 [Eh]
	 SCS Total Energy          =    -815.0113882467271651 [Eh]
	-----------------------------------------------------------

  Dipole Moment: [D]
     X:    -0.8123      Y:     0.2021      Z:    -0.0000     Total:     0.8371

*** Psi4 exiting successfully. Buy a developer a beer!
