                               Psi4 1.3.2 release

  ==> Input File <==

--------------------------------------------------------------------------
#psi4
#
memory 32 gb

molecule  {
0 1
  S        1.7618360    -1.1877300    -0.0001100
  N       -1.1892720    -1.1162850     0.0000840
  N        1.4363420     1.3812950    -0.0000570
  C       -0.6888070     0.1366280     0.0000400
  C        0.8205439     0.2707241    -0.0000371
  C       -1.4868030     1.2893490     0.0000580
  C       -2.8690220     1.1312400     0.0001290
  C       -3.4040470    -0.1590480     0.0001760
  C       -2.5262420    -1.2439110     0.0001500
  C        3.1506810    -0.1849920    -0.0001670
  C        2.7828300     1.1426020    -0.0001250
  H       -1.0124600     2.2659460     0.0000190
  H       -3.5213850     2.0011240     0.0001460
  H       -4.4778440    -0.3237170     0.0002310
  H       -2.9027010    -2.2653680     0.0001840
  H        4.1496320    -0.6018500    -0.0002240
  H        3.4730500     1.9793660    -0.0001460
units angstrom
no_reorient  #important for SAPT in psi4, default
symmetry c1  #important for SAPT in psi4, default
}

set PROPERTIES_ORIGIN ["COM"]
properties('MP2/aug-cc-pvtz', properties = ['dipole'])
--------------------------------------------------------------------------

    Molecular point group: c1
  Charge       = 0
  Multiplicity = 1
  Basis Set: AUG-CC-PVTZ
    Blend: AUG-CC-PVTZ
  Basis Set: (AUG-CC-PVTZ AUX)
    Blend: AUG-CC-PVTZ-JKFIT

    Orbital Energies [Eh]
    ---------------------

    Doubly Occupied:

       1A    -91.992559     2A    -15.578830     3A    -15.571247
       4A    -11.311814     5A    -11.299539     6A    -11.285207
       7A    -11.270022     8A    -11.266956     9A    -11.265061
      10A    -11.250501    11A    -11.248622    12A     -8.993061
      13A     -6.673848    14A     -6.673226    15A     -6.672514
      16A     -1.301715    17A     -1.263147    18A     -1.095627
      19A     -1.070170    20A     -1.059638    21A     -0.986497
      22A     -0.871502    23A     -0.867236    24A     -0.796701
      25A     -0.762512    26A     -0.708838    27A     -0.680441
      28A     -0.667552    29A     -0.638501    30A     -0.592279
      31A     -0.588406    32A     -0.584707    33A     -0.559050
      34A     -0.539165    35A     -0.524765    36A     -0.503431
      37A     -0.447918    38A     -0.422252    39A     -0.399964
      40A     -0.393865    41A     -0.368995    42A     -0.312069

  @DF-RHF Final Energy:  -813.00910755666098

   => Energetics <=

    Nuclear Repulsion Energy =            627.0798346832069683
    One-Electron Energy =               -2357.4579893284712853
    Two-Electron Energy =                 917.3690470886032244
    Total Energy =                       -813.0091075566609788
  Basis Set: (AUG-CC-PVTZ AUX)
    Blend: AUG-CC-PVTZ-RI
    Molecular point group: c1

    Geometry (in Angstrom), charge = 0, multiplicity = 1:

       Center              X                  Y                   Z               Mass
    ------------   -----------------  -----------------  -----------------  -----------------
         S            1.732127026086    -1.171728054930    -0.000108516270    31.972071174400
         N           -1.218980973914    -1.100283054930     0.000085483730    14.003074004430
         N            1.406633026086     1.397296945070    -0.000055516270    14.003074004430
         C           -0.718515973914     0.152629945070     0.000041483730    12.000000000000
         C            0.790834926086     0.286726045070    -0.000035616270    12.000000000000
         C           -1.516511973914     1.305350945070     0.000059483730    12.000000000000
         C           -2.898730973914     1.147241945070     0.000130483730    12.000000000000
         C           -3.433755973914    -0.143046054930     0.000177483730    12.000000000000
         C           -2.555950973914    -1.227909054930     0.000151483730    12.000000000000
         C            3.120972026086    -0.168990054930    -0.000165516270    12.000000000000
         C            2.753121026086     1.158603945070    -0.000123516270    12.000000000000
         H           -1.042168973914     2.281947945070     0.000020483730     1.007825032230
         H           -3.551093973914     2.017125945070     0.000147483730     1.007825032230
         H           -4.507552973914    -0.307715054930     0.000232483730     1.007825032230
         H           -2.932409973914    -2.249366054930     0.000185483730     1.007825032230
         H            4.119923026086    -0.585848054930    -0.000222516270     1.007825032230
         H            3.443341026086     1.995367945070    -0.000144516270     1.007825032230

  Basis Set: AUG-CC-PVTZ
    Blend: AUG-CC-PVTZ
  Basis Set: (AUG-CC-PVTZ AUX)
    Blend: AUG-CC-PVTZ-JKFIT
	 Reference Energy          =    -813.0091075566609788 [Eh]
	 Singles Energy            =      -0.0000000000000000 [Eh]
	 Same-Spin Energy          =      -0.5235439338356811 [Eh]
	 Opposite-Spin Energy      =      -1.5511466576047024 [Eh]
	 Correlation Energy        =      -2.0746905914403833 [Eh]
	 Total Energy              =    -815.0837981481013230 [Eh]

	 ================> DF-SCS-MP2 Energies <==================
	-----------------------------------------------------------
	 SCS Same-Spin Scale       =       0.3333333333333333 [-]
	 SCS Opposite-Spin Scale   =       1.2000000000000000 [-]
	 SCS Same-Spin Energy      =      -0.1745146446118937 [Eh]
	 SCS Opposite-Spin Energy  =      -1.8613759891256427 [Eh]
	 SCS Correlation Energy    =      -2.0358906337375364 [Eh]
	 SCS Total Energy          =    -815.0449981903984735 [Eh]
	-----------------------------------------------------------

  Dipole Moment: [D]
     X:    -0.8621      Y:     0.2494      Z:    -0.0000     Total:     0.8975

*** Psi4 exiting successfully. Buy a developer a beer!
