                               Psi4 1.3.2 release

  ==> Input File <==

--------------------------------------------------------------------------
#psi4
#
memory 32 gb

molecule  {
0 1
  S        1.7618360    -1.1877300    -0.0001100
  N       -1.1892720    -1.1162850     0.0000840
  N        1.4363420     1.3812950    -0.0000570
  C       -0.6888070     0.1366280     0.0000400
  C        0.7702180     0.2369850    -0.0000350
  C       -1.4868030     1.2893490     0.0000580
  C       -2.8690220     1.1312400     0.0001290
  C       -3.4040470    -0.1590480     0.0001760
  C       -2.5262420    -1.2439110     0.0001500
  C        3.1506810    -0.1849920    -0.0001670
  C        2.8362341     0.9498638    -0.0001311
  H       -1.0124600     2.2659460     0.0000190
  H       -3.5213850     2.0011240     0.0001460
  H       -4.4778440    -0.3237170     0.0002310
  H       -2.9027010    -2.2653680     0.0001840
  H        4.1496320    -0.6018500    -0.0002240
  H        3.4730500     1.9793660    -0.0001460
units angstrom
no_reorient  #important for SAPT in psi4, default
symmetry c1  #important for SAPT in psi4, default
}

set PROPERTIES_ORIGIN ["COM"]
properties('MP2/aug-cc-pvtz', properties = ['dipole'])
--------------------------------------------------------------------------

    Molecular point group: c1
  Charge       = 0
  Multiplicity = 1
  Basis Set: AUG-CC-PVTZ
    Blend: AUG-CC-PVTZ
  Basis Set: (AUG-CC-PVTZ AUX)
    Blend: AUG-CC-PVTZ-JKFIT

    Orbital Energies [Eh]
    ---------------------

    Doubly Occupied:

       1A    -91.984874     2A    -15.582111     3A    -15.575865
       4A    -11.317044     5A    -11.298168     6A    -11.286980
       7A    -11.269501     8A    -11.255100     9A    -11.254823
      10A    -11.253336    11A    -11.237391    12A     -8.986335
      13A     -6.667182    14A     -6.666614    15A     -6.665623
      16A     -1.285827    17A     -1.259830    18A     -1.100859
      19A     -1.096891    20A     -1.055964    21A     -0.996236
      22A     -0.887213    23A     -0.870003    24A     -0.782250
      25A     -0.756924    26A     -0.712848    27A     -0.680256
      28A     -0.670196    29A     -0.636933    30A     -0.596055
      31A     -0.584803    32A     -0.572904    33A     -0.551602
      34A     -0.542911    35A     -0.531446    36A     -0.486841
      37A     -0.448317    38A     -0.420531    39A     -0.416155
      40A     -0.391488    41A     -0.367087    42A     -0.331613

  @DF-RHF Final Energy:  -812.95207282524132

   => Energetics <=

    Nuclear Repulsion Energy =            629.3256522507475665
    One-Electron Energy =               -2361.8855850138297683
    Two-Electron Energy =                 919.6078599378407716
    Total Energy =                       -812.9520728252413164
  Basis Set: (AUG-CC-PVTZ AUX)
    Blend: AUG-CC-PVTZ-RI
    Molecular point group: c1

    Geometry (in Angstrom), charge = 0, multiplicity = 1:

       Center              X                  Y                   Z               Mass
    ------------   -----------------  -----------------  -----------------  -----------------
         S            1.731899046691    -1.154954564673    -0.000108220020    31.972071174400
         N           -1.219208953309    -1.083509564673     0.000085779980    14.003074004430
         N            1.406405046691     1.414070435327    -0.000055220020    14.003074004430
         C           -0.718743953309     0.169403435327     0.000041779980    12.000000000000
         C            0.740281046691     0.269760435327    -0.000033220020    12.000000000000
         C           -1.516739953309     1.322124435327     0.000059779980    12.000000000000
         C           -2.898958953309     1.164015435327     0.000130779980    12.000000000000
         C           -3.433983953309    -0.126272564673     0.000177779980    12.000000000000
         C           -2.556178953309    -1.211135564673     0.000151779980    12.000000000000
         C            3.120744046691    -0.152216564673    -0.000165220020    12.000000000000
         C            2.806297146691     0.982639235327    -0.000129320020    12.000000000000
         H           -1.042396953309     2.298721435327     0.000020779980     1.007825032230
         H           -3.551321953309     2.033899435327     0.000147779980     1.007825032230
         H           -4.507780953309    -0.290941564673     0.000232779980     1.007825032230
         H           -2.932637953309    -2.232592564673     0.000185779980     1.007825032230
         H            4.119695046691    -0.569074564673    -0.000222220020     1.007825032230
         H            3.443113046691     2.012141435327    -0.000144220020     1.007825032230

  Basis Set: AUG-CC-PVTZ
    Blend: AUG-CC-PVTZ
  Basis Set: (AUG-CC-PVTZ AUX)
    Blend: AUG-CC-PVTZ-JKFIT
	 Reference Energy          =    -812.9520728252413164 [Eh]
	 Singles Energy            =      -0.0000000000000000 [Eh]
	 Same-Spin Energy          =      -0.5217337421815597 [Eh]
	 Opposite-Spin Energy      =      -1.5507290819729269 [Eh]
	 Correlation Energy        =      -2.0724628241544867 [Eh]
	 Total Energy              =    -815.0245356493958298 [Eh]

	 ================> DF-SCS-MP2 Energies <==================
	-----------------------------------------------------------
	 SCS Same-Spin Scale       =       0.3333333333333333 [-]
	 SCS Opposite-Spin Scale   =       1.2000000000000000 [-]
	 SCS Same-Spin Energy      =      -0.1739112473938532 [Eh]
	 SCS Opposite-Spin Energy  =      -1.8608748983675123 [Eh]
	 SCS Correlation Energy    =      -2.0347861457613656 [Eh]
	 SCS Total Energy          =    -814.9868589710026754 [Eh]
	-----------------------------------------------------------

  Dipole Moment: [D]
     X:    -1.1344      Y:     0.1683      Z:     0.0000     Total:     1.1468

*** Psi4 exiting successfully. Buy a developer a beer!
