                               Psi4 1.3.2 release

  ==> Input File <==

--------------------------------------------------------------------------
#psi4
#
memory 32 gb

molecule  {
0 1
  S        1.7618360    -1.1877300    -0.0001100
  N       -1.1892720    -1.1162850     0.0000840
  N        1.4363420     1.3812950    -0.0000570
  C       -0.6888070     0.1366280     0.0000400
  C        0.7702180     0.2369850    -0.0000350
  C       -1.4868030     1.2893490     0.0000580
  C       -2.8690220     1.1312400     0.0001290
  C       -3.4040470    -0.1590480     0.0001760
  C       -2.5262420    -1.2439110     0.0001500
  C        3.1506810    -0.1849920    -0.0001670
  C        2.6843652     1.1600569    -0.0001200
  H       -1.0124600     2.2659460     0.0000190
  H       -3.5213850     2.0011240     0.0001460
  H       -4.4778440    -0.3237170     0.0002310
  H       -2.9027010    -2.2653680     0.0001840
  H        4.1496320    -0.6018500    -0.0002240
  H        3.4730500     1.9793660    -0.0001460
units angstrom
no_reorient  #important for SAPT in psi4, default
symmetry c1  #important for SAPT in psi4, default
}

set PROPERTIES_ORIGIN ["COM"]
properties('MP2/aug-cc-pvtz', properties = ['dipole'])
--------------------------------------------------------------------------

    Molecular point group: c1
  Charge       = 0
  Multiplicity = 1
  Basis Set: AUG-CC-PVTZ
    Blend: AUG-CC-PVTZ
  Basis Set: (AUG-CC-PVTZ AUX)
    Blend: AUG-CC-PVTZ-JKFIT

    Orbital Energies [Eh]
    ---------------------

    Doubly Occupied:

       1A    -92.001185     2A    -15.577135     3A    -15.570764
       4A    -11.313105     5A    -11.296955     6A    -11.285006
       7A    -11.272872     8A    -11.267082     9A    -11.266869
      10A    -11.249892    11A    -11.248887    12A     -9.000567
      13A     -6.681210    14A     -6.680786    15A     -6.680248
      16A     -1.310896    17A     -1.265205    18A     -1.096121
      19A     -1.073577    20A     -1.064717    21A     -0.981127
      22A     -0.873039    23A     -0.868609    24A     -0.799841
      25A     -0.761737    26A     -0.712549    27A     -0.677413
      28A     -0.668792    29A     -0.638902    30A     -0.594694
      31A     -0.591377    32A     -0.589177    33A     -0.561264
      34A     -0.540588    35A     -0.528592    36A     -0.489112
      37A     -0.442920    38A     -0.427009    39A     -0.400961
      40A     -0.396171    41A     -0.374564    42A     -0.295759

  @DF-RHF Final Energy:  -812.99436567817884

   => Energetics <=

    Nuclear Repulsion Energy =            628.6254165848532693
    One-Electron Energy =               -2360.4050082722828847
    Two-Electron Energy =                 918.7852260092508914
    Total Energy =                       -812.9943656781788377
  Basis Set: (AUG-CC-PVTZ AUX)
    Blend: AUG-CC-PVTZ-RI
    Molecular point group: c1

    Geometry (in Angstrom), charge = 0, multiplicity = 1:

       Center              X                  Y                   Z               Mass
    ------------   -----------------  -----------------  -----------------  -----------------
         S            1.743146847308    -1.170522005273    -0.000109042114    31.972071174400
         N           -1.207961152692    -1.099077005273     0.000084957886    14.003074004430
         N            1.417652847308     1.398502994727    -0.000056042114    14.003074004430
         C           -0.707496152692     0.153835994727     0.000040957886    12.000000000000
         C            0.751528847308     0.254192994727    -0.000034042114    12.000000000000
         C           -1.505492152692     1.306556994727     0.000058957886    12.000000000000
         C           -2.887711152692     1.148447994727     0.000129957886    12.000000000000
         C           -3.422736152692    -0.141840005273     0.000176957886    12.000000000000
         C           -2.544931152692    -1.226703005273     0.000150957886    12.000000000000
         C            3.131991847308    -0.167784005273    -0.000166042114    12.000000000000
         C            2.665676047308     1.177264894727    -0.000119042114    12.000000000000
         H           -1.031149152692     2.283153994727     0.000019957886     1.007825032230
         H           -3.540074152692     2.018331994727     0.000146957886     1.007825032230
         H           -4.496533152692    -0.306509005273     0.000231957886     1.007825032230
         H           -2.921390152692    -2.248160005273     0.000184957886     1.007825032230
         H            4.130942847308    -0.584642005273    -0.000223042114     1.007825032230
         H            3.454360847308     1.996573994727    -0.000145042114     1.007825032230

  Basis Set: AUG-CC-PVTZ
    Blend: AUG-CC-PVTZ
  Basis Set: (AUG-CC-PVTZ AUX)
    Blend: AUG-CC-PVTZ-JKFIT
	 Reference Energy          =    -812.9943656781788377 [Eh]
	 Singles Energy            =      -0.0000000000000000 [Eh]
	 Same-Spin Energy          =      -0.5278931486115526 [Eh]
	 Opposite-Spin Energy      =      -1.5552582238827299 [Eh]
	 Correlation Energy        =      -2.0831513724942825 [Eh]
	 Total Energy              =    -815.0775170506731229 [Eh]

	 ================> DF-SCS-MP2 Energies <==================
	-----------------------------------------------------------
	 SCS Same-Spin Scale       =       0.3333333333333333 [-]
	 SCS Opposite-Spin Scale   =       1.2000000000000000 [-]
	 SCS Same-Spin Energy      =      -0.1759643828705175 [Eh]
	 SCS Opposite-Spin Energy  =      -1.8663098686592758 [Eh]
	 SCS Correlation Energy    =      -2.0422742515297934 [Eh]
	 SCS Total Energy          =    -815.0366399297085991 [Eh]
	-----------------------------------------------------------

  Dipole Moment: [D]
     X:    -0.6794      Y:     0.1583      Z:    -0.0000     Total:     0.6976

*** Psi4 exiting successfully. Buy a developer a beer!
