                               Psi4 1.4a3.dev225

  ==> Input File <==

--------------------------------------------------------------------------
#psi4
#
memory 32 gb

molecule  {
0 1
  S        1.7618360    -1.1877300    -0.0001100
  N       -1.1892720    -1.1162850     0.0000840
  N        1.4363420     1.3812950    -0.0000570
  C       -0.6888070     0.1366280     0.0000400
  C        0.7702180     0.2369850    -0.0000350
  C       -1.4868030     1.2893490     0.0000580
  C       -2.8690220     1.1312400     0.0001290
  C       -3.4040470    -0.1590480     0.0001760
  C       -2.5461515    -1.2458115     0.0001510
  C        3.1506810    -0.1849920    -0.0001670
  C        2.7828300     1.1426020    -0.0001250
  H       -1.0124600     2.2659460     0.0000190
  H       -3.5213850     2.0011240     0.0001460
  H       -4.4778440    -0.3237170     0.0002310
  H       -2.9027010    -2.2653680     0.0001840
  H        4.1496320    -0.6018500    -0.0002240
  H        3.4730500     1.9793660    -0.0001460
units angstrom
no_reorient  #important for SAPT in psi4, default
symmetry c1  #important for SAPT in psi4, default
}

set PROPERTIES_ORIGIN ["COM"]
properties('MP2/aug-cc-pvtz', properties = ['dipole'])
--------------------------------------------------------------------------

    Molecular point group: c1
  Charge       = 0
  Multiplicity = 1
  Basis Set: AUG-CC-PVTZ
    Blend: AUG-CC-PVTZ
  Basis Set: (AUG-CC-PVTZ AUX)
    Blend: AUG-CC-PVTZ-JKFIT

    Orbital Energies [Eh]
    ---------------------

    Doubly Occupied:

       1A    -91.995697     2A    -15.579938     3A    -15.574598
       4A    -11.313842     5A    -11.297551     6A    -11.285069
       7A    -11.270138     8A    -11.267876     9A    -11.265203
      10A    -11.250519    11A    -11.250035    12A     -8.995720
      13A     -6.676486    14A     -6.675936    15A     -6.675271
      16A     -1.286482    17A     -1.256563    18A     -1.096106
      19A     -1.068624    20A     -1.061872    21A     -0.987389
      22A     -0.876878    23A     -0.869440    24A     -0.790722
      25A     -0.766712    26A     -0.707276    27A     -0.679884
      28A     -0.667409    29A     -0.641217    30A     -0.594842
      31A     -0.587640    32A     -0.580776    33A     -0.557851
      34A     -0.534801    35A     -0.528579    36A     -0.503063
      37A     -0.444751    38A     -0.425047    39A     -0.399531
      40A     -0.391333    41A     -0.370547    42A     -0.308133

  @DF-RHF Final Energy:  -813.00831371265224

   => Energetics <=

    Nuclear Repulsion Energy =            626.6473853053608991
    One-Electron Energy =               -2356.5967041673775384
    Two-Electron Energy =                 916.9410051493645142
    Total Energy =                       -813.0083137126522388
  Basis Set: (AUG-CC-PVTZ AUX)
    Blend: AUG-CC-PVTZ-RI
    Molecular point group: c1

    Geometry (in Angstrom), charge = 0, multiplicity = 1:

       Center              X                  Y                   Z               Mass
    ------------   -----------------  -----------------  -----------------  -----------------
         S            1.737328840120    -1.169088494659    -0.000108745864    31.972071174400
         N           -1.213779159880    -1.097643494659     0.000085254136    14.003074004430
         N            1.411834840120     1.399936505341    -0.000055745864    14.003074004430
         C           -0.713314159880     0.155269505341     0.000041254136    12.000000000000
         C            0.745710840120     0.255626505341    -0.000033745864    12.000000000000
         C           -1.511310159880     1.307990505341     0.000059254136    12.000000000000
         C           -2.893529159880     1.149881505341     0.000130254136    12.000000000000
         C           -3.428554159880    -0.140406494659     0.000177254136    12.000000000000
         C           -2.570658659880    -1.227169994659     0.000152254136    12.000000000000
         C            3.126173840120    -0.166350494659    -0.000165745864    12.000000000000
         C            2.758322840120     1.161243505341    -0.000123745864    12.000000000000
         H           -1.036967159880     2.284587505341     0.000020254136     1.007825032230
         H           -3.545892159880     2.019765505341     0.000147254136     1.007825032230
         H           -4.502351159880    -0.305075494659     0.000232254136     1.007825032230
         H           -2.927208159880    -2.246726494659     0.000185254136     1.007825032230
         H            4.125124840120    -0.583208494659    -0.000222745864     1.007825032230
         H            3.448542840120     1.998007505341    -0.000144745864     1.007825032230

  Basis Set: AUG-CC-PVTZ
    Blend: AUG-CC-PVTZ
  Basis Set: (AUG-CC-PVTZ AUX)
    Blend: AUG-CC-PVTZ-JKFIT
	 Reference Energy          =    -813.0083137126522388 [Eh]
	 Singles Energy            =      -0.0000000000000000 [Eh]
	 Same-Spin Energy          =      -0.5254535285189323 [Eh]
	 Opposite-Spin Energy      =      -1.5540574085869550 [Eh]
	 Correlation Energy        =      -2.0795109371058871 [Eh]
	 Total Energy              =    -815.0878246497580903 [Eh]

	 ================> DF-SCS-MP2 Energies <==================
	-----------------------------------------------------------
	 SCS Same-Spin Scale       =       0.3333333333333333 [-]
	 SCS Opposite-Spin Scale   =       1.2000000000000000 [-]
	 SCS Same-Spin Energy      =      -0.1751511761729774 [Eh]
	 SCS Opposite-Spin Energy  =      -1.8648688903043458 [Eh]
	 SCS Correlation Energy    =      -2.0400200664773234 [Eh]
	 SCS Total Energy          =    -815.0483337791295071 [Eh]
	-----------------------------------------------------------

  Dipole Moment: [D]
     X:    -0.8069      Y:     0.1960      Z:    -0.0000     Total:     0.8304

*** Psi4 exiting successfully. Buy a developer a beer!
