                               Psi4 1.4a3.dev225

  ==> Input File <==

--------------------------------------------------------------------------
#psi4
#
memory 32 gb

molecule  {
0 1
  S        1.7618360    -1.1877300    -0.0001100
  N       -1.1892720    -1.1162850     0.0000840
  N        1.4363420     1.3812950    -0.0000570
  C       -0.6888070     0.1366280     0.0000400
  C        0.7702180     0.2369850    -0.0000350
  C       -1.4868030     1.2893490     0.0000580
  C       -2.8690220     1.1312400     0.0001290
  C       -3.4040470    -0.1590480     0.0001760
  C       -2.5262420    -1.2439110     0.0001500
  C        3.1506810    -0.1849920    -0.0001670
  C        2.7828300     1.1426020    -0.0001250
  H       -1.0124600     2.2659460     0.0000190
  H       -3.5213850     2.0011240     0.0001460
  H       -4.4778440    -0.3237170     0.0002310
  H       -2.9027010    -2.2653680     0.0001840
  H        4.1680894    -0.6095522    -0.0002251
  H        3.4730500     1.9793660    -0.0001460
units angstrom
no_reorient  #important for SAPT in psi4, default
symmetry c1  #important for SAPT in psi4, default
}

set PROPERTIES_ORIGIN ["COM"]
properties('MP2/aug-cc-pvtz', properties = ['dipole'])
--------------------------------------------------------------------------

    Molecular point group: c1
  Charge       = 0
  Multiplicity = 1
  Basis Set: AUG-CC-PVTZ
    Blend: AUG-CC-PVTZ
  Basis Set: (AUG-CC-PVTZ AUX)
    Blend: AUG-CC-PVTZ-JKFIT

    Orbital Energies [Eh]
    ---------------------

    Doubly Occupied:

       1A    -91.995833     2A    -15.578942     3A    -15.574437
       4A    -11.313831     5A    -11.297460     6A    -11.285514
       7A    -11.270256     8A    -11.267601     9A    -11.267134
      10A    -11.251398    11A    -11.249981    12A     -8.995848
      13A     -6.676613    14A     -6.676065    15A     -6.675398
      16A     -1.287571    17A     -1.260327    18A     -1.096569
      19A     -1.068254    20A     -1.062090    21A     -0.986279
      22A     -0.876798    23A     -0.869243    24A     -0.789118
      25A     -0.766390    26A     -0.706393    27A     -0.679625
      28A     -0.668286    29A     -0.639512    30A     -0.593744
      31A     -0.587301    32A     -0.581524    33A     -0.556956
      34A     -0.536069    35A     -0.529149    36A     -0.502978
      37A     -0.444259    38A     -0.424729    39A     -0.398879
      40A     -0.392592    41A     -0.371548    42A     -0.307100

  @DF-RHF Final Energy:  -813.00878779784784

   => Energetics <=

    Nuclear Repulsion Energy =            626.8445908081891957
    One-Electron Energy =               -2356.9875704789492374
    Two-Electron Energy =                 917.1341918729121971
    Total Energy =                       -813.0087877978478446
  Basis Set: (AUG-CC-PVTZ AUX)
    Blend: AUG-CC-PVTZ-RI
    Molecular point group: c1

    Geometry (in Angstrom), charge = 0, multiplicity = 1:

       Center              X                  Y                   Z               Mass
    ------------   -----------------  -----------------  -----------------  -----------------
         S            1.735739483166    -1.169181341531    -0.000108664959    31.972071174400
         N           -1.215368516834    -1.097736341531     0.000085335041    14.003074004430
         N            1.410245483166     1.399843658469    -0.000055664959    14.003074004430
         C           -0.714903516834     0.155176658469     0.000041335041    12.000000000000
         C            0.744121483166     0.255533658469    -0.000033664959    12.000000000000
         C           -1.512899516834     1.307897658469     0.000059335041    12.000000000000
         C           -2.895118516834     1.149788658469     0.000130335041    12.000000000000
         C           -3.430143516834    -0.140499341531     0.000177335041    12.000000000000
         C           -2.552338516834    -1.225362341531     0.000151335041    12.000000000000
         C            3.124584483166    -0.166443341531    -0.000165664959    12.000000000000
         C            2.756733483166     1.161150658469    -0.000123664959    12.000000000000
         H           -1.038556516834     2.284494658469     0.000020335041     1.007825032230
         H           -3.547481516834     2.019672658469     0.000147335041     1.007825032230
         H           -4.503940516834    -0.305168341531     0.000232335041     1.007825032230
         H           -2.928797516834    -2.246819341531     0.000185335041     1.007825032230
         H            4.141992883166    -0.591003541531    -0.000223764959     1.007825032230
         H            3.446953483166     1.997914658469    -0.000144664959     1.007825032230

  Basis Set: AUG-CC-PVTZ
    Blend: AUG-CC-PVTZ
  Basis Set: (AUG-CC-PVTZ AUX)
    Blend: AUG-CC-PVTZ-JKFIT
	 Reference Energy          =    -813.0087877978478446 [Eh]
	 Singles Energy            =      -0.0000000000000000 [Eh]
	 Same-Spin Energy          =      -0.5253939127603067 [Eh]
	 Opposite-Spin Energy      =      -1.5537594194207354 [Eh]
	 Correlation Energy        =      -2.0791533321810420 [Eh]
	 Total Energy              =    -815.0879411300288666 [Eh]

	 ================> DF-SCS-MP2 Energies <==================
	-----------------------------------------------------------
	 SCS Same-Spin Scale       =       0.3333333333333333 [-]
	 SCS Opposite-Spin Scale   =       1.2000000000000000 [-]
	 SCS Same-Spin Energy      =      -0.1751313042534355 [Eh]
	 SCS Opposite-Spin Energy  =      -1.8645113033048824 [Eh]
	 SCS Correlation Energy    =      -2.0396426075583181 [Eh]
	 SCS Total Energy          =    -815.0484304054061795 [Eh]
	-----------------------------------------------------------

  Dipole Moment: [D]
     X:    -0.7972      Y:     0.1930      Z:    -0.0000     Total:     0.8202

*** Psi4 exiting successfully. Buy a developer a beer!
