                               Psi4 1.4a3.dev225

  ==> Input File <==

--------------------------------------------------------------------------
#psi4
#
memory 32 gb

molecule  {
0 1
  S        1.7618360    -1.1877300    -0.0001100
  N       -1.1892720    -1.1162850     0.0000840
  N        1.4363420     1.3812950    -0.0000570
  C       -0.6888070     0.1366280     0.0000400
  C        0.7702180     0.2369850    -0.0000350
  C       -1.4868030     1.2893490     0.0000580
  C       -2.8690220     1.1312400     0.0001290
  C       -3.4040470    -0.1590480     0.0001760
  C       -2.5262420    -1.2439110     0.0001500
  C        3.1506810    -0.1849920    -0.0001670
  C        2.7828300     1.1426020    -0.0001250
  H       -1.0124600     2.2659460     0.0000190
  H       -3.5213850     2.0011240     0.0001460
  H       -4.4778440    -0.3237170     0.0002310
  H       -2.9027010    -2.2653680     0.0001840
  H        4.1496320    -0.6018500    -0.0002240
  H        3.4412339     1.9407948    -0.0001450
units angstrom
no_reorient  #important for SAPT in psi4, default
symmetry c1  #important for SAPT in psi4, default
}

set PROPERTIES_ORIGIN ["COM"]
properties('MP2/aug-cc-pvtz', properties = ['dipole'])
--------------------------------------------------------------------------

    Molecular point group: c1
  Charge       = 0
  Multiplicity = 1
  Basis Set: AUG-CC-PVTZ
    Blend: AUG-CC-PVTZ
  Basis Set: (AUG-CC-PVTZ AUX)
    Blend: AUG-CC-PVTZ-JKFIT

    Orbital Energies [Eh]
    ---------------------

    Doubly Occupied:

       1A    -91.995492     2A    -15.578801     3A    -15.573932
       4A    -11.313469     5A    -11.297288     6A    -11.285400
       7A    -11.267495     8A    -11.265411     9A    -11.263925
      10A    -11.251288    11A    -11.249855    12A     -8.995525
      13A     -6.676293    14A     -6.675744    15A     -6.675082
      16A     -1.287340    17A     -1.260183    18A     -1.096456
      19A     -1.068638    20A     -1.062169    21A     -0.988301
      22A     -0.877760    23A     -0.869368    24A     -0.792745
      25A     -0.769353    26A     -0.707220    27A     -0.683352
      28A     -0.668883    29A     -0.641436    30A     -0.595287
      31A     -0.589441    32A     -0.581275    33A     -0.558351
      34A     -0.535865    35A     -0.529260    36A     -0.504693
      37A     -0.444254    38A     -0.424515    39A     -0.398731
      40A     -0.392396    41A     -0.371392    42A     -0.306985

  @DF-RHF Final Energy:  -813.00866971999153

   => Energetics <=

    Nuclear Repulsion Energy =            627.2368142161753894
    One-Electron Energy =               -2357.7496682069809140
    Two-Electron Energy =                 917.5041842708139939
    Total Energy =                       -813.0086697199915307
  Basis Set: (AUG-CC-PVTZ AUX)
    Blend: AUG-CC-PVTZ-RI
    Molecular point group: c1

    Geometry (in Angstrom), charge = 0, multiplicity = 1:

       Center              X                  Y                   Z               Mass
    ------------   -----------------  -----------------  -----------------  -----------------
         S            1.736052193172    -1.168989330925    -0.000108678022    31.972071174400
         N           -1.215055806828    -1.097544330925     0.000085321978    14.003074004430
         N            1.410558193172     1.400035669075    -0.000055678022    14.003074004430
         C           -0.714590806828     0.155368669075     0.000041321978    12.000000000000
         C            0.744434193172     0.255725669075    -0.000033678022    12.000000000000
         C           -1.512586806828     1.308089669075     0.000059321978    12.000000000000
         C           -2.894805806828     1.149980669075     0.000130321978    12.000000000000
         C           -3.429830806828    -0.140307330925     0.000177321978    12.000000000000
         C           -2.552025806828    -1.225170330925     0.000151321978    12.000000000000
         C            3.124897193172    -0.166251330925    -0.000165678022    12.000000000000
         C            2.757046193172     1.161342669075    -0.000123678022    12.000000000000
         H           -1.038243806828     2.284686669075     0.000020321978     1.007825032230
         H           -3.547168806828     2.019864669075     0.000147321978     1.007825032230
         H           -4.503627806828    -0.304976330925     0.000232321978     1.007825032230
         H           -2.928484806828    -2.246627330925     0.000185321978     1.007825032230
         H            4.123848193172    -0.583109330925    -0.000222678022     1.007825032230
         H            3.415450093172     1.959535469075    -0.000143678022     1.007825032230

  Basis Set: AUG-CC-PVTZ
    Blend: AUG-CC-PVTZ
  Basis Set: (AUG-CC-PVTZ AUX)
    Blend: AUG-CC-PVTZ-JKFIT
	 Reference Energy          =    -813.0086697199915307 [Eh]
	 Singles Energy            =      -0.0000000000000000 [Eh]
	 Same-Spin Energy          =      -0.5252381820824428 [Eh]
	 Opposite-Spin Energy      =      -1.5533614902342587 [Eh]
	 Correlation Energy        =      -2.0785996723167015 [Eh]
	 Total Energy              =    -815.0872693923082579 [Eh]

	 ================> DF-SCS-MP2 Energies <==================
	-----------------------------------------------------------
	 SCS Same-Spin Scale       =       0.3333333333333333 [-]
	 SCS Opposite-Spin Scale   =       1.2000000000000000 [-]
	 SCS Same-Spin Energy      =      -0.1750793940274809 [Eh]
	 SCS Opposite-Spin Energy  =      -1.8640337882811104 [Eh]
	 SCS Correlation Energy    =      -2.0391131823085913 [Eh]
	 SCS Total Energy          =    -815.0477829023001277 [Eh]
	-----------------------------------------------------------

  Dipole Moment: [D]
     X:    -0.7870      Y:     0.1960      Z:    -0.0000     Total:     0.8110

*** Psi4 exiting successfully. Buy a developer a beer!
