                               Psi4 1.3.2 release

  ==> Input File <==

--------------------------------------------------------------------------
#psi4
#
memory 32 gb

molecule  {
0 1
  S        1.7618360    -1.1877300    -0.0001100
  N       -1.1892720    -1.1162850     0.0000840
  N        1.4288320     1.3341578    -0.0000573
  C       -0.6888070     0.1366280     0.0000400
  C        0.7702180     0.2369850    -0.0000350
  C       -1.4868030     1.2893490     0.0000580
  C       -2.8690220     1.1312400     0.0001290
  C       -3.4040470    -0.1590480     0.0001760
  C       -2.5262420    -1.2439110     0.0001500
  C        3.1506810    -0.1849920    -0.0001670
  C        2.7828300     1.1426020    -0.0001250
  H       -1.0124600     2.2659460     0.0000190
  H       -3.5213850     2.0011240     0.0001460
  H       -4.4778440    -0.3237170     0.0002310
  H       -2.9027010    -2.2653680     0.0001840
  H        4.1496320    -0.6018500    -0.0002240
  H        3.4730500     1.9793660    -0.0001460
units angstrom
no_reorient  #important for SAPT in psi4, default
symmetry c1  #important for SAPT in psi4, default
}

set PROPERTIES_ORIGIN ["COM"]
properties('MP2/aug-cc-pvtz', properties = ['dipole'])
--------------------------------------------------------------------------

    Molecular point group: c1
  Charge       = 0
  Multiplicity = 1
  Basis Set: AUG-CC-PVTZ
    Blend: AUG-CC-PVTZ
  Basis Set: (AUG-CC-PVTZ AUX)
    Blend: AUG-CC-PVTZ-JKFIT

    Orbital Energies [Eh]
    ---------------------

    Doubly Occupied:

       1A    -91.990904     2A    -15.578604     3A    -15.568385
       4A    -11.307715     5A    -11.296676     6A    -11.285151
       7A    -11.270258     8A    -11.267408     9A    -11.266033
      10A    -11.251103    11A    -11.249683    12A     -8.991359
      13A     -6.672134    14A     -6.671609    15A     -6.670885
      16A     -1.297305    17A     -1.262865    18A     -1.096243
      19A     -1.070325    20A     -1.060036    21A     -0.989264
      22A     -0.877190    23A     -0.869179    24A     -0.795239
      25A     -0.766135    26A     -0.706398    27A     -0.681084
      28A     -0.668486    29A     -0.641568    30A     -0.598041
      31A     -0.589786    32A     -0.585610    33A     -0.558915
      34A     -0.537601    35A     -0.530174    36A     -0.501820
      37A     -0.440872    38A     -0.419639    39A     -0.400166
      40A     -0.392793    41A     -0.369790    42A     -0.309918

  @DF-RHF Final Energy:  -813.01143509946132

   => Energetics <=

    Nuclear Repulsion Energy =            628.3197753546173772
    One-Electron Energy =               -2359.9537320557524254
    Two-Electron Energy =                 918.6225216016737249
    Total Energy =                       -813.0114350994613233
  Basis Set: (AUG-CC-PVTZ AUX)
    Blend: AUG-CC-PVTZ-RI
    Molecular point group: c1

    Geometry (in Angstrom), charge = 0, multiplicity = 1:

       Center              X                  Y                   Z               Mass
    ------------   -----------------  -----------------  -----------------  -----------------
         S            1.736503345447    -1.165155403878    -0.000108645874    31.972071174400
         N           -1.214604654553    -1.093710403878     0.000085354126    14.003074004430
         N            1.403499345447     1.356732396122    -0.000055945874    14.003074004430
         C           -0.714139654553     0.159202596122     0.000041354126    12.000000000000
         C            0.744885345447     0.259559596122    -0.000033645874    12.000000000000
         C           -1.512135654553     1.311923596122     0.000059354126    12.000000000000
         C           -2.894354654553     1.153814596122     0.000130354126    12.000000000000
         C           -3.429379654553    -0.136473403878     0.000177354126    12.000000000000
         C           -2.551574654553    -1.221336403878     0.000151354126    12.000000000000
         C            3.125348345447    -0.162417403878    -0.000165645874    12.000000000000
         C            2.757497345447     1.165176596122    -0.000123645874    12.000000000000
         H           -1.037792654553     2.288520596122     0.000020354126     1.007825032230
         H           -3.546717654553     2.023698596122     0.000147354126     1.007825032230
         H           -4.503176654553    -0.301142403878     0.000232354126     1.007825032230
         H           -2.928033654553    -2.242793403878     0.000185354126     1.007825032230
         H            4.124299345447    -0.579275403878    -0.000222645874     1.007825032230
         H            3.447717345447     2.001940596122    -0.000144645874     1.007825032230

  Basis Set: AUG-CC-PVTZ
    Blend: AUG-CC-PVTZ
  Basis Set: (AUG-CC-PVTZ AUX)
    Blend: AUG-CC-PVTZ-JKFIT
	 Reference Energy          =    -813.0114350994613233 [Eh]
	 Singles Energy            =      -0.0000000000000000 [Eh]
	 Same-Spin Energy          =      -0.5242461091144245 [Eh]
	 Opposite-Spin Energy      =      -1.5515025259200250 [Eh]
	 Correlation Energy        =      -2.0757486350344494 [Eh]
	 Total Energy              =    -815.0871837344957385 [Eh]

	 ================> DF-SCS-MP2 Energies <==================
	-----------------------------------------------------------
	 SCS Same-Spin Scale       =       0.3333333333333333 [-]
	 SCS Opposite-Spin Scale   =       1.2000000000000000 [-]
	 SCS Same-Spin Energy      =      -0.1747487030381415 [Eh]
	 SCS Opposite-Spin Energy  =      -1.8618030311040299 [Eh]
	 SCS Correlation Energy    =      -2.0365517341421713 [Eh]
	 SCS Total Energy          =    -815.0479868336035452 [Eh]
	-----------------------------------------------------------

  Dipole Moment: [D]
     X:    -0.8545      Y:     0.3672      Z:    -0.0000     Total:     0.9301

*** Psi4 exiting successfully. Buy a developer a beer!
