                               Psi4 1.3.2 release

  ==> Input File <==

--------------------------------------------------------------------------
#psi4
#
memory 32 gb

molecule  {
0 1
  S        1.7618360    -1.1877300    -0.0001100
  N       -1.1892720    -1.1162850     0.0000840
  N        1.4758721     1.3573505    -0.0000593
  C       -0.6888070     0.1366280     0.0000400
  C        0.7702180     0.2369850    -0.0000350
  C       -1.4868030     1.2893490     0.0000580
  C       -2.8690220     1.1312400     0.0001290
  C       -3.4040470    -0.1590480     0.0001760
  C       -2.5262420    -1.2439110     0.0001500
  C        3.1506810    -0.1849920    -0.0001670
  C        2.7828300     1.1426020    -0.0001250
  H       -1.0124600     2.2659460     0.0000190
  H       -3.5213850     2.0011240     0.0001460
  H       -4.4778440    -0.3237170     0.0002310
  H       -2.9027010    -2.2653680     0.0001840
  H        4.1496320    -0.6018500    -0.0002240
  H        3.4730500     1.9793660    -0.0001460
units angstrom
no_reorient  #important for SAPT in psi4, default
symmetry c1  #important for SAPT in psi4, default
}

set PROPERTIES_ORIGIN ["COM"]
properties('MP2/aug-cc-pvtz', properties = ['dipole'])
--------------------------------------------------------------------------

    Molecular point group: c1
  Charge       = 0
  Multiplicity = 1
  Basis Set: AUG-CC-PVTZ
    Blend: AUG-CC-PVTZ
  Basis Set: (AUG-CC-PVTZ AUX)
    Blend: AUG-CC-PVTZ-JKFIT

    Orbital Energies [Eh]
    ---------------------

    Doubly Occupied:

       1A    -91.995887     2A    -15.578964     3A    -15.569249
       4A    -11.312761     5A    -11.298599     6A    -11.285871
       7A    -11.267872     8A    -11.265848     9A    -11.263433
      10A    -11.251317    11A    -11.250203    12A     -8.995781
      13A     -6.676506    14A     -6.676008    15A     -6.675381
      16A     -1.293948    17A     -1.263690    18A     -1.096710
      19A     -1.069224    20A     -1.062065    21A     -0.988682
      22A     -0.877169    23A     -0.869693    24A     -0.795276
      25A     -0.766036    26A     -0.708090    27A     -0.681716
      28A     -0.669018    29A     -0.642286    30A     -0.597409
      31A     -0.589802    32A     -0.583849    33A     -0.557565
      34A     -0.538527    35A     -0.530084    36A     -0.501820
      37A     -0.440084    38A     -0.422367    39A     -0.398156
      40A     -0.392963    41A     -0.374150    42A     -0.304410

  @DF-RHF Final Energy:  -813.00835471126902

   => Energetics <=

    Nuclear Repulsion Energy =            627.6369013752528190
    One-Electron Energy =               -2358.5335781668391064
    Two-Electron Energy =                 917.8883220803172662
    Total Energy =                       -813.0083547112690212
  Basis Set: (AUG-CC-PVTZ AUX)
    Blend: AUG-CC-PVTZ-RI
    Molecular point group: c1

    Geometry (in Angstrom), charge = 0, multiplicity = 1:

       Center              X                  Y                   Z               Mass
    ------------   -----------------  -----------------  -----------------  -----------------
         S            1.732437890654    -1.167159839953    -0.000108473023    31.972071174400
         N           -1.218670109346    -1.095714839953     0.000085526977    14.003074004430
         N            1.446473990654     1.377920660047    -0.000057773023    14.003074004430
         C           -0.718205109346     0.157198160047     0.000041526977    12.000000000000
         C            0.740819890654     0.257555160047    -0.000033473023    12.000000000000
         C           -1.516201109346     1.309919160047     0.000059526977    12.000000000000
         C           -2.898420109346     1.151810160047     0.000130526977    12.000000000000
         C           -3.433445109346    -0.138477839953     0.000177526977    12.000000000000
         C           -2.555640109346    -1.223340839953     0.000151526977    12.000000000000
         C            3.121282890654    -0.164421839953    -0.000165473023    12.000000000000
         C            2.753431890654     1.163172160047    -0.000123473023    12.000000000000
         H           -1.041858109346     2.286516160047     0.000020526977     1.007825032230
         H           -3.550783109346     2.021694160047     0.000147526977     1.007825032230
         H           -4.507242109346    -0.303146839953     0.000232526977     1.007825032230
         H           -2.932099109346    -2.244797839953     0.000185526977     1.007825032230
         H            4.120233890654    -0.581279839953    -0.000222473023     1.007825032230
         H            3.443651890654     1.999936160047    -0.000144473023     1.007825032230

  Basis Set: AUG-CC-PVTZ
    Blend: AUG-CC-PVTZ
  Basis Set: (AUG-CC-PVTZ AUX)
    Blend: AUG-CC-PVTZ-JKFIT
	 Reference Energy          =    -813.0083547112690212 [Eh]
	 Singles Energy            =      -0.0000000000000000 [Eh]
	 Same-Spin Energy          =      -0.5260016086466490 [Eh]
	 Opposite-Spin Energy      =      -1.5532919407174091 [Eh]
	 Correlation Energy        =      -2.0792935493640581 [Eh]
	 Total Energy              =    -815.0876482606330455 [Eh]

	 ================> DF-SCS-MP2 Energies <==================
	-----------------------------------------------------------
	 SCS Same-Spin Scale       =       0.3333333333333333 [-]
	 SCS Opposite-Spin Scale   =       1.2000000000000000 [-]
	 SCS Same-Spin Energy      =      -0.1753338695488830 [Eh]
	 SCS Opposite-Spin Energy  =      -1.8639503288608907 [Eh]
	 SCS Correlation Energy    =      -2.0392841984097738 [Eh]
	 SCS Total Energy          =    -815.0476389096787670 [Eh]
	-----------------------------------------------------------

  Dipole Moment: [D]
     X:    -0.8391      Y:     0.2572      Z:    -0.0000     Total:     0.8776

*** Psi4 exiting successfully. Buy a developer a beer!
