                               Psi4 1.3.2 release

  ==> Input File <==

--------------------------------------------------------------------------
#psi4
#
memory 32 gb

molecule  {
0 1
  S        1.7618360    -1.1877300    -0.0001100
  N       -1.1892720    -1.1162850     0.0000840
  N        1.4686684     1.5207337    -0.0000559
  C       -0.6888070     0.1366280     0.0000400
  C        0.7702180     0.2369850    -0.0000350
  C       -1.4868030     1.2893490     0.0000580
  C       -2.8690220     1.1312400     0.0001290
  C       -3.4040470    -0.1590480     0.0001760
  C       -2.5262420    -1.2439110     0.0001500
  C        3.1506810    -0.1849920    -0.0001670
  C        2.7828300     1.1426020    -0.0001250
  H       -1.0124600     2.2659460     0.0000190
  H       -3.5213850     2.0011240     0.0001460
  H       -4.4778440    -0.3237170     0.0002310
  H       -2.9027010    -2.2653680     0.0001840
  H        4.1496320    -0.6018500    -0.0002240
  H        3.4730500     1.9793660    -0.0001460
units angstrom
no_reorient  #important for SAPT in psi4, default
symmetry c1  #important for SAPT in psi4, default
}

set PROPERTIES_ORIGIN ["COM"]
properties('MP2/aug-cc-pvtz', properties = ['dipole'])
--------------------------------------------------------------------------

    Molecular point group: c1
  Charge       = 0
  Multiplicity = 1
  Basis Set: AUG-CC-PVTZ
    Blend: AUG-CC-PVTZ
  Basis Set: (AUG-CC-PVTZ AUX)
    Blend: AUG-CC-PVTZ-JKFIT

    Orbital Energies [Eh]
    ---------------------

    Doubly Occupied:

       1A    -92.008721     2A    -15.589868     3A    -15.580136
       4A    -11.329770     5A    -11.299317     6A    -11.286762
       7A    -11.270608     8A    -11.268436     9A    -11.261685
      10A    -11.252710    11A    -11.251359    12A     -9.007609
      13A     -6.688316    14A     -6.687737    15A     -6.687233
      16A     -1.275618    17A     -1.241880    18A     -1.097882
      19A     -1.070427    20A     -1.063833    21A     -0.977854
      22A     -0.877427    23A     -0.869685    24A     -0.780109
      25A     -0.765296    26A     -0.709433    27A     -0.677968
      28A     -0.670509    29A     -0.636425    30A     -0.592330
      31A     -0.573831    32A     -0.570439    33A     -0.554739
      34A     -0.531334    35A     -0.528471    36A     -0.504338
      37A     -0.455371    38A     -0.431328    39A     -0.398645
      40A     -0.390052    41A     -0.376391    42A     -0.298278

  @DF-RHF Final Energy:  -812.98037597949383

   => Energetics <=

    Nuclear Repulsion Energy =            623.0731949532093950
    One-Electron Energy =               -2349.3268229840500680
    Two-Electron Energy =                 913.2732520513468444
    Total Energy =                       -812.9803759794938287
  Basis Set: (AUG-CC-PVTZ AUX)
    Blend: AUG-CC-PVTZ-RI
    Molecular point group: c1

    Geometry (in Angstrom), charge = 0, multiplicity = 1:

       Center              X                  Y                   Z               Mass
    ------------   -----------------  -----------------  -----------------  -----------------
         S            1.733060472593    -1.181280282162    -0.000108766869    31.972071174400
         N           -1.218047527407    -1.109835282162     0.000085233131    14.003074004430
         N            1.439892872593     1.527183417838    -0.000054666869    14.003074004430
         C           -0.717582527407     0.143077717838     0.000041233131    12.000000000000
         C            0.741442472593     0.243434717838    -0.000033766869    12.000000000000
         C           -1.515578527407     1.295798717838     0.000059233131    12.000000000000
         C           -2.897797527407     1.137689717838     0.000130233131    12.000000000000
         C           -3.432822527407    -0.152598282162     0.000177233131    12.000000000000
         C           -2.555017527407    -1.237461282162     0.000151233131    12.000000000000
         C            3.121905472593    -0.178542282162    -0.000165766869    12.000000000000
         C            2.754054472593     1.149051717838    -0.000123766869    12.000000000000
         H           -1.041235527407     2.272395717838     0.000020233131     1.007825032230
         H           -3.550160527407     2.007573717838     0.000147233131     1.007825032230
         H           -4.506619527407    -0.317267282162     0.000232233131     1.007825032230
         H           -2.931476527407    -2.258918282162     0.000185233131     1.007825032230
         H            4.120856472593    -0.595400282162    -0.000222766869     1.007825032230
         H            3.444274472593     1.985815717838    -0.000144766869     1.007825032230

  Basis Set: AUG-CC-PVTZ
    Blend: AUG-CC-PVTZ
  Basis Set: (AUG-CC-PVTZ AUX)
    Blend: AUG-CC-PVTZ-JKFIT
	 Reference Energy          =    -812.9803759794938287 [Eh]
	 Singles Energy            =      -0.0000000000000000 [Eh]
	 Same-Spin Energy          =      -0.5293182377388799 [Eh]
	 Opposite-Spin Energy      =      -1.5615491375160633 [Eh]
	 Correlation Energy        =      -2.0908673752549429 [Eh]
	 Total Energy              =    -815.0712433547487308 [Eh]

	 ================> DF-SCS-MP2 Energies <==================
	-----------------------------------------------------------
	 SCS Same-Spin Scale       =       0.3333333333333333 [-]
	 SCS Opposite-Spin Scale   =       1.2000000000000000 [-]
	 SCS Same-Spin Energy      =      -0.1764394125796266 [Eh]
	 SCS Opposite-Spin Energy  =      -1.8738589650192758 [Eh]
	 SCS Correlation Energy    =      -2.0502983775989025 [Eh]
	 SCS Total Energy          =    -815.0306743570927210 [Eh]
	-----------------------------------------------------------

  Dipole Moment: [D]
     X:    -0.6040      Y:    -0.2073      Z:    -0.0000     Total:     0.6386

*** Psi4 exiting successfully. Buy a developer a beer!
