                               Psi4 1.3.2 release

  ==> Input File <==

--------------------------------------------------------------------------
#psi4
#
memory 32 gb

molecule  {
0 1
  S        1.7618360    -1.1877300    -0.0001100
  N       -1.1892720    -1.1162850     0.0000840
  N        1.4363420     1.3812950    -0.0000570
  C       -0.6888070     0.1366280     0.0000400
  C        0.7702180     0.2369850    -0.0000350
  C       -1.4868030     1.2893490     0.0000580
  C       -2.8690220     1.1312400     0.0001290
  C       -3.4040470    -0.1590480     0.0001760
  C       -2.5262420    -1.2439110     0.0001500
  C        3.1274553    -0.1912097    -0.0001659
  C        2.7828300     1.1426020    -0.0001250
  H       -1.0124600     2.2659460     0.0000190
  H       -3.5213850     2.0011240     0.0001460
  H       -4.4778440    -0.3237170     0.0002310
  H       -2.9027010    -2.2653680     0.0001840
  H        4.1496320    -0.6018500    -0.0002240
  H        3.4730500     1.9793660    -0.0001460
units angstrom
no_reorient  #important for SAPT in psi4, default
symmetry c1  #important for SAPT in psi4, default
}

set PROPERTIES_ORIGIN ["COM"]
properties('MP2/aug-cc-pvtz', properties = ['dipole'])
--------------------------------------------------------------------------

    Molecular point group: c1
  Charge       = 0
  Multiplicity = 1
  Basis Set: AUG-CC-PVTZ
    Blend: AUG-CC-PVTZ
  Basis Set: (AUG-CC-PVTZ AUX)
    Blend: AUG-CC-PVTZ-JKFIT

    Orbital Energies [Eh]
    ---------------------

    Doubly Occupied:

       1A    -91.996378     2A    -15.578379     3A    -15.574388
       4A    -11.312415     5A    -11.297055     6A    -11.285176
       7A    -11.269304     8A    -11.267206     9A    -11.265120
      10A    -11.250773    11A    -11.249315    12A     -8.996840
      13A     -6.677642    14A     -6.677052    15A     -6.676371
      16A     -1.288047    17A     -1.260351    18A     -1.096219
      19A     -1.069782    20A     -1.064620    21A     -0.985689
      22A     -0.876268    23A     -0.868938    24A     -0.788506
      25A     -0.766830    26A     -0.707075    27A     -0.679909
      28A     -0.667610    29A     -0.639400    30A     -0.593467
      31A     -0.586694    32A     -0.581970    33A     -0.555166
      34A     -0.536539    35A     -0.528979    36A     -0.507364
      37A     -0.443952    38A     -0.424911    39A     -0.399676
      40A     -0.393249    41A     -0.371200    42A     -0.305838

  @DF-RHF Final Energy:  -813.00835565656871

   => Energetics <=

    Nuclear Repulsion Energy =            627.5303660513186514
    One-Electron Energy =               -2358.3541183168154021
    Two-Electron Energy =                 917.8153966089280402
    Total Energy =                       -813.0083556565687104
  Basis Set: (AUG-CC-PVTZ AUX)
    Blend: AUG-CC-PVTZ-RI
    Molecular point group: c1

    Geometry (in Angstrom), charge = 0, multiplicity = 1:

       Center              X                  Y                   Z               Mass
    ------------   -----------------  -----------------  -----------------  -----------------
         S            1.737574446406    -1.168768751744    -0.000108753270    31.972071174400
         N           -1.213533553594    -1.097323751744     0.000085246730    14.003074004430
         N            1.412080446406     1.400256248256    -0.000055753270    14.003074004430
         C           -0.713068553594     0.155589248256     0.000041246730    12.000000000000
         C            0.745956446406     0.255946248256    -0.000033753270    12.000000000000
         C           -1.511064553594     1.308310248256     0.000059246730    12.000000000000
         C           -2.893283553594     1.150201248256     0.000130246730    12.000000000000
         C           -3.428308553594    -0.140086751744     0.000177246730    12.000000000000
         C           -2.550503553594    -1.224949751744     0.000151246730    12.000000000000
         C            3.103193746406    -0.172248451744    -0.000164653270    12.000000000000
         C            2.758568446406     1.161563248256    -0.000123753270    12.000000000000
         H           -1.036721553594     2.284907248256     0.000020246730     1.007825032230
         H           -3.545646553594     2.020085248256     0.000147246730     1.007825032230
         H           -4.502105553594    -0.304755751744     0.000232246730     1.007825032230
         H           -2.926962553594    -2.246406751744     0.000185246730     1.007825032230
         H            4.125370446406    -0.582888751744    -0.000222753270     1.007825032230
         H            3.448788446406     1.998327248256    -0.000144753270     1.007825032230

  Basis Set: AUG-CC-PVTZ
    Blend: AUG-CC-PVTZ
  Basis Set: (AUG-CC-PVTZ AUX)
    Blend: AUG-CC-PVTZ-JKFIT
	 Reference Energy          =    -813.0083556565687104 [Eh]
	 Singles Energy            =      -0.0000000000000000 [Eh]
	 Same-Spin Energy          =      -0.5256985185067692 [Eh]
	 Opposite-Spin Energy      =      -1.5538012165066517 [Eh]
	 Correlation Energy        =      -2.0794997350134210 [Eh]
	 Total Energy              =    -815.0878553915821385 [Eh]

	 ================> DF-SCS-MP2 Energies <==================
	-----------------------------------------------------------
	 SCS Same-Spin Scale       =       0.3333333333333333 [-]
	 SCS Opposite-Spin Scale   =       1.2000000000000000 [-]
	 SCS Same-Spin Energy      =      -0.1752328395022564 [Eh]
	 SCS Opposite-Spin Energy  =      -1.8645614598079820 [Eh]
	 SCS Correlation Energy    =      -2.0397942993102385 [Eh]
	 SCS Total Energy          =    -815.0481499558788983 [Eh]
	-----------------------------------------------------------

  Dipole Moment: [D]
     X:    -0.7753      Y:     0.1766      Z:    -0.0000     Total:     0.7952

*** Psi4 exiting successfully. Buy a developer a beer!
