                               Psi4 1.3.2 release

  ==> Input File <==

--------------------------------------------------------------------------
#psi4
#
memory 32 gb

molecule  {
0 1
  S        1.7618360    -1.1877300    -0.0001100
  N       -1.1892720    -1.1162850     0.0000840
  N        1.4363420     1.3812950    -0.0000570
  C       -0.6888070     0.1366280     0.0000400
  C        0.7702180     0.2369850    -0.0000350
  C       -1.4868030     1.2893490     0.0000580
  C       -2.8690220     1.1312400     0.0001290
  C       -3.4040470    -0.1590480     0.0001760
  C       -2.5262420    -1.2439110     0.0001500
  C        3.1506810    -0.1849920    -0.0001670
  C        2.7367217     1.1289555    -0.0001230
  H       -1.0124600     2.2659460     0.0000190
  H       -3.5213850     2.0011240     0.0001460
  H       -4.4778440    -0.3237170     0.0002310
  H       -2.9027010    -2.2653680     0.0001840
  H        4.1496320    -0.6018500    -0.0002240
  H        3.4730500     1.9793660    -0.0001460
units angstrom
no_reorient  #important for SAPT in psi4, default
symmetry c1  #important for SAPT in psi4, default
}

set PROPERTIES_ORIGIN ["COM"]
properties('MP2/aug-cc-pvtz', properties = ['dipole'])
--------------------------------------------------------------------------

    Molecular point group: c1
  Charge       = 0
  Multiplicity = 1
  Basis Set: AUG-CC-PVTZ
    Blend: AUG-CC-PVTZ
  Basis Set: (AUG-CC-PVTZ AUX)
    Blend: AUG-CC-PVTZ-JKFIT

    Orbital Energies [Eh]
    ---------------------

    Doubly Occupied:

       1A    -91.996717     2A    -15.578642     3A    -15.572754
       4A    -11.314250     5A    -11.297381     6A    -11.285563
       7A    -11.270019     8A    -11.267704     9A    -11.263261
      10A    -11.251288    11A    -11.250046    12A     -8.996634
      13A     -6.677353    14A     -6.676869    15A     -6.676223
      16A     -1.297118    17A     -1.263844    18A     -1.096724
      19A     -1.068549    20A     -1.067124    21A     -0.984988
      22A     -0.876218    23A     -0.869304    24A     -0.794070
      25A     -0.763623    26A     -0.710771    27A     -0.678374
      28A     -0.669399    29A     -0.638409    30A     -0.592804
      31A     -0.587468    32A     -0.585056    33A     -0.561445
      34A     -0.538826    35A     -0.529344    36A     -0.494354
      37A     -0.446031    38A     -0.426372    39A     -0.398498
      40A     -0.395031    41A     -0.373659    42A     -0.304407

  @DF-RHF Final Energy:  -813.00632713596997

   => Energetics <=

    Nuclear Repulsion Energy =            628.0638867329685127
    One-Electron Energy =               -2359.3674043699156755
    Two-Electron Energy =                 918.2971905009771945
    Total Energy =                       -813.0063271359699684
  Basis Set: (AUG-CC-PVTZ AUX)
    Blend: AUG-CC-PVTZ-RI
    Molecular point group: c1

    Geometry (in Angstrom), charge = 0, multiplicity = 1:

       Center              X                  Y                   Z               Mass
    ------------   -----------------  -----------------  -----------------  -----------------
         S            1.739269190507    -1.168218555745    -0.000108819927    31.972071174400
         N           -1.211838809493    -1.096773555745     0.000085180073    14.003074004430
         N            1.413775190507     1.400806444255    -0.000055819927    14.003074004430
         C           -0.711373809493     0.156139444255     0.000041180073    12.000000000000
         C            0.747651190507     0.256496444255    -0.000033819927    12.000000000000
         C           -1.509369809493     1.308860444255     0.000059180073    12.000000000000
         C           -2.891588809493     1.150751444255     0.000130180073    12.000000000000
         C           -3.426613809493    -0.139536555745     0.000177180073    12.000000000000
         C           -2.548808809493    -1.224399555745     0.000151180073    12.000000000000
         C            3.128114190507    -0.165480555745    -0.000165819927    12.000000000000
         C            2.714154890507     1.148466944255    -0.000121819927    12.000000000000
         H           -1.035026809493     2.285457444255     0.000020180073     1.007825032230
         H           -3.543951809493     2.020635444255     0.000147180073     1.007825032230
         H           -4.500410809493    -0.304205555745     0.000232180073     1.007825032230
         H           -2.925267809493    -2.245856555745     0.000185180073     1.007825032230
         H            4.127065190507    -0.582338555745    -0.000222819927     1.007825032230
         H            3.450483190507     1.998877444255    -0.000144819927     1.007825032230

  Basis Set: AUG-CC-PVTZ
    Blend: AUG-CC-PVTZ
  Basis Set: (AUG-CC-PVTZ AUX)
    Blend: AUG-CC-PVTZ-JKFIT
	 Reference Energy          =    -813.0063271359699684 [Eh]
	 Singles Energy            =      -0.0000000000000000 [Eh]
	 Same-Spin Energy          =      -0.5260519694591458 [Eh]
	 Opposite-Spin Energy      =      -1.5536484120745553 [Eh]
	 Correlation Energy        =      -2.0797003815337010 [Eh]
	 Total Energy              =    -815.0860275175036804 [Eh]

	 ================> DF-SCS-MP2 Energies <==================
	-----------------------------------------------------------
	 SCS Same-Spin Scale       =       0.3333333333333333 [-]
	 SCS Opposite-Spin Scale   =       1.2000000000000000 [-]
	 SCS Same-Spin Energy      =      -0.1753506564863819 [Eh]
	 SCS Opposite-Spin Energy  =      -1.8643780944894663 [Eh]
	 SCS Correlation Energy    =      -2.0397287509758484 [Eh]
	 SCS Total Energy          =    -815.0460558869458509 [Eh]
	-----------------------------------------------------------

  Dipole Moment: [D]
     X:    -0.7782      Y:     0.1532      Z:    -0.0000     Total:     0.7932

*** Psi4 exiting successfully. Buy a developer a beer!
