                               Psi4 1.3.2 release

  ==> Input File <==

--------------------------------------------------------------------------
#psi4
#
memory 32 gb

molecule  {
0 1
  S        1.7618360    -1.1877300    -0.0001100
  N       -1.1006541    -1.1481436     0.0000800
  N        1.4363420     1.3812950    -0.0000570
  C       -0.6888070     0.1366280     0.0000400
  C        0.7702180     0.2369850    -0.0000350
  C       -1.4868030     1.2893490     0.0000580
  C       -2.8690220     1.1312400     0.0001290
  C       -3.4040470    -0.1590480     0.0001760
  C       -2.5262420    -1.2439110     0.0001500
  C        3.1506810    -0.1849920    -0.0001670
  C        2.7828300     1.1426020    -0.0001250
  H       -1.0124600     2.2659460     0.0000190
  H       -3.5213850     2.0011240     0.0001460
  H       -4.4778440    -0.3237170     0.0002310
  H       -2.9027010    -2.2653680     0.0001840
  H        4.1496320    -0.6018500    -0.0002240
  H        3.4730500     1.9793660    -0.0001460
units angstrom
no_reorient  #important for SAPT in psi4, default
symmetry c1  #important for SAPT in psi4, default
}

set PROPERTIES_ORIGIN ["COM"]
properties('MP2/aug-cc-pvtz', properties = ['dipole'])
--------------------------------------------------------------------------

    Molecular point group: c1
  Charge       = 0
  Multiplicity = 1
  Basis Set: AUG-CC-PVTZ
    Blend: AUG-CC-PVTZ
  Basis Set: (AUG-CC-PVTZ AUX)
    Blend: AUG-CC-PVTZ-JKFIT

    Orbital Energies [Eh]
    ---------------------

    Doubly Occupied:

       1A    -91.994131     2A    -15.590570     3A    -15.573198
       4A    -11.310981     5A    -11.299033     6A    -11.295242
       7A    -11.271409     8A    -11.268558     9A    -11.263828
      10A    -11.254240    11A    -11.250874    12A     -8.994146
      13A     -6.674908    14A     -6.674342    15A     -6.673677
      16A     -1.284626    17A     -1.247295    18A     -1.100784
      19A     -1.065053    20A     -1.056478    21A     -0.985740
      22A     -0.877836    23A     -0.867033    24A     -0.788678
      25A     -0.761707    26A     -0.706662    27A     -0.678379
      28A     -0.664005    29A     -0.639918    30A     -0.592094
      31A     -0.586311    32A     -0.579136    33A     -0.555684
      34A     -0.530142    35A     -0.522627    36A     -0.503354
      37A     -0.451833    38A     -0.429950    39A     -0.402305
      40A     -0.390005    41A     -0.365085    42A     -0.308754

  @DF-RHF Final Energy:  -812.99660851043620

   => Energetics <=

    Nuclear Repulsion Energy =            626.2275176343933936
    One-Electron Energy =               -2355.7870361487848641
    Two-Electron Energy =                 916.5629100039553805
    Total Energy =                       -812.9966085104362037
  Basis Set: (AUG-CC-PVTZ AUX)
    Blend: AUG-CC-PVTZ-RI
    Molecular point group: c1

    Geometry (in Angstrom), charge = 0, multiplicity = 1:

       Center              X                  Y                   Z               Mass
    ------------   -----------------  -----------------  -----------------  -----------------
         S            1.728195462772    -1.166475861480    -0.000108326100    31.972071174400
         N           -1.134294637228    -1.126889461480     0.000081673900    14.003074004430
         N            1.402701462772     1.402549138520    -0.000055326100    14.003074004430
         C           -0.722447537228     0.157882138520     0.000041673900    12.000000000000
         C            0.736577462772     0.258239138520    -0.000033326100    12.000000000000
         C           -1.520443537228     1.310603138520     0.000059673900    12.000000000000
         C           -2.902662537228     1.152494138520     0.000130673900    12.000000000000
         C           -3.437687537228    -0.137793861480     0.000177673900    12.000000000000
         C           -2.559882537228    -1.222656861480     0.000151673900    12.000000000000
         C            3.117040462772    -0.163737861480    -0.000165326100    12.000000000000
         C            2.749189462772     1.163856138520    -0.000123326100    12.000000000000
         H           -1.046100537228     2.287200138520     0.000020673900     1.007825032230
         H           -3.555025537228     2.022378138520     0.000147673900     1.007825032230
         H           -4.511484537228    -0.302462861480     0.000232673900     1.007825032230
         H           -2.936341537228    -2.244113861480     0.000185673900     1.007825032230
         H            4.115991462772    -0.580595861480    -0.000222326100     1.007825032230
         H            3.439409462772     2.000620138520    -0.000144326100     1.007825032230

  Basis Set: AUG-CC-PVTZ
    Blend: AUG-CC-PVTZ
  Basis Set: (AUG-CC-PVTZ AUX)
    Blend: AUG-CC-PVTZ-JKFIT
	 Reference Energy          =    -812.9966085104362037 [Eh]
	 Singles Energy            =      -0.0000000000000000 [Eh]
	 Same-Spin Energy          =      -0.5262630627413226 [Eh]
	 Opposite-Spin Energy      =      -1.5571628934060957 [Eh]
	 Correlation Energy        =      -2.0834259561474182 [Eh]
	 Total Energy              =    -815.0800344665835837 [Eh]

	 ================> DF-SCS-MP2 Energies <==================
	-----------------------------------------------------------
	 SCS Same-Spin Scale       =       0.3333333333333333 [-]
	 SCS Opposite-Spin Scale   =       1.2000000000000000 [-]
	 SCS Same-Spin Energy      =      -0.1754210209137742 [Eh]
	 SCS Opposite-Spin Energy  =      -1.8685954720873148 [Eh]
	 SCS Correlation Energy    =      -2.0440164930010889 [Eh]
	 SCS Total Energy          =    -815.0406250034372988 [Eh]
	-----------------------------------------------------------

  Dipole Moment: [D]
     X:    -1.0275      Y:     0.2603      Z:     0.0000     Total:     1.0600

*** Psi4 exiting successfully. Buy a developer a beer!
