                               Psi4 1.3.2 release

  ==> Input File <==

--------------------------------------------------------------------------
#psi4
#
memory 32 gb

molecule  {
0 1
  S        1.7618360    -1.1877300    -0.0001100
  N       -1.1892720    -1.1162850     0.0000840
  N        1.4363420     1.3812950    -0.0000570
  C       -0.8225137     0.1820772     0.0000457
  C        0.7702180     0.2369850    -0.0000350
  C       -1.4868030     1.2893490     0.0000580
  C       -2.8690220     1.1312400     0.0001290
  C       -3.4040470    -0.1590480     0.0001760
  C       -2.5262420    -1.2439110     0.0001500
  C        3.1506810    -0.1849920    -0.0001670
  C        2.7828300     1.1426020    -0.0001250
  H       -1.0124600     2.2659460     0.0000190
  H       -3.5213850     2.0011240     0.0001460
  H       -4.4778440    -0.3237170     0.0002310
  H       -2.9027010    -2.2653680     0.0001840
  H        4.1496320    -0.6018500    -0.0002240
  H        3.4730500     1.9793660    -0.0001460
units angstrom
no_reorient  #important for SAPT in psi4, default
symmetry c1  #important for SAPT in psi4, default
}

set PROPERTIES_ORIGIN ["COM"]
properties('MP2/aug-cc-pvtz', properties = ['dipole'])
--------------------------------------------------------------------------

    Molecular point group: c1
  Charge       = 0
  Multiplicity = 1
  Basis Set: AUG-CC-PVTZ
    Blend: AUG-CC-PVTZ
  Basis Set: (AUG-CC-PVTZ AUX)
    Blend: AUG-CC-PVTZ-JKFIT

    Orbital Energies [Eh]
    ---------------------

    Doubly Occupied:

       1A    -91.991772     2A    -15.582257     3A    -15.566942
       4A    -11.313345     5A    -11.293557     6A    -11.290283
       7A    -11.273813     8A    -11.265262     9A    -11.258984
      10A    -11.252274    11A    -11.238725    12A     -8.991671
      13A     -6.672444    14A     -6.671935    15A     -6.671244
      16A     -1.286681    17A     -1.263961    18A     -1.111312
      19A     -1.065139    20A     -1.057791    21A     -0.982676
      22A     -0.883347    23A     -0.863238    24A     -0.786810
      25A     -0.758360    26A     -0.707465    27A     -0.679123
      28A     -0.670815    29A     -0.645234    30A     -0.595961
      31A     -0.580984    32A     -0.579642    33A     -0.558514
      34A     -0.541051    35A     -0.504679    36A     -0.499512
      37A     -0.452745    38A     -0.424766    39A     -0.395947
      40A     -0.392074    41A     -0.374797    42A     -0.314290

  @DF-RHF Final Energy:  -812.98775220488346

   => Energetics <=

    Nuclear Repulsion Energy =            626.7255184294083392
    One-Electron Energy =               -2356.8036985488097343
    Two-Electron Energy =                 917.0904279145179316
    Total Energy =                       -812.9877522048834635
  Basis Set: (AUG-CC-PVTZ AUX)
    Blend: AUG-CC-PVTZ-RI
    Molecular point group: c1

    Geometry (in Angstrom), charge = 0, multiplicity = 1:

       Center              X                  Y                   Z               Mass
    ------------   -----------------  -----------------  -----------------  -----------------
         S            1.745756952896    -1.172595334999    -0.000109093958    31.972071174400
         N           -1.205351047104    -1.101150334999     0.000084906042    14.003074004430
         N            1.420262952896     1.396429665001    -0.000056093958    14.003074004430
         C           -0.838592747104     0.197211865001     0.000046606042    12.000000000000
         C            0.754138952896     0.252119665001    -0.000034093958    12.000000000000
         C           -1.502882047104     1.304483665001     0.000058906042    12.000000000000
         C           -2.885101047104     1.146374665001     0.000129906042    12.000000000000
         C           -3.420126047104    -0.143913334999     0.000176906042    12.000000000000
         C           -2.542321047104    -1.228776334999     0.000150906042    12.000000000000
         C            3.134601952896    -0.169857334999    -0.000166093958    12.000000000000
         C            2.766750952896     1.157736665001    -0.000124093958    12.000000000000
         H           -1.028539047104     2.281080665001     0.000019906042     1.007825032230
         H           -3.537464047104     2.016258665001     0.000146906042     1.007825032230
         H           -4.493923047104    -0.308582334999     0.000231906042     1.007825032230
         H           -2.918780047104    -2.250233334999     0.000184906042     1.007825032230
         H            4.133552952896    -0.586715334999    -0.000223093958     1.007825032230
         H            3.456970952896     1.994500665001    -0.000145093958     1.007825032230

  Basis Set: AUG-CC-PVTZ
    Blend: AUG-CC-PVTZ
  Basis Set: (AUG-CC-PVTZ AUX)
    Blend: AUG-CC-PVTZ-JKFIT
	 Reference Energy          =    -812.9877522048834635 [Eh]
	 Singles Energy            =      -0.0000000000000000 [Eh]
	 Same-Spin Energy          =      -0.5240212308091398 [Eh]
	 Opposite-Spin Energy      =      -1.5525571314074829 [Eh]
	 Correlation Energy        =      -2.0765783622166225 [Eh]
	 Total Energy              =    -815.0643305671001144 [Eh]

	 ================> DF-SCS-MP2 Energies <==================
	-----------------------------------------------------------
	 SCS Same-Spin Scale       =       0.3333333333333333 [-]
	 SCS Opposite-Spin Scale   =       1.2000000000000000 [-]
	 SCS Same-Spin Energy      =      -0.1746737436030466 [Eh]
	 SCS Opposite-Spin Energy  =      -1.8630685576889794 [Eh]
	 SCS Correlation Energy    =      -2.0377423012920262 [Eh]
	 SCS Total Energy          =    -815.0254945061755052 [Eh]
	-----------------------------------------------------------

  Dipole Moment: [D]
     X:    -1.3503      Y:     0.1832      Z:     0.0000     Total:     1.3627

*** Psi4 exiting successfully. Buy a developer a beer!
