                               Psi4 1.3.2 release

  ==> Input File <==

--------------------------------------------------------------------------
#psi4
#
memory 32 gb

molecule  {
0 1
  S        1.7618360    -1.1877300    -0.0001100
  N       -1.1892720    -1.1162850     0.0000840
  N        1.4363420     1.3812950    -0.0000570
  C       -0.6888070     0.1366280     0.0000400
  C        0.7702180     0.2369850    -0.0000350
  C       -1.4868030     1.2893490     0.0000580
  C       -2.8690220     1.1312400     0.0001290
  C       -3.4040470    -0.1590480     0.0001760
  C       -2.5262420    -1.2439110     0.0001500
  C        3.1506810    -0.1849920    -0.0001670
  C        2.7828300     1.1426020    -0.0001250
  H       -1.0124600     2.2659460     0.0000190
  H       -3.5213850     2.0011240     0.0001460
  H       -4.4778440    -0.3237170     0.0002310
  H       -2.9027010    -2.2653680     0.0001840
  H        4.1496320    -0.6018500    -0.0002240
  H        3.4094178     1.9022237    -0.0001441
units angstrom
no_reorient  #important for SAPT in psi4, default
symmetry c1  #important for SAPT in psi4, default
}

set PROPERTIES_ORIGIN ["COM"]
properties('MP2/aug-cc-pvtz', properties = ['dipole'])
--------------------------------------------------------------------------

    Molecular point group: c1
  Charge       = 0
  Multiplicity = 1
  Basis Set: AUG-CC-PVTZ
    Blend: AUG-CC-PVTZ
  Basis Set: (AUG-CC-PVTZ AUX)
    Blend: AUG-CC-PVTZ-JKFIT

    Orbital Energies [Eh]
    ---------------------

    Doubly Occupied:

       1A    -91.995328     2A    -15.578699     3A    -15.573588
       4A    -11.313179     5A    -11.297165     6A    -11.285319
       7A    -11.267420     8A    -11.264921     9A    -11.258492
      10A    -11.251205    11A    -11.249762    12A     -8.995367
      13A     -6.676136    14A     -6.675587    15A     -6.674927
      16A     -1.287219    17A     -1.260118    18A     -1.096373
      19A     -1.068951    20A     -1.062070    21A     -0.990563
      22A     -0.878814    23A     -0.869482    24A     -0.795666
      25A     -0.772015    26A     -0.707316    27A     -0.686927
      28A     -0.668799    29A     -0.643099    30A     -0.597235
      31A     -0.590198    32A     -0.581110    33A     -0.558267
      34A     -0.535732    35A     -0.529193    36A     -0.506227
      37A     -0.444270    38A     -0.424362    39A     -0.398629
      40A     -0.392263    41A     -0.371312    42A     -0.306925

  @DF-RHF Final Energy:  -813.00350331148888

   => Energetics <=

    Nuclear Repulsion Energy =            627.5369577180900933
    One-Electron Energy =               -2358.3204633846867182
    Two-Electron Energy =                 917.7800023551078539
    Total Energy =                       -813.0035033114888847
  Basis Set: (AUG-CC-PVTZ AUX)
    Blend: AUG-CC-PVTZ-RI
    Molecular point group: c1

    Geometry (in Angstrom), charge = 0, multiplicity = 1:

       Center              X                  Y                   Z               Mass
    ------------   -----------------  -----------------  -----------------  -----------------
         S            1.736250094906    -1.168749411903    -0.000108683620    31.972071174400
         N           -1.214857905094    -1.097304411903     0.000085316380    14.003074004430
         N            1.410756094906     1.400275588097    -0.000055683620    14.003074004430
         C           -0.714392905094     0.155608588097     0.000041316380    12.000000000000
         C            0.744632094906     0.255965588097    -0.000033683620    12.000000000000
         C           -1.512388905094     1.308329588097     0.000059316380    12.000000000000
         C           -2.894607905094     1.150220588097     0.000130316380    12.000000000000
         C           -3.429632905094    -0.140067411903     0.000177316380    12.000000000000
         C           -2.551827905094    -1.224930411903     0.000151316380    12.000000000000
         C            3.125095094906    -0.166011411903    -0.000165683620    12.000000000000
         C            2.757244094906     1.161582588097    -0.000123683620    12.000000000000
         H           -1.038045905094     2.284926588097     0.000020316380     1.007825032230
         H           -3.546970905094     2.020104588097     0.000147316380     1.007825032230
         H           -4.503429905094    -0.304736411903     0.000232316380     1.007825032230
         H           -2.928286905094    -2.246387411903     0.000185316380     1.007825032230
         H            4.124046094906    -0.582869411903    -0.000222683620     1.007825032230
         H            3.383831894906     1.921204288097    -0.000142783620     1.007825032230

  Basis Set: AUG-CC-PVTZ
    Blend: AUG-CC-PVTZ
  Basis Set: (AUG-CC-PVTZ AUX)
    Blend: AUG-CC-PVTZ-JKFIT
	 Reference Energy          =    -813.0035033114888847 [Eh]
	 Singles Energy            =      -0.0000000000000000 [Eh]
	 Same-Spin Energy          =      -0.5251570095936889 [Eh]
	 Opposite-Spin Energy      =      -1.5532082727586709 [Eh]
	 Correlation Energy        =      -2.0783652823523600 [Eh]
	 Total Energy              =    -815.0818685938412500 [Eh]

	 ================> DF-SCS-MP2 Energies <==================
	-----------------------------------------------------------
	 SCS Same-Spin Scale       =       0.3333333333333333 [-]
	 SCS Opposite-Spin Scale   =       1.2000000000000000 [-]
	 SCS Same-Spin Energy      =      -0.1750523365312296 [Eh]
	 SCS Opposite-Spin Energy  =      -1.8638499273104050 [Eh]
	 SCS Correlation Energy    =      -2.0389022638416345 [Eh]
	 SCS Total Energy          =    -815.0424055753304629 [Eh]
	-----------------------------------------------------------

  Dipole Moment: [D]
     X:    -0.7782      Y:     0.1943      Z:    -0.0000     Total:     0.8021

*** Psi4 exiting successfully. Buy a developer a beer!
