                               Psi4 1.3.2 release

  ==> Input File <==

--------------------------------------------------------------------------
#psi4
#
memory 32 gb

molecule  {
0 1
  S        1.7618360    -1.1877300    -0.0001100
  N       -1.1892720    -1.1162850     0.0000840
  N        1.4363420     1.3812950    -0.0000570
  C       -0.6888070     0.1366280     0.0000400
  C        0.7702180     0.2369850    -0.0000350
  C       -1.4868030     1.2893490     0.0000580
  C       -2.8690220     1.1312400     0.0001290
  C       -3.4040470    -0.1590480     0.0001760
  C       -2.5262420    -1.2439110     0.0001500
  C        3.1506810    -0.1849920    -0.0001670
  C        2.7828300     1.1426020    -0.0001250
  H       -1.0124600     2.2659460     0.0000190
  H       -3.5213850     2.0011240     0.0001460
  H       -4.4778440    -0.3237170     0.0002310
  H       -2.9027010    -2.2653680     0.0001840
  H        4.3342061    -0.6788720    -0.0002345
  H        3.4730500     1.9793660    -0.0001460
units angstrom
no_reorient  #important for SAPT in psi4, default
symmetry c1  #important for SAPT in psi4, default
}

set PROPERTIES_ORIGIN ["COM"]
properties('MP2/aug-cc-pvtz', properties = ['dipole'])
--------------------------------------------------------------------------

    Molecular point group: c1
  Charge       = 0
  Multiplicity = 1
  Basis Set: AUG-CC-PVTZ
    Blend: AUG-CC-PVTZ
  Basis Set: (AUG-CC-PVTZ AUX)
    Blend: AUG-CC-PVTZ-JKFIT

    Orbital Energies [Eh]
    ---------------------

    Doubly Occupied:

       1A    -91.997292     2A    -15.579255     3A    -15.575492
       4A    -11.314413     5A    -11.297857     6A    -11.285784
       7A    -11.284502     8A    -11.270938     9A    -11.267873
      10A    -11.251642    11A    -11.250286    12A     -8.997178
      13A     -6.677919    14A     -6.677382    15A     -6.676694
      16A     -1.288270    17A     -1.260810    18A     -1.096830
      19A     -1.067647    20A     -1.060680    21A     -0.985224
      22A     -0.875939    23A     -0.869229    24A     -0.780064
      25A     -0.764173    26A     -0.701514    27A     -0.677769
      28A     -0.660829    29A     -0.638288    30A     -0.593703
      31A     -0.584273    32A     -0.582161    33A     -0.541799
      34A     -0.536612    35A     -0.523736    36A     -0.503655
      37A     -0.444566    38A     -0.425171    39A     -0.399262
      40A     -0.393077    41A     -0.372045    42A     -0.307516

  @DF-RHF Final Energy:  -812.98641990611611

   => Energetics <=

    Nuclear Repulsion Energy =            625.9527141910092496
    One-Electron Energy =               -2355.1995742288863767
    Two-Electron Energy =                 916.2604401317609017
    Total Energy =                       -812.9864199061161116
  Basis Set: (AUG-CC-PVTZ AUX)
    Blend: AUG-CC-PVTZ-RI
    Molecular point group: c1

    Geometry (in Angstrom), charge = 0, multiplicity = 1:

       Center              X                  Y                   Z               Mass
    ------------   -----------------  -----------------  -----------------  -----------------
         S            1.734706208094    -1.168750160190    -0.000108606490    31.972071174400
         N           -1.216401791906    -1.097305160190     0.000085393510    14.003074004430
         N            1.409212208094     1.400274839810    -0.000055606490    14.003074004430
         C           -0.715936791906     0.155607839810     0.000041393510    12.000000000000
         C            0.743088208094     0.255964839810    -0.000033606490    12.000000000000
         C           -1.513932791906     1.308328839810     0.000059393510    12.000000000000
         C           -2.896151791906     1.150219839810     0.000130393510    12.000000000000
         C           -3.431176791906    -0.140068160190     0.000177393510    12.000000000000
         C           -2.553371791906    -1.224931160190     0.000151393510    12.000000000000
         C            3.123551208094    -0.166012160190    -0.000165606490    12.000000000000
         C            2.755700208094     1.161581839810    -0.000123606490    12.000000000000
         H           -1.039589791906     2.284925839810     0.000020393510     1.007825032230
         H           -3.548514791906     2.020103839810     0.000147393510     1.007825032230
         H           -4.504973791906    -0.304737160190     0.000232393510     1.007825032230
         H           -2.929830791906    -2.246388160190     0.000185393510     1.007825032230
         H            4.307076308094    -0.659892160190    -0.000233106490     1.007825032230
         H            3.445920208094     1.998345839810    -0.000144606490     1.007825032230

  Basis Set: AUG-CC-PVTZ
    Blend: AUG-CC-PVTZ
  Basis Set: (AUG-CC-PVTZ AUX)
    Blend: AUG-CC-PVTZ-JKFIT
	 Reference Energy          =    -812.9864199061161116 [Eh]
	 Singles Energy            =      -0.0000000000000000 [Eh]
	 Same-Spin Energy          =      -0.5259235038118872 [Eh]
	 Opposite-Spin Energy      =      -1.5556601540604831 [Eh]
	 Correlation Energy        =      -2.0815836578723701 [Eh]
	 Total Energy              =    -815.0680035639884409 [Eh]

	 ================> DF-SCS-MP2 Energies <==================
	-----------------------------------------------------------
	 SCS Same-Spin Scale       =       0.3333333333333333 [-]
	 SCS Opposite-Spin Scale   =       1.2000000000000000 [-]
	 SCS Same-Spin Energy      =      -0.1753078346039624 [Eh]
	 SCS Opposite-Spin Energy  =      -1.8667921848725797 [Eh]
	 SCS Correlation Energy    =      -2.0421000194765422 [Eh]
	 SCS Total Energy          =    -815.0285199255926045 [Eh]
	-----------------------------------------------------------

  Dipole Moment: [D]
     X:    -0.7975      Y:     0.1808      Z:    -0.0000     Total:     0.8178

*** Psi4 exiting successfully. Buy a developer a beer!
