                               Psi4 1.3.2 release

  ==> Input File <==

--------------------------------------------------------------------------
#psi4
#
memory 32 gb

molecule  {
0 1
  S        1.7618360    -1.1877300    -0.0001100
  N       -1.1892720    -1.1162850     0.0000840
  N        1.4363420     1.3812950    -0.0000570
  C       -0.6888070     0.1366280     0.0000400
  C        0.7717473     0.2115062    -0.0000346
  C       -1.4868030     1.2893490     0.0000580
  C       -2.8690220     1.1312400     0.0001290
  C       -3.4040470    -0.1590480     0.0001760
  C       -2.5262420    -1.2439110     0.0001500
  C        3.1506810    -0.1849920    -0.0001670
  C        2.7828300     1.1426020    -0.0001250
  H       -1.0124600     2.2659460     0.0000190
  H       -3.5213850     2.0011240     0.0001460
  H       -4.4778440    -0.3237170     0.0002310
  H       -2.9027010    -2.2653680     0.0001840
  H        4.1496320    -0.6018500    -0.0002240
  H        3.4730500     1.9793660    -0.0001460
units angstrom
no_reorient  #important for SAPT in psi4, default
symmetry c1  #important for SAPT in psi4, default
}

set PROPERTIES_ORIGIN ["COM"]
properties('MP2/aug-cc-pvtz', properties = ['dipole'])
--------------------------------------------------------------------------

    Molecular point group: c1
  Charge       = 0
  Multiplicity = 1
  Basis Set: AUG-CC-PVTZ
    Blend: AUG-CC-PVTZ
  Basis Set: (AUG-CC-PVTZ AUX)
    Blend: AUG-CC-PVTZ-JKFIT

    Orbital Energies [Eh]
    ---------------------

    Doubly Occupied:

       1A    -91.998254     2A    -15.578202     3A    -15.574658
       4A    -11.313815     5A    -11.297271     6A    -11.285021
       7A    -11.270355     8A    -11.267430     9A    -11.264288
      10A    -11.251027    11A    -11.249900    12A     -8.998486
      13A     -6.679260    14A     -6.678735    15A     -6.678060
      16A     -1.284485    17A     -1.258149    18A     -1.096487
      19A     -1.067340    20A     -1.063747    21A     -0.987105
      22A     -0.876651    23A     -0.869009    24A     -0.788776
      25A     -0.766922    26A     -0.707429    27A     -0.679251
      28A     -0.668862    29A     -0.639045    30A     -0.592745
      31A     -0.585723    32A     -0.580568    33A     -0.559650
      34A     -0.535466    35A     -0.528776    36A     -0.504150
      37A     -0.444303    38A     -0.426354    39A     -0.398038
      40A     -0.391236    41A     -0.372433    42A     -0.306517

  @DF-RHF Final Energy:  -813.00744693734032

   => Energetics <=

    Nuclear Repulsion Energy =            627.0508285889163744
    One-Electron Energy =               -2357.3885874163761400
    Two-Electron Energy =                 917.3303118901194466
    Total Energy =                       -813.0074469373403190
  Basis Set: (AUG-CC-PVTZ AUX)
    Blend: AUG-CC-PVTZ-RI
    Molecular point group: c1

    Geometry (in Angstrom), charge = 0, multiplicity = 1:

       Center              X                  Y                   Z               Mass
    ------------   -----------------  -----------------  -----------------  -----------------
         S            1.735741027554    -1.167342225230    -0.000108701427    31.972071174400
         N           -1.215366972446    -1.095897225230     0.000085298573    14.003074004430
         N            1.410247027554     1.401682774770    -0.000055701427    14.003074004430
         C           -0.714901972446     0.157015774770     0.000041298573    12.000000000000
         C            0.745652327554     0.231893974770    -0.000033301427    12.000000000000
         C           -1.512897972446     1.309736774770     0.000059298573    12.000000000000
         C           -2.895116972446     1.151627774770     0.000130298573    12.000000000000
         C           -3.430141972446    -0.138660225230     0.000177298573    12.000000000000
         C           -2.552336972446    -1.223523225230     0.000151298573    12.000000000000
         C            3.124586027554    -0.164604225230    -0.000165701427    12.000000000000
         C            2.756735027554     1.162989774770    -0.000123701427    12.000000000000
         H           -1.038554972446     2.286333774770     0.000020298573     1.007825032230
         H           -3.547479972446     2.021511774770     0.000147298573     1.007825032230
         H           -4.503938972446    -0.303329225230     0.000232298573     1.007825032230
         H           -2.928795972446    -2.244980225230     0.000185298573     1.007825032230
         H            4.123537027554    -0.581462225230    -0.000222701427     1.007825032230
         H            3.446955027554     1.999753774770    -0.000144701427     1.007825032230

  Basis Set: AUG-CC-PVTZ
    Blend: AUG-CC-PVTZ
  Basis Set: (AUG-CC-PVTZ AUX)
    Blend: AUG-CC-PVTZ-JKFIT
	 Reference Energy          =    -813.0074469373403190 [Eh]
	 Singles Energy            =      -0.0000000000000000 [Eh]
	 Same-Spin Energy          =      -0.5258973348293647 [Eh]
	 Opposite-Spin Energy      =      -1.5543634641619346 [Eh]
	 Correlation Energy        =      -2.0802607989912993 [Eh]
	 Total Energy              =    -815.0877077363315948 [Eh]

	 ================> DF-SCS-MP2 Energies <==================
	-----------------------------------------------------------
	 SCS Same-Spin Scale       =       0.3333333333333333 [-]
	 SCS Opposite-Spin Scale   =       1.2000000000000000 [-]
	 SCS Same-Spin Energy      =      -0.1752991116097882 [Eh]
	 SCS Opposite-Spin Energy  =      -1.8652361569943214 [Eh]
	 SCS Correlation Energy    =      -2.0405352686041098 [Eh]
	 SCS Total Energy          =    -815.0479822059444359 [Eh]
	-----------------------------------------------------------

  Dipole Moment: [D]
     X:    -0.7268      Y:     0.1294      Z:    -0.0000     Total:     0.7382

*** Psi4 exiting successfully. Buy a developer a beer!
