                               Psi4 1.4a3.dev225

  ==> Input File <==

--------------------------------------------------------------------------
#psi4
#
memory 32 gb

molecule  {
0 1
  S        1.7618360    -1.1877300    -0.0001100
  N       -1.1892720    -1.1162850     0.0000840
  N        1.4363420     1.3812950    -0.0000570
  C       -0.6888070     0.1366280     0.0000400
  C        0.7702180     0.2369850    -0.0000350
  C       -1.4868030     1.2893490     0.0000580
  C       -2.8690220     1.1312400     0.0001290
  C       -3.4040470    -0.1590480     0.0001760
  C       -2.5262420    -1.2439110     0.0001500
  C        3.1344657    -0.1966994    -0.0001663
  C        2.7828300     1.1426020    -0.0001250
  H       -1.0124600     2.2659460     0.0000190
  H       -3.5213850     2.0011240     0.0001460
  H       -4.4778440    -0.3237170     0.0002310
  H       -2.9027010    -2.2653680     0.0001840
  H        4.1496320    -0.6018500    -0.0002240
  H        3.4730500     1.9793660    -0.0001460
units angstrom
no_reorient  #important for SAPT in psi4, default
symmetry c1  #important for SAPT in psi4, default
}

set PROPERTIES_ORIGIN ["COM"]
properties('MP2/aug-cc-pvtz', properties = ['dipole'])
--------------------------------------------------------------------------

    Molecular point group: c1
  Charge       = 0
  Multiplicity = 1
  Basis Set: AUG-CC-PVTZ
    Blend: AUG-CC-PVTZ
  Basis Set: (AUG-CC-PVTZ AUX)
    Blend: AUG-CC-PVTZ-JKFIT

    Orbital Energies [Eh]
    ---------------------

    Doubly Occupied:

       1A    -91.996588     2A    -15.578404     3A    -15.574692
       4A    -11.312599     5A    -11.297162     6A    -11.285215
       7A    -11.270438     8A    -11.267261     9A    -11.265561
      10A    -11.250819    11A    -11.249396    12A     -8.996954
      13A     -6.677749    14A     -6.677174    15A     -6.676499
      16A     -1.287752    17A     -1.260196    18A     -1.096260
      19A     -1.069330    20A     -1.064581    21A     -0.985145
      22A     -0.876102    23A     -0.869014    24A     -0.789493
      25A     -0.766804    26A     -0.706933    27A     -0.679719
      28A     -0.668005    29A     -0.639433    30A     -0.593522
      31A     -0.587203    32A     -0.581762    33A     -0.556835
      34A     -0.536258    35A     -0.529293    36A     -0.505967
      37A     -0.444086    38A     -0.424925    39A     -0.399494
      40A     -0.393298    41A     -0.371062    42A     -0.305342

  @DF-RHF Final Energy:  -813.00838542939073

   => Energetics <=

    Nuclear Repulsion Energy =            627.3369717972242370
    One-Electron Energy =               -2357.9620673870927021
    Two-Electron Energy =                 917.6167101604778509
    Total Energy =                       -813.0083854293907279
  Basis Set: (AUG-CC-PVTZ AUX)
    Blend: AUG-CC-PVTZ-RI
    Molecular point group: c1

    Geometry (in Angstrom), charge = 0, multiplicity = 1:

       Center              X                  Y                   Z               Mass
    ------------   -----------------  -----------------  -----------------  -----------------
         S            1.737055238184    -1.168362170469    -0.000108723645    31.972071174400
         N           -1.214052761816    -1.096917170469     0.000085276355    14.003074004430
         N            1.411561238184     1.400662829531    -0.000055723645    14.003074004430
         C           -0.713587761816     0.155995829531     0.000041276355    12.000000000000
         C            0.745437238184     0.256352829531    -0.000033723645    12.000000000000
         C           -1.511583761816     1.308716829531     0.000059276355    12.000000000000
         C           -2.893802761816     1.150607829531     0.000130276355    12.000000000000
         C           -3.428827761816    -0.139680170469     0.000177276355    12.000000000000
         C           -2.551022761816    -1.224543170469     0.000151276355    12.000000000000
         C            3.109684938184    -0.177331570469    -0.000165023645    12.000000000000
         C            2.758049238184     1.161969829531    -0.000123723645    12.000000000000
         H           -1.037240761816     2.285313829531     0.000020276355     1.007825032230
         H           -3.546165761816     2.020491829531     0.000147276355     1.007825032230
         H           -4.502624761816    -0.304349170469     0.000232276355     1.007825032230
         H           -2.927481761816    -2.246000170469     0.000185276355     1.007825032230
         H            4.124851238184    -0.582482170469    -0.000222723645     1.007825032230
         H            3.448269238184     1.998733829531    -0.000144723645     1.007825032230

  Basis Set: AUG-CC-PVTZ
    Blend: AUG-CC-PVTZ
  Basis Set: (AUG-CC-PVTZ AUX)
    Blend: AUG-CC-PVTZ-JKFIT
	 Reference Energy          =    -813.0083854293907279 [Eh]
	 Singles Energy            =      -0.0000000000000000 [Eh]
	 Same-Spin Energy          =      -0.5257626728111889 [Eh]
	 Opposite-Spin Energy      =      -1.5539325445157608 [Eh]
	 Correlation Energy        =      -2.0796952173269498 [Eh]
	 Total Energy              =    -815.0880806467176853 [Eh]

	 ================> DF-SCS-MP2 Energies <==================
	-----------------------------------------------------------
	 SCS Same-Spin Scale       =       0.3333333333333333 [-]
	 SCS Opposite-Spin Scale   =       1.2000000000000000 [-]
	 SCS Same-Spin Energy      =      -0.1752542242703963 [Eh]
	 SCS Opposite-Spin Energy  =      -1.8647190534189129 [Eh]
	 SCS Correlation Energy    =      -2.0399732776893091 [Eh]
	 SCS Total Energy          =    -815.0483587070800695 [Eh]
	-----------------------------------------------------------

  Dipole Moment: [D]
     X:    -0.7747      Y:     0.1784      Z:    -0.0000     Total:     0.7949

*** Psi4 exiting successfully. Buy a developer a beer!
