                               Psi4 1.4a3.dev225

  ==> Input File <==

--------------------------------------------------------------------------
#psi4
#
memory 32 gb

molecule  {
0 1
  S        1.7618360    -1.1877300    -0.0001100
  N       -1.1892720    -1.1162850     0.0000840
  N        1.4363420     1.3812950    -0.0000570
  C       -0.6888070     0.1366280     0.0000400
  C        0.7702180     0.2369850    -0.0000350
  C       -1.5152625     1.3304593     0.0000586
  C       -2.8690220     1.1312400     0.0001290
  C       -3.4040470    -0.1590480     0.0001760
  C       -2.5262420    -1.2439110     0.0001500
  C        3.1506810    -0.1849920    -0.0001670
  C        2.7828300     1.1426020    -0.0001250
  H       -1.0124600     2.2659460     0.0000190
  H       -3.5213850     2.0011240     0.0001460
  H       -4.4778440    -0.3237170     0.0002310
  H       -2.9027010    -2.2653680     0.0001840
  H        4.1496320    -0.6018500    -0.0002240
  H        3.4730500     1.9793660    -0.0001460
units angstrom
no_reorient  #important for SAPT in psi4, default
symmetry c1  #important for SAPT in psi4, default
}

set PROPERTIES_ORIGIN ["COM"]
properties('MP2/aug-cc-pvtz', properties = ['dipole'])
--------------------------------------------------------------------------

    Molecular point group: c1
  Charge       = 0
  Multiplicity = 1
  Basis Set: AUG-CC-PVTZ
    Blend: AUG-CC-PVTZ
  Basis Set: (AUG-CC-PVTZ AUX)
    Blend: AUG-CC-PVTZ-JKFIT

    Orbital Energies [Eh]
    ---------------------

    Doubly Occupied:

       1A    -91.996649     2A    -15.579533     3A    -15.575879
       4A    -11.314770     5A    -11.303676     6A    -11.284453
       7A    -11.271062     8A    -11.266379     9A    -11.263750
      10A    -11.251055    11A    -11.250544    12A     -8.996669
      13A     -6.677432    14A     -6.676882    15A     -6.676216
      16A     -1.287572    17A     -1.259635    18A     -1.098804
      19A     -1.066454    20A     -1.061993    21A     -0.986501
      22A     -0.878934    23A     -0.866164    24A     -0.790855
      25A     -0.765551    26A     -0.708427    27A     -0.682668
      28A     -0.668853    29A     -0.638257    30A     -0.595344
      31A     -0.586236    32A     -0.580756    33A     -0.556434
      34A     -0.536113    35A     -0.535405    36A     -0.503614
      37A     -0.444370    38A     -0.423242    39A     -0.401069
      40A     -0.393666    41A     -0.370297    42A     -0.305502

  @DF-RHF Final Energy:  -813.00617467073823

   => Energetics <=

    Nuclear Repulsion Energy =            626.1478480613299098
    One-Electron Energy =               -2355.5527196127450225
    Two-Electron Energy =                 916.3986968806767663
    Total Energy =                       -813.0061746707382326
  Basis Set: (AUG-CC-PVTZ AUX)
    Blend: AUG-CC-PVTZ-RI
    Molecular point group: c1

    Geometry (in Angstrom), charge = 0, multiplicity = 1:

       Center              X                  Y                   Z               Mass
    ------------   -----------------  -----------------  -----------------  -----------------
         S            1.737962075070    -1.172273984926    -0.000108716239    31.972071174400
         N           -1.213145924930    -1.100828984926     0.000085283761    14.003074004430
         N            1.412468075070     1.396751015074    -0.000055716239    14.003074004430
         C           -0.712680924930     0.152084015074     0.000041283761    12.000000000000
         C            0.746344075070     0.252441015074    -0.000033716239    12.000000000000
         C           -1.539136424930     1.345915315074     0.000059883761    12.000000000000
         C           -2.892895924930     1.146696015074     0.000130283761    12.000000000000
         C           -3.427920924930    -0.143591984926     0.000177283761    12.000000000000
         C           -2.550115924930    -1.228454984926     0.000151283761    12.000000000000
         C            3.126807075070    -0.169535984926    -0.000165716239    12.000000000000
         C            2.758956075070     1.158058015074    -0.000123716239    12.000000000000
         H           -1.036333924930     2.281402015074     0.000020283761     1.007825032230
         H           -3.545258924930     2.016580015074     0.000147283761     1.007825032230
         H           -4.501717924930    -0.308260984926     0.000232283761     1.007825032230
         H           -2.926574924930    -2.249911984926     0.000185283761     1.007825032230
         H            4.125758075070    -0.586393984926    -0.000222716239     1.007825032230
         H            3.449176075070     1.994822015074    -0.000144716239     1.007825032230

  Basis Set: AUG-CC-PVTZ
    Blend: AUG-CC-PVTZ
  Basis Set: (AUG-CC-PVTZ AUX)
    Blend: AUG-CC-PVTZ-JKFIT
	 Reference Energy          =    -813.0061746707382326 [Eh]
	 Singles Energy            =      -0.0000000000000000 [Eh]
	 Same-Spin Energy          =      -0.5253306459621289 [Eh]
	 Opposite-Spin Energy      =      -1.5538056214302731 [Eh]
	 Correlation Energy        =      -2.0791362673924021 [Eh]
	 Total Energy              =    -815.0853109381306467 [Eh]

	 ================> DF-SCS-MP2 Energies <==================
	-----------------------------------------------------------
	 SCS Same-Spin Scale       =       0.3333333333333333 [-]
	 SCS Opposite-Spin Scale   =       1.2000000000000000 [-]
	 SCS Same-Spin Energy      =      -0.1751102153207096 [Eh]
	 SCS Opposite-Spin Energy  =      -1.8645667457163277 [Eh]
	 SCS Correlation Energy    =      -2.0396769610370376 [Eh]
	 SCS Total Energy          =    -815.0458516317752355 [Eh]
	-----------------------------------------------------------

  Dipole Moment: [D]
     X:    -0.7163      Y:     0.1902      Z:    -0.0000     Total:     0.7411

*** Psi4 exiting successfully. Buy a developer a beer!
