                               Psi4 1.4a3.dev225

  ==> Input File <==

--------------------------------------------------------------------------
#psi4
#
memory 32 gb

molecule  {
0 1
  S        1.7618360    -1.1877300    -0.0001100
  N       -1.1892720    -1.1162850     0.0000840
  N        1.4363420     1.3812950    -0.0000570
  C       -0.6888070     0.1366280     0.0000400
  C        0.7702180     0.2369850    -0.0000350
  C       -1.4583435     1.2482387     0.0000574
  C       -2.8690220     1.1312400     0.0001290
  C       -3.4040470    -0.1590480     0.0001760
  C       -2.5262420    -1.2439110     0.0001500
  C        3.1506810    -0.1849920    -0.0001670
  C        2.7828300     1.1426020    -0.0001250
  H       -1.0124600     2.2659460     0.0000190
  H       -3.5213850     2.0011240     0.0001460
  H       -4.4778440    -0.3237170     0.0002310
  H       -2.9027010    -2.2653680     0.0001840
  H        4.1496320    -0.6018500    -0.0002240
  H        3.4730500     1.9793660    -0.0001460
units angstrom
no_reorient  #important for SAPT in psi4, default
symmetry c1  #important for SAPT in psi4, default
}

set PROPERTIES_ORIGIN ["COM"]
properties('MP2/aug-cc-pvtz', properties = ['dipole'])
--------------------------------------------------------------------------

    Molecular point group: c1
  Charge       = 0
  Multiplicity = 1
  Basis Set: AUG-CC-PVTZ
    Blend: AUG-CC-PVTZ
  Basis Set: (AUG-CC-PVTZ AUX)
    Blend: AUG-CC-PVTZ-JKFIT

    Orbital Energies [Eh]
    ---------------------

    Doubly Occupied:

       1A    -91.994735     2A    -15.578180     3A    -15.572796
       4A    -11.312767     5A    -11.290269     6A    -11.286697
       7A    -11.271492     8A    -11.269190     9A    -11.263764
      10A    -11.252223    11A    -11.248579    12A     -8.994769
      13A     -6.675540    14A     -6.674992    15A     -6.674328
      16A     -1.287737    17A     -1.260932    18A     -1.094339
      19A     -1.072254    20A     -1.061635    21A     -0.986641
      22A     -0.878296    23A     -0.869314    24A     -0.790984
      25A     -0.767323    26A     -0.706156    27A     -0.677851
      28A     -0.670568    29A     -0.639662    30A     -0.592252
      31A     -0.589334    32A     -0.582519    33A     -0.559726
      34A     -0.536649    35A     -0.521091    36A     -0.501886
      37A     -0.444133    38A     -0.425305    39A     -0.398478
      40A     -0.390535    41A     -0.372705    42A     -0.308804

  @DF-RHF Final Energy:  -813.00662981563005

   => Energetics <=

    Nuclear Repulsion Energy =            627.7978629290369099
    One-Electron Energy =               -2358.9141286003209643
    Two-Electron Energy =                 918.1096358556540054
    Total Energy =                       -813.0066298156300491
  Basis Set: (AUG-CC-PVTZ AUX)
    Blend: AUG-CC-PVTZ-RI
    Molecular point group: c1

    Geometry (in Angstrom), charge = 0, multiplicity = 1:

       Center              X                  Y                   Z               Mass
    ------------   -----------------  -----------------  -----------------  -----------------
         S            1.733746507806    -1.166184516211    -0.000108627364    31.972071174400
         N           -1.217361492194    -1.094739516211     0.000085372636    14.003074004430
         N            1.408252507806     1.402840483789    -0.000055627364    14.003074004430
         C           -0.716896492194     0.158173483789     0.000041372636    12.000000000000
         C            0.742128507806     0.258530483789    -0.000033627364    12.000000000000
         C           -1.486432992194     1.269784183789     0.000058772636    12.000000000000
         C           -2.897111492194     1.152785483789     0.000130372636    12.000000000000
         C           -3.432136492194    -0.137502516211     0.000177372636    12.000000000000
         C           -2.554331492194    -1.222365516211     0.000151372636    12.000000000000
         C            3.122591507806    -0.163446516211    -0.000165627364    12.000000000000
         C            2.754740507806     1.164147483789    -0.000123627364    12.000000000000
         H           -1.040549492194     2.287491483789     0.000020372636     1.007825032230
         H           -3.549474492194     2.022669483789     0.000147372636     1.007825032230
         H           -4.505933492194    -0.302171516211     0.000232372636     1.007825032230
         H           -2.930790492194    -2.243822516211     0.000185372636     1.007825032230
         H            4.121542507806    -0.580304516211    -0.000222627364     1.007825032230
         H            3.444960507806     2.000911483789    -0.000144627364     1.007825032230

  Basis Set: AUG-CC-PVTZ
    Blend: AUG-CC-PVTZ
  Basis Set: (AUG-CC-PVTZ AUX)
    Blend: AUG-CC-PVTZ-JKFIT
	 Reference Energy          =    -813.0066298156300491 [Eh]
	 Singles Energy            =      -0.0000000000000000 [Eh]
	 Same-Spin Energy          =      -0.5253006225417510 [Eh]
	 Opposite-Spin Energy      =      -1.5536943332447208 [Eh]
	 Correlation Energy        =      -2.0789949557864720 [Eh]
	 Total Energy              =    -815.0856247714165193 [Eh]

	 ================> DF-SCS-MP2 Energies <==================
	-----------------------------------------------------------
	 SCS Same-Spin Scale       =       0.3333333333333333 [-]
	 SCS Opposite-Spin Scale   =       1.2000000000000000 [-]
	 SCS Same-Spin Energy      =      -0.1751002075139170 [Eh]
	 SCS Opposite-Spin Energy  =      -1.8644331998936650 [Eh]
	 SCS Correlation Energy    =      -2.0395334074075819 [Eh]
	 SCS Total Energy          =    -815.0461632230376381 [Eh]
	-----------------------------------------------------------

  Dipole Moment: [D]
     X:    -0.8884      Y:     0.1946      Z:    -0.0000     Total:     0.9095

*** Psi4 exiting successfully. Buy a developer a beer!
