                               Psi4 1.3.2 release

  ==> Input File <==

--------------------------------------------------------------------------
#psi4
#
memory 32 gb

molecule  {
0 1
  S        1.7618360    -1.1877300    -0.0001100
  N       -1.1892720    -1.1162850     0.0000840
  N        1.4229716     1.2867873    -0.0000581
  C       -0.6888070     0.1366280     0.0000400
  C        0.7702180     0.2369850    -0.0000350
  C       -1.4868030     1.2893490     0.0000580
  C       -2.8690220     1.1312400     0.0001290
  C       -3.4040470    -0.1590480     0.0001760
  C       -2.5262420    -1.2439110     0.0001500
  C        3.1506810    -0.1849920    -0.0001670
  C        2.7828300     1.1426020    -0.0001250
  H       -1.0124600     2.2659460     0.0000190
  H       -3.5213850     2.0011240     0.0001460
  H       -4.4778440    -0.3237170     0.0002310
  H       -2.9027010    -2.2653680     0.0001840
  H        4.1496320    -0.6018500    -0.0002240
  H        3.4730500     1.9793660    -0.0001460
units angstrom
no_reorient  #important for SAPT in psi4, default
symmetry c1  #important for SAPT in psi4, default
}

set PROPERTIES_ORIGIN ["COM"]
properties('MP2/aug-cc-pvtz', properties = ['dipole'])
--------------------------------------------------------------------------

    Molecular point group: c1
  Charge       = 0
  Multiplicity = 1
  Basis Set: AUG-CC-PVTZ
    Blend: AUG-CC-PVTZ
  Basis Set: (AUG-CC-PVTZ AUX)
    Blend: AUG-CC-PVTZ-JKFIT

    Orbital Energies [Eh]
    ---------------------

    Doubly Occupied:

       1A    -91.985868     2A    -15.578312     3A    -15.562179
       4A    -11.301423     5A    -11.295823     6A    -11.284840
       7A    -11.270536     8A    -11.267288     9A    -11.266923
      10A    -11.250887    11A    -11.249497    12A     -8.986777
      13A     -6.667551    14A     -6.667061    15A     -6.666273
      16A     -1.309446    17A     -1.264156    18A     -1.095994
      19A     -1.072649    20A     -1.057806    21A     -0.991788
      22A     -0.877580    23A     -0.869103    24A     -0.799522
      25A     -0.765643    26A     -0.705606    27A     -0.682376
      28A     -0.667995    29A     -0.644088    30A     -0.603051
      31A     -0.590803    32A     -0.590210    33A     -0.559385
      34A     -0.539092    35A     -0.531206    36A     -0.500548
      37A     -0.438528    38A     -0.412494    39A     -0.401938
      40A     -0.392755    41A     -0.368092    42A     -0.312603

  @DF-RHF Final Energy:  -813.00798785643269

   => Energetics <=

    Nuclear Repulsion Energy =            629.7199844641481832
    One-Electron Energy =               -2362.7645539226391520
    Two-Electron Energy =                 920.0365816020582770
    Total Energy =                       -813.0079878564326918
  Basis Set: (AUG-CC-PVTZ AUX)
    Blend: AUG-CC-PVTZ-RI
    Molecular point group: c1

    Geometry (in Angstrom), charge = 0, multiplicity = 1:

       Center              X                  Y                   Z               Mass
    ------------   -----------------  -----------------  -----------------  -----------------
         S            1.737009832280    -1.161061394166    -0.000108576734    31.972071174400
         N           -1.214098167720    -1.089616394166     0.000085423266    14.003074004430
         N            1.398145432280     1.313455905834    -0.000056676734    14.003074004430
         C           -0.713633167720     0.163296605834     0.000041423266    12.000000000000
         C            0.745391832280     0.263653605834    -0.000033576734    12.000000000000
         C           -1.511629167720     1.316017605834     0.000059423266    12.000000000000
         C           -2.893848167720     1.157908605834     0.000130423266    12.000000000000
         C           -3.428873167720    -0.132379394166     0.000177423266    12.000000000000
         C           -2.551068167720    -1.217242394166     0.000151423266    12.000000000000
         C            3.125854832280    -0.158323394166    -0.000165576734    12.000000000000
         C            2.758003832280     1.169270605834    -0.000123576734    12.000000000000
         H           -1.037286167720     2.292614605834     0.000020423266     1.007825032230
         H           -3.546211167720     2.027792605834     0.000147423266     1.007825032230
         H           -4.502670167720    -0.297048394166     0.000232423266     1.007825032230
         H           -2.927527167720    -2.238699394166     0.000185423266     1.007825032230
         H            4.124805832280    -0.575181394166    -0.000222576734     1.007825032230
         H            3.448223832280     2.006034605834    -0.000144576734     1.007825032230

  Basis Set: AUG-CC-PVTZ
    Blend: AUG-CC-PVTZ
  Basis Set: (AUG-CC-PVTZ AUX)
    Blend: AUG-CC-PVTZ-JKFIT
	 Reference Energy          =    -813.0079878564326918 [Eh]
	 Singles Energy            =      -0.0000000000000000 [Eh]
	 Same-Spin Energy          =      -0.5233147425988991 [Eh]
	 Opposite-Spin Energy      =      -1.5496829800985261 [Eh]
	 Correlation Energy        =      -2.0729977226974254 [Eh]
	 Total Energy              =    -815.0809855791301288 [Eh]

	 ================> DF-SCS-MP2 Energies <==================
	-----------------------------------------------------------
	 SCS Same-Spin Scale       =       0.3333333333333333 [-]
	 SCS Opposite-Spin Scale   =       1.2000000000000000 [-]
	 SCS Same-Spin Energy      =      -0.1744382475329664 [Eh]
	 SCS Opposite-Spin Energy  =      -1.8596195761182313 [Eh]
	 SCS Correlation Energy    =      -2.0340578236511977 [Eh]
	 SCS Total Energy          =    -815.0420456800839020 [Eh]
	-----------------------------------------------------------

  Dipole Moment: [D]
     X:    -0.9084      Y:     0.5602      Z:     0.0000     Total:     1.0673

*** Psi4 exiting successfully. Buy a developer a beer!
