                               Psi4 1.3.2 release

  ==> Input File <==

--------------------------------------------------------------------------
#psi4
#
memory 32 gb

molecule  {
0 1
  S        1.7618360    -1.1877300    -0.0001100
  N       -1.1892720    -1.1162850     0.0000840
  N        1.4363420     1.3812950    -0.0000570
  C       -0.6888070     0.1366280     0.0000400
  C        0.7702180     0.2369850    -0.0000350
  C       -1.4868030     1.2893490     0.0000580
  C       -2.8690220     1.1312400     0.0001290
  C       -3.4040470    -0.1590480     0.0001760
  C       -2.5262420    -1.2439110     0.0001500
  C        3.1506810    -0.1849920    -0.0001670
  C        2.7828300     1.1426020    -0.0001250
  H       -1.0124600     2.2659460     0.0000190
  H       -3.5213850     2.0011240     0.0001460
  H       -4.4778440    -0.3237170     0.0002310
  H       -2.9027010    -2.2653680     0.0001840
  H        3.9650579    -0.5248280    -0.0002135
  H        3.4730500     1.9793660    -0.0001460
units angstrom
no_reorient  #important for SAPT in psi4, default
symmetry c1  #important for SAPT in psi4, default
}

set PROPERTIES_ORIGIN ["COM"]
properties('MP2/aug-cc-pvtz', properties = ['dipole'])
--------------------------------------------------------------------------

    Molecular point group: c1
  Charge       = 0
  Multiplicity = 1
  Basis Set: AUG-CC-PVTZ
    Blend: AUG-CC-PVTZ
  Basis Set: (AUG-CC-PVTZ AUX)
    Blend: AUG-CC-PVTZ-JKFIT

    Orbital Energies [Eh]
    ---------------------

    Doubly Occupied:

       1A    -91.994859     2A    -15.578931     3A    -15.573649
       4A    -11.313871     5A    -11.297345     6A    -11.285482
       7A    -11.269991     8A    -11.267570     9A    -11.251436
      10A    -11.249982    11A    -11.243019    12A     -8.994949
      13A     -6.675737    14A     -6.675183    15A     -6.674534
      16A     -1.287295    17A     -1.260207    18A     -1.096659
      19A     -1.074370    20A     -1.064312    21A     -0.990054
      22A     -0.881660    23A     -0.869779    24A     -0.817163
      25A     -0.768209    26A     -0.717060    27A     -0.684541
      28A     -0.672889    29A     -0.640610    30A     -0.596441
      31A     -0.591596    32A     -0.581235    33A     -0.568299
      34A     -0.535864    35A     -0.530414    36A     -0.502478
      37A     -0.444161    38A     -0.424515    39A     -0.398916
      40A     -0.392429    41A     -0.371326    42A     -0.307274

  @DF-RHF Final Energy:  -812.97352077283642

   => Energetics <=

    Nuclear Repulsion Energy =            628.2200559478127389
    One-Electron Energy =               -2359.5545637954260201
    Two-Electron Energy =                 918.3609870747767445
    Total Energy =                       -812.9735207728364230
  Basis Set: (AUG-CC-PVTZ AUX)
    Blend: AUG-CC-PVTZ-RI
    Molecular point group: c1

    Geometry (in Angstrom), charge = 0, multiplicity = 1:

       Center              X                  Y                   Z               Mass
    ------------   -----------------  -----------------  -----------------  -----------------
         S            1.737002374782    -1.169708340946    -0.000108737113    31.972071174400
         N           -1.214105625218    -1.098263340946     0.000085262887    14.003074004430
         N            1.411508374782     1.399316659054    -0.000055737113    14.003074004430
         C           -0.713640625218     0.154649659054     0.000041262887    12.000000000000
         C            0.745384374782     0.255006659054    -0.000033737113    12.000000000000
         C           -1.511636625218     1.307370659054     0.000059262887    12.000000000000
         C           -2.893855625218     1.149261659054     0.000130262887    12.000000000000
         C           -3.428880625218    -0.141026340946     0.000177262887    12.000000000000
         C           -2.551075625218    -1.225889340946     0.000151262887    12.000000000000
         C            3.125847374782    -0.166970340946    -0.000165737113    12.000000000000
         C            2.757996374782     1.160623659054    -0.000123737113    12.000000000000
         H           -1.037293625218     2.283967659054     0.000020262887     1.007825032230
         H           -3.546218625218     2.019145659054     0.000147262887     1.007825032230
         H           -4.502677625218    -0.305695340946     0.000232262887     1.007825032230
         H           -2.927534625218    -2.247346340946     0.000185262887     1.007825032230
         H            3.940224274782    -0.506806340946    -0.000212237113     1.007825032230
         H            3.448216374782     1.997387659054    -0.000144737113     1.007825032230

  Basis Set: AUG-CC-PVTZ
    Blend: AUG-CC-PVTZ
  Basis Set: (AUG-CC-PVTZ AUX)
    Blend: AUG-CC-PVTZ-JKFIT
	 Reference Energy          =    -812.9735207728364230 [Eh]
	 Singles Energy            =      -0.0000000000000000 [Eh]
	 Same-Spin Energy          =      -0.5250612909426047 [Eh]
	 Opposite-Spin Energy      =      -1.5534117561128538 [Eh]
	 Correlation Energy        =      -2.0784730470554584 [Eh]
	 Total Energy              =    -815.0519938198918908 [Eh]

	 ================> DF-SCS-MP2 Energies <==================
	-----------------------------------------------------------
	 SCS Same-Spin Scale       =       0.3333333333333333 [-]
	 SCS Opposite-Spin Scale   =       1.2000000000000000 [-]
	 SCS Same-Spin Energy      =      -0.1750204303142016 [Eh]
	 SCS Opposite-Spin Energy  =      -1.8640941073354245 [Eh]
	 SCS Correlation Energy    =      -2.0391145376496258 [Eh]
	 SCS Total Energy          =    -815.0126353104860755 [Eh]
	-----------------------------------------------------------

  Dipole Moment: [D]
     X:    -0.8446      Y:     0.2179      Z:    -0.0000     Total:     0.8722

*** Psi4 exiting successfully. Buy a developer a beer!
