                               Psi4 1.4a3.dev225

  ==> Input File <==

--------------------------------------------------------------------------
#psi4
#
memory 32 gb

molecule  {
0 1
  S        1.7618360    -1.1877300    -0.0001100
  N       -1.1892720    -1.1162850     0.0000840
  N        1.4363420     1.3812950    -0.0000570
  C       -0.6888070     0.1366280     0.0000400
  C        0.7702180     0.2369850    -0.0000350
  C       -1.4868030     1.2893490     0.0000580
  C       -2.8690220     1.1312400     0.0001290
  C       -3.4040470    -0.1590480     0.0001760
  C       -2.5262420    -1.2439110     0.0001500
  C        3.1506810    -0.1849920    -0.0001670
  C        2.8025230     1.1391110    -0.0001260
  H       -1.0124600     2.2659460     0.0000190
  H       -3.5213850     2.0011240     0.0001460
  H       -4.4778440    -0.3237170     0.0002310
  H       -2.9027010    -2.2653680     0.0001840
  H        4.1496320    -0.6018500    -0.0002240
  H        3.4730500     1.9793660    -0.0001460
units angstrom
no_reorient  #important for SAPT in psi4, default
symmetry c1  #important for SAPT in psi4, default
}

set PROPERTIES_ORIGIN ["COM"]
properties('MP2/aug-cc-pvtz', properties = ['dipole'])
--------------------------------------------------------------------------

    Molecular point group: c1
  Charge       = 0
  Multiplicity = 1
  Basis Set: AUG-CC-PVTZ
    Blend: AUG-CC-PVTZ
  Basis Set: (AUG-CC-PVTZ AUX)
    Blend: AUG-CC-PVTZ-JKFIT

    Orbital Energies [Eh]
    ---------------------

    Doubly Occupied:

       1A    -91.994844     2A    -15.579203     3A    -15.574881
       4A    -11.313844     5A    -11.297508     6A    -11.285564
       7A    -11.269662     8A    -11.267650     9A    -11.264801
      10A    -11.251610    11A    -11.250118    12A     -8.994974
      13A     -6.675763    14A     -6.675189    15A     -6.674503
      16A     -1.284773    17A     -1.258394    18A     -1.096635
      19A     -1.069148    20A     -1.060395    21A     -0.987553
      22A     -0.877759    23A     -0.869276    24A     -0.789478
      25A     -0.767418    26A     -0.706381    27A     -0.680763
      28A     -0.668958    29A     -0.639640    30A     -0.594024
      31A     -0.586834    32A     -0.580422    33A     -0.557146
      34A     -0.535162    35A     -0.529452    36A     -0.506011
      37A     -0.443831    38A     -0.423888    39A     -0.399456
      40A     -0.391656    41A     -0.370491    42A     -0.309244

  @DF-RHF Final Energy:  -813.00943572297899

   => Energetics <=

    Nuclear Repulsion Energy =            626.6401602808687130
    One-Electron Energy =               -2356.5905822021031781
    Two-Electron Energy =                 916.9409861982554730
    Total Energy =                       -813.0094357229789921
  Basis Set: (AUG-CC-PVTZ AUX)
    Blend: AUG-CC-PVTZ-RI
    Molecular point group: c1

    Geometry (in Angstrom), charge = 0, multiplicity = 1:

       Center              X                  Y                   Z               Mass
    ------------   -----------------  -----------------  -----------------  -----------------
         S            1.734395777301    -1.168970698146    -0.000108597739    31.972071174400
         N           -1.216712222699    -1.097525698146     0.000085402261    14.003074004430
         N            1.408901777301     1.400054301854    -0.000055597739    14.003074004430
         C           -0.716247222699     0.155387301854     0.000041402261    12.000000000000
         C            0.742777777301     0.255744301854    -0.000033597739    12.000000000000
         C           -1.514243222699     1.308108301854     0.000059402261    12.000000000000
         C           -2.896462222699     1.149999301854     0.000130402261    12.000000000000
         C           -3.431487222699    -0.140288698146     0.000177402261    12.000000000000
         C           -2.553682222699    -1.225151698146     0.000151402261    12.000000000000
         C            3.123240777301    -0.166232698146    -0.000165597739    12.000000000000
         C            2.775082777301     1.157870301854    -0.000124597739    12.000000000000
         H           -1.039900222699     2.284705301854     0.000020402261     1.007825032230
         H           -3.548825222699     2.019883301854     0.000147402261     1.007825032230
         H           -4.505284222699    -0.304957698146     0.000232402261     1.007825032230
         H           -2.930141222699    -2.246608698146     0.000185402261     1.007825032230
         H            4.122191777301    -0.583090698146    -0.000222597739     1.007825032230
         H            3.445609777301     1.998125301854    -0.000144597739     1.007825032230

  Basis Set: AUG-CC-PVTZ
    Blend: AUG-CC-PVTZ
  Basis Set: (AUG-CC-PVTZ AUX)
    Blend: AUG-CC-PVTZ-JKFIT
	 Reference Energy          =    -813.0094357229789921 [Eh]
	 Singles Energy            =      -0.0000000000000000 [Eh]
	 Same-Spin Energy          =      -0.5248909982856445 [Eh]
	 Opposite-Spin Energy      =      -1.5534816826765079 [Eh]
	 Correlation Energy        =      -2.0783726809621523 [Eh]
	 Total Energy              =    -815.0878084039411533 [Eh]

	 ================> DF-SCS-MP2 Energies <==================
	-----------------------------------------------------------
	 SCS Same-Spin Scale       =       0.3333333333333333 [-]
	 SCS Opposite-Spin Scale   =       1.2000000000000000 [-]
	 SCS Same-Spin Energy      =      -0.1749636660952148 [Eh]
	 SCS Opposite-Spin Energy  =      -1.8641780192118094 [Eh]
	 SCS Correlation Energy    =      -2.0391416853070243 [Eh]
	 SCS Total Energy          =    -815.0485774082860644 [Eh]
	-----------------------------------------------------------

  Dipole Moment: [D]
     X:    -0.8240      Y:     0.2056      Z:    -0.0000     Total:     0.8492

*** Psi4 exiting successfully. Buy a developer a beer!
