                               Psi4 1.3.2 release

  ==> Input File <==

--------------------------------------------------------------------------
#psi4
#
memory 32 gb

molecule  {
0 1
  S        1.7618360    -1.1877300    -0.0001100
  N       -1.1892720    -1.1162850     0.0000840
  N        1.4363420     1.3812950    -0.0000570
  C       -0.7328379     0.1533307     0.0000418
  C        0.7702180     0.2369850    -0.0000350
  C       -1.4868030     1.2893490     0.0000580
  C       -2.8690220     1.1312400     0.0001290
  C       -3.4040470    -0.1590480     0.0001760
  C       -2.5262420    -1.2439110     0.0001500
  C        3.1506810    -0.1849920    -0.0001670
  C        2.7828300     1.1426020    -0.0001250
  H       -1.0124600     2.2659460     0.0000190
  H       -3.5213850     2.0011240     0.0001460
  H       -4.4778440    -0.3237170     0.0002310
  H       -2.9027010    -2.2653680     0.0001840
  H        4.1496320    -0.6018500    -0.0002240
  H        3.4730500     1.9793660    -0.0001460
units angstrom
no_reorient  #important for SAPT in psi4, default
symmetry c1  #important for SAPT in psi4, default
}

set PROPERTIES_ORIGIN ["COM"]
properties('MP2/aug-cc-pvtz', properties = ['dipole'])
--------------------------------------------------------------------------

    Molecular point group: c1
  Charge       = 0
  Multiplicity = 1
  Basis Set: AUG-CC-PVTZ
    Blend: AUG-CC-PVTZ
  Basis Set: (AUG-CC-PVTZ AUX)
    Blend: AUG-CC-PVTZ-JKFIT

    Orbital Energies [Eh]
    ---------------------

    Doubly Occupied:

       1A    -91.994587     2A    -15.579801     3A    -15.571935
       4A    -11.314335     5A    -11.296017     6A    -11.286948
       7A    -11.269546     8A    -11.268547     9A    -11.263073
      10A    -11.251582    11A    -11.246126    12A     -8.994552
      13A     -6.675320    14A     -6.674789    15A     -6.674113
      16A     -1.286268    17A     -1.262189    18A     -1.100091
      19A     -1.066853    20A     -1.060861    21A     -0.985708
      22A     -0.875899    23A     -0.870025    24A     -0.789782
      25A     -0.763526    26A     -0.707261    27A     -0.677840
      28A     -0.671261    29A     -0.641649    30A     -0.594159
      31A     -0.585382    32A     -0.579993    33A     -0.558897
      34A     -0.538059    35A     -0.522477    36A     -0.501915
      37A     -0.445990    38A     -0.426795    39A     -0.396464
      40A     -0.392860    41A     -0.372589    42A     -0.310166

  @DF-RHF Final Energy:  -813.00807823476202

   => Energetics <=

    Nuclear Repulsion Energy =            626.8367832369608550
    One-Electron Energy =               -2356.9972635986905516
    Two-Electron Energy =                 917.1524021269676723
    Total Energy =                       -813.0080782347620243
  Basis Set: (AUG-CC-PVTZ AUX)
    Blend: AUG-CC-PVTZ-RI
    Molecular point group: c1

    Geometry (in Angstrom), charge = 0, multiplicity = 1:

       Center              X                  Y                   Z               Mass
    ------------   -----------------  -----------------  -----------------  -----------------
         S            1.739115332929    -1.170466295410    -0.000108805114    31.972071174400
         N           -1.211992667071    -1.099021295410     0.000085194886    14.003074004430
         N            1.413621332929     1.398558704590    -0.000055805114    14.003074004430
         C           -0.755558567071     0.170594404590     0.000042994886    12.000000000000
         C            0.747497332929     0.254248704590    -0.000033805114    12.000000000000
         C           -1.509523667071     1.306612704590     0.000059194886    12.000000000000
         C           -2.891742667071     1.148503704590     0.000130194886    12.000000000000
         C           -3.426767667071    -0.141784295410     0.000177194886    12.000000000000
         C           -2.548962667071    -1.226647295410     0.000151194886    12.000000000000
         C            3.127960332929    -0.167728295410    -0.000165805114    12.000000000000
         C            2.760109332929     1.159865704590    -0.000123805114    12.000000000000
         H           -1.035180667071     2.283209704590     0.000020194886     1.007825032230
         H           -3.544105667071     2.018387704590     0.000147194886     1.007825032230
         H           -4.500564667071    -0.306453295410     0.000232194886     1.007825032230
         H           -2.925421667071    -2.248104295410     0.000185194886     1.007825032230
         H            4.126911332929    -0.584586295410    -0.000222805114     1.007825032230
         H            3.450329332929     1.996629704590    -0.000144805114     1.007825032230

  Basis Set: AUG-CC-PVTZ
    Blend: AUG-CC-PVTZ
  Basis Set: (AUG-CC-PVTZ AUX)
    Blend: AUG-CC-PVTZ-JKFIT
	 Reference Energy          =    -813.0080782347620243 [Eh]
	 Singles Energy            =      -0.0000000000000000 [Eh]
	 Same-Spin Energy          =      -0.5246997486783450 [Eh]
	 Opposite-Spin Energy      =      -1.5528728773204667 [Eh]
	 Correlation Energy        =      -2.0775726259988119 [Eh]
	 Total Energy              =    -815.0856508607607793 [Eh]

	 ================> DF-SCS-MP2 Energies <==================
	-----------------------------------------------------------
	 SCS Same-Spin Scale       =       0.3333333333333333 [-]
	 SCS Opposite-Spin Scale   =       1.2000000000000000 [-]
	 SCS Same-Spin Energy      =      -0.1748999162261150 [Eh]
	 SCS Opposite-Spin Energy  =      -1.8634474527845599 [Eh]
	 SCS Correlation Energy    =      -2.0383473690106748 [Eh]
	 SCS Total Energy          =    -815.0464256037727182 [Eh]
	-----------------------------------------------------------

  Dipole Moment: [D]
     X:    -0.9805      Y:     0.1916      Z:    -0.0000     Total:     0.9990

*** Psi4 exiting successfully. Buy a developer a beer!
