                               Psi4 1.3.2 release

  ==> Input File <==

--------------------------------------------------------------------------
#psi4
#
memory 32 gb

molecule  {
0 1
  S        1.7618360    -1.1877300    -0.0001100
  N       -1.1892720    -1.1162850     0.0000840
  N        1.4363420     1.3812950    -0.0000570
  C       -0.6888070     0.1366280     0.0000400
  C        0.7702180     0.2369850    -0.0000350
  C       -1.4868030     1.2893490     0.0000580
  C       -2.8690220     1.1312400     0.0001290
  C       -3.4040470    -0.1590480     0.0001760
  C       -2.5262420    -1.2439110     0.0001500
  C        3.1506810    -0.1849920    -0.0001670
  C        2.8095320     1.0462329    -0.0001280
  H       -1.0124600     2.2659460     0.0000190
  H       -3.5213850     2.0011240     0.0001460
  H       -4.4778440    -0.3237170     0.0002310
  H       -2.9027010    -2.2653680     0.0001840
  H        4.1496320    -0.6018500    -0.0002240
  H        3.4730500     1.9793660    -0.0001460
units angstrom
no_reorient  #important for SAPT in psi4, default
symmetry c1  #important for SAPT in psi4, default
}

set PROPERTIES_ORIGIN ["COM"]
properties('MP2/aug-cc-pvtz', properties = ['dipole'])
--------------------------------------------------------------------------

    Molecular point group: c1
  Charge       = 0
  Multiplicity = 1
  Basis Set: AUG-CC-PVTZ
    Blend: AUG-CC-PVTZ
  Basis Set: (AUG-CC-PVTZ AUX)
    Blend: AUG-CC-PVTZ-JKFIT

    Orbital Energies [Eh]
    ---------------------

    Doubly Occupied:

       1A    -91.989595     2A    -15.580730     3A    -15.574755
       4A    -11.315723     5A    -11.297865     6A    -11.286348
       7A    -11.268665     8A    -11.262883     9A    -11.253331
      10A    -11.252015    11A    -11.251855    12A     -8.990385
      13A     -6.671203    14A     -6.670645    15A     -6.669814
      16A     -1.286196    17A     -1.259773    18A     -1.097911
      19A     -1.080236    20A     -1.058911    21A     -0.992043
      22A     -0.882219    23A     -0.869717    24A     -0.785481
      25A     -0.763071    26A     -0.711012    27A     -0.679687
      28A     -0.670357    29A     -0.637117    30A     -0.594434
      31A     -0.582447    32A     -0.575395    33A     -0.556734
      34A     -0.538550    35A     -0.530460    36A     -0.499527
      37A     -0.447547    38A     -0.423978    39A     -0.405245
      40A     -0.391195    41A     -0.369703    42A     -0.320306

  @DF-RHF Final Energy:  -812.99971169215576

   => Energetics <=

    Nuclear Repulsion Energy =            628.0567244870430841
    One-Electron Energy =               -2359.4227453090120434
    Two-Electron Energy =                 918.3663091298132031
    Total Energy =                       -812.9997116921557563
  Basis Set: (AUG-CC-PVTZ AUX)
    Blend: AUG-CC-PVTZ-RI
    Molecular point group: c1

    Geometry (in Angstrom), charge = 0, multiplicity = 1:

       Center              X                  Y                   Z               Mass
    ------------   -----------------  -----------------  -----------------  -----------------
         S            1.733876672768    -1.162091907621    -0.000108449614    31.972071174400
         N           -1.217231327232    -1.090646907621     0.000085550386    14.003074004430
         N            1.408382672768     1.406933092379    -0.000055449614    14.003074004430
         C           -0.716766327232     0.162266092379     0.000041550386    12.000000000000
         C            0.742258672768     0.262623092379    -0.000033449614    12.000000000000
         C           -1.514762327232     1.314987092379     0.000059550386    12.000000000000
         C           -2.896981327232     1.156878092379     0.000130550386    12.000000000000
         C           -3.432006327232    -0.133409907621     0.000177550386    12.000000000000
         C           -2.554201327232    -1.218272907621     0.000151550386    12.000000000000
         C            3.122721672768    -0.159353907621    -0.000165449614    12.000000000000
         C            2.781572672768     1.071870992379    -0.000126449614    12.000000000000
         H           -1.040419327232     2.291584092379     0.000020550386     1.007825032230
         H           -3.549344327232     2.026762092379     0.000147550386     1.007825032230
         H           -4.505803327232    -0.298078907621     0.000232550386     1.007825032230
         H           -2.930660327232    -2.239729907621     0.000185550386     1.007825032230
         H            4.121672672768    -0.576211907621    -0.000222449614     1.007825032230
         H            3.445090672768     2.005004092379    -0.000144449614     1.007825032230

  Basis Set: AUG-CC-PVTZ
    Blend: AUG-CC-PVTZ
  Basis Set: (AUG-CC-PVTZ AUX)
    Blend: AUG-CC-PVTZ-JKFIT
	 Reference Energy          =    -812.9997116921557563 [Eh]
	 Singles Energy            =      -0.0000000000000000 [Eh]
	 Same-Spin Energy          =      -0.5231068942653472 [Eh]
	 Opposite-Spin Energy      =      -1.5514727529845049 [Eh]
	 Correlation Energy        =      -2.0745796472498519 [Eh]
	 Total Energy              =    -815.0742913394055904 [Eh]

	 ================> DF-SCS-MP2 Energies <==================
	-----------------------------------------------------------
	 SCS Same-Spin Scale       =       0.3333333333333333 [-]
	 SCS Opposite-Spin Scale   =       1.2000000000000000 [-]
	 SCS Same-Spin Energy      =      -0.1743689647551157 [Eh]
	 SCS Opposite-Spin Energy  =      -1.8617673035814057 [Eh]
	 SCS Correlation Energy    =      -2.0361362683365214 [Eh]
	 SCS Total Energy          =    -815.0358479604923332 [Eh]
	-----------------------------------------------------------

  Dipole Moment: [D]
     X:    -0.9714      Y:     0.1733      Z:    -0.0000     Total:     0.9867

*** Psi4 exiting successfully. Buy a developer a beer!
