                               Psi4 1.3.2 release

  ==> Input File <==

--------------------------------------------------------------------------
#psi4
#
memory 32 gb

molecule  {
0 1
  S        1.7618360    -1.1877300    -0.0001100
  N       -1.1892720    -1.1162850     0.0000840
  N        1.4363420     1.3812950    -0.0000570
  C       -0.6888070     0.1366280     0.0000400
  C        0.6559654     0.4011384    -0.0000264
  C       -1.4868030     1.2893490     0.0000580
  C       -2.8690220     1.1312400     0.0001290
  C       -3.4040470    -0.1590480     0.0001760
  C       -2.5262420    -1.2439110     0.0001500
  C        3.1506810    -0.1849920    -0.0001670
  C        2.7828300     1.1426020    -0.0001250
  H       -1.0124600     2.2659460     0.0000190
  H       -3.5213850     2.0011240     0.0001460
  H       -4.4778440    -0.3237170     0.0002310
  H       -2.9027010    -2.2653680     0.0001840
  H        4.1496320    -0.6018500    -0.0002240
  H        3.4730500     1.9793660    -0.0001460
units angstrom
no_reorient  #important for SAPT in psi4, default
symmetry c1  #important for SAPT in psi4, default
}

set PROPERTIES_ORIGIN ["COM"]
properties('MP2/aug-cc-pvtz', properties = ['dipole'])
--------------------------------------------------------------------------

    Molecular point group: c1
  Charge       = 0
  Multiplicity = 1
  Basis Set: AUG-CC-PVTZ
    Blend: AUG-CC-PVTZ
  Basis Set: (AUG-CC-PVTZ AUX)
    Blend: AUG-CC-PVTZ-JKFIT

    Orbital Energies [Eh]
    ---------------------

    Doubly Occupied:

       1A    -91.972100     2A    -15.586526     3A    -15.579331
       4A    -11.320402     5A    -11.297465     6A    -11.291397
       7A    -11.271586     8A    -11.271177     9A    -11.268541
      10A    -11.257552    11A    -11.255422    12A     -8.971093
      13A     -6.651901    14A     -6.650985    15A     -6.650561
      16A     -1.300076    17A     -1.268497    18A     -1.101653
      19A     -1.089314    20A     -1.053703    21A     -0.977842
      22A     -0.894340    23A     -0.875996    24A     -0.797134
      25A     -0.774040    26A     -0.702501    27A     -0.688599
      28A     -0.672730    29A     -0.649754    30A     -0.615364
      31A     -0.592931    32A     -0.591519    33A     -0.552216
      34A     -0.536706    35A     -0.533240    36A     -0.490470
      37A     -0.440086    38A     -0.412144    39A     -0.396621
      40A     -0.393783    41A     -0.368785    42A     -0.299436

  @DF-RHF Final Energy:  -812.97902076410639

   => Energetics <=

    Nuclear Repulsion Energy =            626.1183696763820308
    One-Electron Energy =               -2355.4637478956128689
    Two-Electron Energy =                 916.3663574551245574
    Total Energy =                       -812.9790207641063944
  Basis Set: (AUG-CC-PVTZ AUX)
    Blend: AUG-CC-PVTZ-RI
    Molecular point group: c1

    Geometry (in Angstrom), charge = 0, multiplicity = 1:

       Center              X                  Y                   Z               Mass
    ------------   -----------------  -----------------  -----------------  -----------------
         S            1.744316132307    -1.181386872792    -0.000109308740    31.972071174400
         N           -1.206791867693    -1.109941872792     0.000084691260    14.003074004430
         N            1.418822132307     1.387638127208    -0.000056308740    14.003074004430
         C           -0.706326867693     0.142971127208     0.000040691260    12.000000000000
         C            0.638445532307     0.407481527208    -0.000025708740    12.000000000000
         C           -1.504322867693     1.295692127208     0.000058691260    12.000000000000
         C           -2.886541867693     1.137583127208     0.000129691260    12.000000000000
         C           -3.421566867693    -0.152704872792     0.000176691260    12.000000000000
         C           -2.543761867693    -1.237567872792     0.000150691260    12.000000000000
         C            3.133161132307    -0.178648872792    -0.000166308740    12.000000000000
         C            2.765310132307     1.148945127208    -0.000124308740    12.000000000000
         H           -1.029979867693     2.272289127208     0.000019691260     1.007825032230
         H           -3.538904867693     2.007467127208     0.000146691260     1.007825032230
         H           -4.495363867693    -0.317373872792     0.000231691260     1.007825032230
         H           -2.920220867693    -2.259024872792     0.000184691260     1.007825032230
         H            4.132112132307    -0.595506872792    -0.000223308740     1.007825032230
         H            3.455530132307     1.985709127208    -0.000145308740     1.007825032230

  Basis Set: AUG-CC-PVTZ
    Blend: AUG-CC-PVTZ
  Basis Set: (AUG-CC-PVTZ AUX)
    Blend: AUG-CC-PVTZ-JKFIT
	 Reference Energy          =    -812.9790207641063944 [Eh]
	 Singles Energy            =      -0.0000000000000000 [Eh]
	 Same-Spin Energy          =      -0.5267180482437794 [Eh]
	 Opposite-Spin Energy      =      -1.5561627180929887 [Eh]
	 Correlation Energy        =      -2.0828807663367681 [Eh]
	 Total Energy              =    -815.0619015304431514 [Eh]

	 ================> DF-SCS-MP2 Energies <==================
	-----------------------------------------------------------
	 SCS Same-Spin Scale       =       0.3333333333333333 [-]
	 SCS Opposite-Spin Scale   =       1.2000000000000000 [-]
	 SCS Same-Spin Energy      =      -0.1755726827479265 [Eh]
	 SCS Opposite-Spin Energy  =      -1.8673952617115863 [Eh]
	 SCS Correlation Energy    =      -2.0429679444595128 [Eh]
	 SCS Total Energy          =    -815.0219887085659138 [Eh]
	-----------------------------------------------------------

  Dipole Moment: [D]
     X:    -1.4979      Y:     0.8962      Z:     0.0000     Total:     1.7455

*** Psi4 exiting successfully. Buy a developer a beer!
