                               Psi4 1.3.2 release

  ==> Input File <==

--------------------------------------------------------------------------
#psi4
#
memory 32 gb

molecule  {
0 1
  S        1.7618360    -1.1877300    -0.0001100
  N       -1.1892720    -1.1162850     0.0000840
  N        1.4363420     1.3812950    -0.0000570
  C       -0.6888070     0.1366280     0.0000400
  C        0.8205267     0.3234086    -0.0000367
  C       -1.4868030     1.2893490     0.0000580
  C       -2.8690220     1.1312400     0.0001290
  C       -3.4040470    -0.1590480     0.0001760
  C       -2.5262420    -1.2439110     0.0001500
  C        3.1506810    -0.1849920    -0.0001670
  C        2.7828300     1.1426020    -0.0001250
  H       -1.0124600     2.2659460     0.0000190
  H       -3.5213850     2.0011240     0.0001460
  H       -4.4778440    -0.3237170     0.0002310
  H       -2.9027010    -2.2653680     0.0001840
  H        4.1496320    -0.6018500    -0.0002240
  H        3.4730500     1.9793660    -0.0001460
units angstrom
no_reorient  #important for SAPT in psi4, default
symmetry c1  #important for SAPT in psi4, default
}

set PROPERTIES_ORIGIN ["COM"]
properties('MP2/aug-cc-pvtz', properties = ['dipole'])
--------------------------------------------------------------------------

    Molecular point group: c1
  Charge       = 0
  Multiplicity = 1
  Basis Set: AUG-CC-PVTZ
    Blend: AUG-CC-PVTZ
  Basis Set: (AUG-CC-PVTZ AUX)
    Blend: AUG-CC-PVTZ-JKFIT

    Orbital Energies [Eh]
    ---------------------

    Doubly Occupied:

       1A    -91.986581     2A    -15.580293     3A    -15.569597
       4A    -11.310945     5A    -11.300250     6A    -11.286165
       7A    -11.269888     8A    -11.267310     9A    -11.266591
      10A    -11.251218    11A    -11.248780    12A     -8.986807
      13A     -6.667599    14A     -6.666892    15A     -6.666211
      16A     -1.315505    17A     -1.264751    18A     -1.095955
      19A     -1.071903    20A     -1.057933    21A     -0.984234
      22A     -0.872472    23A     -0.867281    24A     -0.801250
      25A     -0.761212    26A     -0.708607    27A     -0.681982
      28A     -0.667829    29A     -0.639958    30A     -0.597441
      31A     -0.589258    32A     -0.589052    33A     -0.557514
      34A     -0.540955    35A     -0.526475    36A     -0.500727
      37A     -0.445994    38A     -0.416622    39A     -0.405154
      40A     -0.393909    41A     -0.367324    42A     -0.312781

  @DF-RHF Final Energy:  -813.00339318144631

   => Energetics <=

    Nuclear Repulsion Energy =            626.9580238394307798
    One-Electron Energy =               -2357.2044299536464678
    Two-Electron Energy =                 917.2430129327693749
    Total Energy =                       -813.0033931814463131
  Basis Set: (AUG-CC-PVTZ AUX)
    Blend: AUG-CC-PVTZ-RI
    Molecular point group: c1

    Geometry (in Angstrom), charge = 0, multiplicity = 1:

       Center              X                  Y                   Z               Mass
    ------------   -----------------  -----------------  -----------------  -----------------
         S            1.732128299962    -1.175630004254    -0.000108545895    31.972071174400
         N           -1.218979700038    -1.104185004254     0.000085454105    14.003074004430
         N            1.406634299962     1.393394995746    -0.000055545895    14.003074004430
         C           -0.718514700038     0.148727995746     0.000041454105    12.000000000000
         C            0.790818999962     0.335508595746    -0.000035245895    12.000000000000
         C           -1.516510700038     1.301448995746     0.000059454105    12.000000000000
         C           -2.898729700038     1.143339995746     0.000130454105    12.000000000000
         C           -3.433754700038    -0.146948004254     0.000177454105    12.000000000000
         C           -2.555949700038    -1.231811004254     0.000151454105    12.000000000000
         C            3.120973299962    -0.172892004254    -0.000165545895    12.000000000000
         C            2.753122299962     1.154701995746    -0.000123545895    12.000000000000
         H           -1.042167700038     2.278045995746     0.000020454105     1.007825032230
         H           -3.551092700038     2.013223995746     0.000147454105     1.007825032230
         H           -4.507551700038    -0.311617004254     0.000232454105     1.007825032230
         H           -2.932408700038    -2.253268004254     0.000185454105     1.007825032230
         H            4.119924299962    -0.589750004254    -0.000222545895     1.007825032230
         H            3.443342299962     1.991465995746    -0.000144545895     1.007825032230

  Basis Set: AUG-CC-PVTZ
    Blend: AUG-CC-PVTZ
  Basis Set: (AUG-CC-PVTZ AUX)
    Blend: AUG-CC-PVTZ-JKFIT
	 Reference Energy          =    -813.0033931814463131 [Eh]
	 Singles Energy            =      -0.0000000000000000 [Eh]
	 Same-Spin Energy          =      -0.5225139314047629 [Eh]
	 Opposite-Spin Energy      =      -1.5499074410398879 [Eh]
	 Correlation Energy        =      -2.0724213724446505 [Eh]
	 Total Energy              =    -815.0758145538909503 [Eh]

	 ================> DF-SCS-MP2 Energies <==================
	-----------------------------------------------------------
	 SCS Same-Spin Scale       =       0.3333333333333333 [-]
	 SCS Opposite-Spin Scale   =       1.2000000000000000 [-]
	 SCS Same-Spin Energy      =      -0.1741713104682543 [Eh]
	 SCS Opposite-Spin Energy  =      -1.8598889292478653 [Eh]
	 SCS Correlation Energy    =      -2.0340602397161196 [Eh]
	 SCS Total Energy          =    -815.0374534211624677 [Eh]
	-----------------------------------------------------------

  Dipole Moment: [D]
     X:    -1.0229      Y:     0.4392      Z:     0.0000     Total:     1.1131

*** Psi4 exiting successfully. Buy a developer a beer!
