                               Psi4 1.4a3.dev225

  ==> Input File <==

--------------------------------------------------------------------------
#psi4
#
memory 32 gb

molecule  {
0 1
  S        1.7618360    -1.1877300    -0.0001100
  N       -1.1892720    -1.1162850     0.0000840
  N        1.4363420     1.3812950    -0.0000570
  C       -0.6888070     0.1366280     0.0000400
  C        0.7416548     0.2780233    -0.0000328
  C       -1.4868030     1.2893490     0.0000580
  C       -2.8690220     1.1312400     0.0001290
  C       -3.4040470    -0.1590480     0.0001760
  C       -2.5262420    -1.2439110     0.0001500
  C        3.1506810    -0.1849920    -0.0001670
  C        2.7828300     1.1426020    -0.0001250
  H       -1.0124600     2.2659460     0.0000190
  H       -3.5213850     2.0011240     0.0001460
  H       -4.4778440    -0.3237170     0.0002310
  H       -2.9027010    -2.2653680     0.0001840
  H        4.1496320    -0.6018500    -0.0002240
  H        3.4730500     1.9793660    -0.0001460
units angstrom
no_reorient  #important for SAPT in psi4, default
symmetry c1  #important for SAPT in psi4, default
}

set PROPERTIES_ORIGIN ["COM"]
properties('MP2/aug-cc-pvtz', properties = ['dipole'])
--------------------------------------------------------------------------

    Molecular point group: c1
  Charge       = 0
  Multiplicity = 1
  Basis Set: AUG-CC-PVTZ
    Blend: AUG-CC-PVTZ
  Basis Set: (AUG-CC-PVTZ AUX)
    Blend: AUG-CC-PVTZ-JKFIT

    Orbital Energies [Eh]
    ---------------------

    Doubly Occupied:

       1A    -91.991011     2A    -15.580644     3A    -15.575025
       4A    -11.314692     5A    -11.296767     6A    -11.286769
       7A    -11.269873     8A    -11.268320     9A    -11.266781
      10A    -11.252715    11A    -11.250916    12A     -8.990477
      13A     -6.671244    14A     -6.670623    15A     -6.670019
      16A     -1.290365    17A     -1.262189    18A     -1.097399
      19A     -1.073297    20A     -1.058589    21A     -0.984552
      22A     -0.880988    23A     -0.870756    24A     -0.792701
      25A     -0.767820    26A     -0.705911    27A     -0.681674
      28A     -0.669992    29A     -0.641807    30A     -0.599353
      31A     -0.589821    32A     -0.583105    33A     -0.555462
      34A     -0.535827    35A     -0.532225    36A     -0.499722
      37A     -0.442137    38A     -0.420126    39A     -0.402196
      40A     -0.393539    41A     -0.370645    42A     -0.305472

  @DF-RHF Final Energy:  -813.00780511557923

   => Energetics <=

    Nuclear Repulsion Energy =            626.7162536629449505
    One-Electron Energy =               -2356.7210284661073274
    Two-Electron Energy =                 916.9969696875832597
    Total Energy =                       -813.0078051155792309
  Basis Set: (AUG-CC-PVTZ AUX)
    Blend: AUG-CC-PVTZ-RI
    Molecular point group: c1

    Geometry (in Angstrom), charge = 0, multiplicity = 1:

       Center              X                  Y                   Z               Mass
    ------------   -----------------  -----------------  -----------------  -----------------
         S            1.737969755358    -1.172268652421    -0.000108834739    31.972071174400
         N           -1.213138244642    -1.100823652421     0.000085165261    14.003074004430
         N            1.412475755358     1.396756347579    -0.000055834739    14.003074004430
         C           -0.712673244642     0.152089347579     0.000041165261    12.000000000000
         C            0.717788555358     0.293484647579    -0.000031634739    12.000000000000
         C           -1.510669244642     1.304810347579     0.000059165261    12.000000000000
         C           -2.892888244642     1.146701347579     0.000130165261    12.000000000000
         C           -3.427913244642    -0.143586652421     0.000177165261    12.000000000000
         C           -2.550108244642    -1.228449652421     0.000151165261    12.000000000000
         C            3.126814755358    -0.169530652421    -0.000165834739    12.000000000000
         C            2.758963755358     1.158063347579    -0.000123834739    12.000000000000
         H           -1.036326244642     2.281407347579     0.000020165261     1.007825032230
         H           -3.545251244642     2.016585347579     0.000147165261     1.007825032230
         H           -4.501710244642    -0.308255652421     0.000232165261     1.007825032230
         H           -2.926567244642    -2.249906652421     0.000185165261     1.007825032230
         H            4.125765755358    -0.586388652421    -0.000222834739     1.007825032230
         H            3.449183755358     1.994827347579    -0.000144834739     1.007825032230

  Basis Set: AUG-CC-PVTZ
    Blend: AUG-CC-PVTZ
  Basis Set: (AUG-CC-PVTZ AUX)
    Blend: AUG-CC-PVTZ-JKFIT
	 Reference Energy          =    -813.0078051155792309 [Eh]
	 Singles Energy            =      -0.0000000000000000 [Eh]
	 Same-Spin Energy          =      -0.5252476561044860 [Eh]
	 Opposite-Spin Energy      =      -1.5536681119285540 [Eh]
	 Correlation Energy        =      -2.0789157680330401 [Eh]
	 Total Energy              =    -815.0867208836123154 [Eh]

	 ================> DF-SCS-MP2 Energies <==================
	-----------------------------------------------------------
	 SCS Same-Spin Scale       =       0.3333333333333333 [-]
	 SCS Opposite-Spin Scale   =       1.2000000000000000 [-]
	 SCS Same-Spin Energy      =      -0.1750825520348286 [Eh]
	 SCS Opposite-Spin Energy  =      -1.8644017343142647 [Eh]
	 SCS Correlation Energy    =      -2.0394842863490932 [Eh]
	 SCS Total Energy          =    -815.0472894019283103 [Eh]
	-----------------------------------------------------------

  Dipole Moment: [D]
     X:    -0.9430      Y:     0.3401      Z:     0.0000     Total:     1.0025

*** Psi4 exiting successfully. Buy a developer a beer!
