                               Psi4 1.3.2 release

  ==> Input File <==

--------------------------------------------------------------------------
#psi4
#
memory 32 gb

molecule  {
0 1
  S        1.7618360    -1.1877300    -0.0001100
  N       -1.1892720    -1.1162850     0.0000840
  N        1.4363420     1.3812950    -0.0000570
  C       -0.6888070     0.1366280     0.0000400
  C        0.8720166     0.3026862    -0.0000393
  C       -1.4868030     1.2893490     0.0000580
  C       -2.8690220     1.1312400     0.0001290
  C       -3.4040470    -0.1590480     0.0001760
  C       -2.5262420    -1.2439110     0.0001500
  C        3.1506810    -0.1849920    -0.0001670
  C        2.7828300     1.1426020    -0.0001250
  H       -1.0124600     2.2659460     0.0000190
  H       -3.5213850     2.0011240     0.0001460
  H       -4.4778440    -0.3237170     0.0002310
  H       -2.9027010    -2.2653680     0.0001840
  H        4.1496320    -0.6018500    -0.0002240
  H        3.4730500     1.9793660    -0.0001460
units angstrom
no_reorient  #important for SAPT in psi4, default
symmetry c1  #important for SAPT in psi4, default
}

set PROPERTIES_ORIGIN ["COM"]
properties('MP2/aug-cc-pvtz', properties = ['dipole'])
--------------------------------------------------------------------------

    Molecular point group: c1
  Charge       = 0
  Multiplicity = 1
  Basis Set: AUG-CC-PVTZ
    Blend: AUG-CC-PVTZ
  Basis Set: (AUG-CC-PVTZ AUX)
    Blend: AUG-CC-PVTZ-JKFIT

    Orbital Energies [Eh]
    ---------------------

    Doubly Occupied:

       1A    -91.989951     2A    -15.578262     3A    -15.567870
       4A    -11.309456     5A    -11.300264     6A    -11.284598
       7A    -11.270555     8A    -11.266078     9A    -11.265493
      10A    -11.249322    11A    -11.247042    12A     -8.990875
      13A     -6.671674    14A     -6.670987    15A     -6.670222
      16A     -1.321860    17A     -1.262784    18A     -1.094648
      19A     -1.076027    20A     -1.053871    21A     -0.986086
      22A     -0.867673    23A     -0.863573    24A     -0.802797
      25A     -0.757392    26A     -0.711036    27A     -0.680801
      28A     -0.665962    29A     -0.637293    30A     -0.591912
      31A     -0.590866    32A     -0.588301    33A     -0.558880
      34A     -0.541299    35A     -0.521026    36A     -0.503902
      37A     -0.450210    38A     -0.417916    39A     -0.404778
      40A     -0.392566    41A     -0.366244    42A     -0.316163

  @DF-RHF Final Energy:  -812.99735574100907

   => Energetics <=

    Nuclear Repulsion Energy =            627.2925810501379829
    One-Electron Energy =               -2357.8628422702245189
    Two-Electron Energy =                 917.5729054790775763
    Total Energy =                       -812.9973557410090734
  Basis Set: (AUG-CC-PVTZ AUX)
    Blend: AUG-CC-PVTZ-RI
    Molecular point group: c1

    Geometry (in Angstrom), charge = 0, multiplicity = 1:

       Center              X                  Y                   Z               Mass
    ------------   -----------------  -----------------  -----------------  -----------------
         S            1.728314825781    -1.174095250111    -0.000108353333    31.972071174400
         N           -1.222793174219    -1.102650250111     0.000085646667    14.003074004430
         N            1.402820825781     1.394929749889    -0.000055353333    14.003074004430
         C           -0.722328174219     0.150262749889     0.000041646667    12.000000000000
         C            0.838495425781     0.316320949889    -0.000037653333    12.000000000000
         C           -1.520324174219     1.302983749889     0.000059646667    12.000000000000
         C           -2.902543174219     1.144874749889     0.000130646667    12.000000000000
         C           -3.437568174219    -0.145413250111     0.000177646667    12.000000000000
         C           -2.559763174219    -1.230276250111     0.000151646667    12.000000000000
         C            3.117159825781    -0.171357250111    -0.000165353333    12.000000000000
         C            2.749308825781     1.156236749889    -0.000123353333    12.000000000000
         H           -1.045981174219     2.279580749889     0.000020646667     1.007825032230
         H           -3.554906174219     2.014758749889     0.000147646667     1.007825032230
         H           -4.511365174219    -0.310082250111     0.000232646667     1.007825032230
         H           -2.936222174219    -2.251733250111     0.000185646667     1.007825032230
         H            4.116110825781    -0.588215250111    -0.000222353333     1.007825032230
         H            3.439528825781     1.993000749889    -0.000144353333     1.007825032230

  Basis Set: AUG-CC-PVTZ
    Blend: AUG-CC-PVTZ
  Basis Set: (AUG-CC-PVTZ AUX)
    Blend: AUG-CC-PVTZ-JKFIT
	 Reference Energy          =    -812.9973557410090734 [Eh]
	 Singles Energy            =      -0.0000000000000000 [Eh]
	 Same-Spin Energy          =      -0.5221102969961182 [Eh]
	 Opposite-Spin Energy      =      -1.5493868087582332 [Eh]
	 Correlation Energy        =      -2.0714971057543514 [Eh]
	 Total Energy              =    -815.0688528467634342 [Eh]

	 ================> DF-SCS-MP2 Energies <==================
	-----------------------------------------------------------
	 SCS Same-Spin Scale       =       0.3333333333333333 [-]
	 SCS Opposite-Spin Scale   =       1.2000000000000000 [-]
	 SCS Same-Spin Energy      =      -0.1740367656653727 [Eh]
	 SCS Opposite-Spin Energy  =      -1.8592641705098798 [Eh]
	 SCS Correlation Energy    =      -2.0333009361752525 [Eh]
	 SCS Total Energy          =    -815.0306566771843109 [Eh]
	-----------------------------------------------------------

  Dipole Moment: [D]
     X:    -0.8788      Y:     0.3160      Z:    -0.0000     Total:     0.9339

*** Psi4 exiting successfully. Buy a developer a beer!
