                               Psi4 1.3.2 release

  ==> Input File <==

--------------------------------------------------------------------------
#psi4
#
memory 32 gb

molecule  {
0 1
  S        1.7618360    -1.1877300    -0.0001100
  N       -1.1892720    -1.1162850     0.0000840
  N        1.4363420     1.3812950    -0.0000570
  C       -0.6888070     0.1366280     0.0000400
  C        0.7702180     0.2369850    -0.0000350
  C       -1.4868030     1.2893490     0.0000580
  C       -2.8690220     1.1312400     0.0001290
  C       -3.4040470    -0.1590480     0.0001760
  C       -2.5262420    -1.2439110     0.0001500
  C        3.1506810    -0.1849920    -0.0001670
  C        2.7597163     1.1359799    -0.0001240
  H       -1.0124600     2.2659460     0.0000190
  H       -3.5213850     2.0011240     0.0001460
  H       -4.4778440    -0.3237170     0.0002310
  H       -2.9027010    -2.2653680     0.0001840
  H        4.1496320    -0.6018500    -0.0002240
  H        3.4730500     1.9793660    -0.0001460
units angstrom
no_reorient  #important for SAPT in psi4, default
symmetry c1  #important for SAPT in psi4, default
}

set PROPERTIES_ORIGIN ["COM"]
properties('MP2/aug-cc-pvtz', properties = ['dipole'])
--------------------------------------------------------------------------

    Molecular point group: c1
  Charge       = 0
  Multiplicity = 1
  Basis Set: AUG-CC-PVTZ
    Blend: AUG-CC-PVTZ
  Basis Set: (AUG-CC-PVTZ AUX)
    Blend: AUG-CC-PVTZ-JKFIT

    Orbital Energies [Eh]
    ---------------------

    Doubly Occupied:

       1A    -91.996176     2A    -15.578777     3A    -15.573562
       4A    -11.314005     5A    -11.297398     6A    -11.285523
       7A    -11.270038     8A    -11.267637     9A    -11.264123
      10A    -11.251332    11A    -11.249997    12A     -8.996149
      13A     -6.676893    14A     -6.676376    15A     -6.675721
      16A     -1.291869    17A     -1.262301    18A     -1.096627
      19A     -1.068489    20A     -1.064660    21A     -0.985725
      22A     -0.876570    23A     -0.869300    24A     -0.792298
      25A     -0.765126    26A     -0.708918    27A     -0.679071
      28A     -0.669221    29A     -0.639052    30A     -0.593244
      31A     -0.587644    32A     -0.583142    33A     -0.560046
      34A     -0.537424    35A     -0.529342    36A     -0.498702
      37A     -0.445202    38A     -0.425612    39A     -0.398652
      40A     -0.393695    41A     -0.372640    42A     -0.305730

  @DF-RHF Final Energy:  -813.00867932294875

   => Energetics <=

    Nuclear Repulsion Energy =            627.5030662721752606
    One-Electron Energy =               -2358.2754677167049522
    Two-Electron Energy =                 917.7637221215810541
    Total Energy =                       -813.0086793229487512
  Basis Set: (AUG-CC-PVTZ AUX)
    Blend: AUG-CC-PVTZ-RI
    Molecular point group: c1

    Geometry (in Angstrom), charge = 0, multiplicity = 1:

       Center              X                  Y                   Z               Mass
    ------------   -----------------  -----------------  -----------------  -----------------
         S            1.737566151398    -1.168738800842    -0.000108745864    31.972071174400
         N           -1.213541848602    -1.097293800842     0.000085254136    14.003074004430
         N            1.412072151398     1.400286199158    -0.000055745864    14.003074004430
         C           -0.713076848602     0.155619199158     0.000041254136    12.000000000000
         C            0.745948151398     0.255976199158    -0.000033745864    12.000000000000
         C           -1.511072848602     1.308340199158     0.000059254136    12.000000000000
         C           -2.893291848602     1.150231199158     0.000130254136    12.000000000000
         C           -3.428316848602    -0.140056800842     0.000177254136    12.000000000000
         C           -2.550511848602    -1.224919800842     0.000151254136    12.000000000000
         C            3.126411151398    -0.166000800842    -0.000165745864    12.000000000000
         C            2.735446451398     1.154971099158    -0.000122745864    12.000000000000
         H           -1.036729848602     2.284937199158     0.000020254136     1.007825032230
         H           -3.545654848602     2.020115199158     0.000147254136     1.007825032230
         H           -4.502113848602    -0.304725800842     0.000232254136     1.007825032230
         H           -2.926970848602    -2.246376800842     0.000185254136     1.007825032230
         H            4.125362151398    -0.582858800842    -0.000222745864     1.007825032230
         H            3.448780151398     1.998357199158    -0.000144745864     1.007825032230

  Basis Set: AUG-CC-PVTZ
    Blend: AUG-CC-PVTZ
  Basis Set: (AUG-CC-PVTZ AUX)
    Blend: AUG-CC-PVTZ-JKFIT
	 Reference Energy          =    -813.0086793229487512 [Eh]
	 Singles Energy            =      -0.0000000000000000 [Eh]
	 Same-Spin Energy          =      -0.5256868549540521 [Eh]
	 Opposite-Spin Energy      =      -1.5535971942612758 [Eh]
	 Correlation Energy        =      -2.0792840492153282 [Eh]
	 Total Energy              =    -815.0879633721640403 [Eh]

	 ================> DF-SCS-MP2 Energies <==================
	-----------------------------------------------------------
	 SCS Same-Spin Scale       =       0.3333333333333333 [-]
	 SCS Opposite-Spin Scale   =       1.2000000000000000 [-]
	 SCS Same-Spin Energy      =      -0.1752289516513507 [Eh]
	 SCS Opposite-Spin Energy  =      -1.8643166331135310 [Eh]
	 SCS Correlation Energy    =      -2.0395455847648818 [Eh]
	 SCS Total Energy          =    -815.0482249077136885 [Eh]
	-----------------------------------------------------------

  Dipole Moment: [D]
     X:    -0.7869      Y:     0.1752      Z:    -0.0000     Total:     0.8062

*** Psi4 exiting successfully. Buy a developer a beer!
