                               Psi4 1.3.2 release

  ==> Input File <==

--------------------------------------------------------------------------
#psi4
#
memory 32 gb

molecule  {
0 1
  S        1.8109538    -1.1522551    -0.0001120
  N       -1.1892720    -1.1162850     0.0000840
  N        1.4363420     1.3812950    -0.0000570
  C       -0.6888070     0.1366280     0.0000400
  C        0.7702180     0.2369850    -0.0000350
  C       -1.4868030     1.2893490     0.0000580
  C       -2.8690220     1.1312400     0.0001290
  C       -3.4040470    -0.1590480     0.0001760
  C       -2.5262420    -1.2439110     0.0001500
  C        3.1506810    -0.1849920    -0.0001670
  C        2.7828300     1.1426020    -0.0001250
  H       -1.0124600     2.2659460     0.0000190
  H       -3.5213850     2.0011240     0.0001460
  H       -4.4778440    -0.3237170     0.0002310
  H       -2.9027010    -2.2653680     0.0001840
  H        4.1496320    -0.6018500    -0.0002240
  H        3.4730500     1.9793660    -0.0001460
units angstrom
no_reorient  #important for SAPT in psi4, default
symmetry c1  #important for SAPT in psi4, default
}

set PROPERTIES_ORIGIN ["COM"]
properties('MP2/aug-cc-pvtz', properties = ['dipole'])
--------------------------------------------------------------------------

    Molecular point group: c1
  Charge       = 0
  Multiplicity = 1
  Basis Set: AUG-CC-PVTZ
    Blend: AUG-CC-PVTZ
  Basis Set: (AUG-CC-PVTZ AUX)
    Blend: AUG-CC-PVTZ-JKFIT

    Orbital Energies [Eh]
    ---------------------

    Doubly Occupied:

       1A    -91.994212     2A    -15.577944     3A    -15.574763
       4A    -11.311419     5A    -11.297763     6A    -11.284823
       7A    -11.268607     8A    -11.267123     9A    -11.261475
      10A    -11.250542    11A    -11.249380    12A     -8.995756
      13A     -6.676644    14A     -6.676035    15A     -6.675316
      16A     -1.289391    17A     -1.260867    18A     -1.096205
      19A     -1.078674    20A     -1.064188    21A     -0.985121
      22A     -0.876571    23A     -0.868927    24A     -0.789016
      25A     -0.768758    26A     -0.710763    27A     -0.680477
      28A     -0.668779    29A     -0.640317    30A     -0.594455
      31A     -0.586713    32A     -0.583163    33A     -0.561205
      34A     -0.538079    35A     -0.530758    36A     -0.503756
      37A     -0.443560    38A     -0.424315    39A     -0.403123
      40A     -0.392954    41A     -0.369990    42A     -0.305274

  @DF-RHF Final Energy:  -813.00770088545448

   => Energetics <=

    Nuclear Repulsion Energy =            627.9757736009456721
    One-Electron Energy =               -2359.2125407151161198
    Two-Electron Energy =                 918.2290662287160785
    Total Energy =                       -813.0077008854544829
  Basis Set: (AUG-CC-PVTZ AUX)
    Blend: AUG-CC-PVTZ-RI
    Molecular point group: c1

    Geometry (in Angstrom), charge = 0, multiplicity = 1:

       Center              X                  Y                   Z               Mass
    ------------   -----------------  -----------------  -----------------  -----------------
         S            1.775279783733    -1.140754534750    -0.000110277146    31.972071174400
         N           -1.224946016267    -1.104784434750     0.000085722854    14.003074004430
         N            1.400667983733     1.392795565250    -0.000055277146    14.003074004430
         C           -0.724481016267     0.148128565250     0.000041722854    12.000000000000
         C            0.734543983733     0.248485565250    -0.000033277146    12.000000000000
         C           -1.522477016267     1.300849565250     0.000059722854    12.000000000000
         C           -2.904696016267     1.142740565250     0.000130722854    12.000000000000
         C           -3.439721016267    -0.147547434750     0.000177722854    12.000000000000
         C           -2.561916016267    -1.232410434750     0.000151722854    12.000000000000
         C            3.115006983733    -0.173491434750    -0.000165277146    12.000000000000
         C            2.747155983733     1.154102565250    -0.000123277146    12.000000000000
         H           -1.048134016267     2.277446565250     0.000020722854     1.007825032230
         H           -3.557059016267     2.012624565250     0.000147722854     1.007825032230
         H           -4.513518016267    -0.312216434750     0.000232722854     1.007825032230
         H           -2.938375016267    -2.253867434750     0.000185722854     1.007825032230
         H            4.113957983733    -0.590349434750    -0.000222277146     1.007825032230
         H            3.437375983733     1.990866565250    -0.000144277146     1.007825032230

  Basis Set: AUG-CC-PVTZ
    Blend: AUG-CC-PVTZ
  Basis Set: (AUG-CC-PVTZ AUX)
    Blend: AUG-CC-PVTZ-JKFIT
	 Reference Energy          =    -813.0077008854544829 [Eh]
	 Singles Energy            =      -0.0000000000000000 [Eh]
	 Same-Spin Energy          =      -0.5259290601035882 [Eh]
	 Opposite-Spin Energy      =      -1.5531245273534346 [Eh]
	 Correlation Energy        =      -2.0790535874570226 [Eh]
	 Total Energy              =    -815.0867544729114798 [Eh]

	 ================> DF-SCS-MP2 Energies <==================
	-----------------------------------------------------------
	 SCS Same-Spin Scale       =       0.3333333333333333 [-]
	 SCS Opposite-Spin Scale   =       1.2000000000000000 [-]
	 SCS Same-Spin Energy      =      -0.1753096867011961 [Eh]
	 SCS Opposite-Spin Energy  =      -1.8637494328241215 [Eh]
	 SCS Correlation Energy    =      -2.0390591195253176 [Eh]
	 SCS Total Energy          =    -815.0467600049797738 [Eh]
	-----------------------------------------------------------

  Dipole Moment: [D]
     X:    -0.7056      Y:     0.1749      Z:    -0.0000     Total:     0.7269

*** Psi4 exiting successfully. Buy a developer a beer!
