                               Psi4 1.3.2 release

  ==> Input File <==

--------------------------------------------------------------------------
#psi4
#
memory 32 gb

molecule  {
0 1
  S        1.7618360    -1.1877300    -0.0001100
  N       -1.1892720    -1.1162850     0.0000840
  N        1.4363420     1.3812950    -0.0000570
  C       -0.6888070     0.1366280     0.0000400
  C        0.7702180     0.2369850    -0.0000350
  C       -1.4868030     1.2893490     0.0000580
  C       -2.8690220     1.1312400     0.0001290
  C       -3.4040470    -0.1590480     0.0001760
  C       -2.5262420    -1.2439110     0.0001500
  C        3.1506810    -0.1849920    -0.0001670
  C        2.6460738     1.0968784    -0.0001190
  H       -1.0124600     2.2659460     0.0000190
  H       -3.5213850     2.0011240     0.0001460
  H       -4.4778440    -0.3237170     0.0002310
  H       -2.9027010    -2.2653680     0.0001840
  H        4.1496320    -0.6018500    -0.0002240
  H        3.4730500     1.9793660    -0.0001460
units angstrom
no_reorient  #important for SAPT in psi4, default
symmetry c1  #important for SAPT in psi4, default
}

set PROPERTIES_ORIGIN ["COM"]
properties('MP2/aug-cc-pvtz', properties = ['dipole'])
--------------------------------------------------------------------------

    Molecular point group: c1
  Charge       = 0
  Multiplicity = 1
  Basis Set: AUG-CC-PVTZ
    Blend: AUG-CC-PVTZ
  Basis Set: (AUG-CC-PVTZ AUX)
    Blend: AUG-CC-PVTZ-JKFIT

    Orbital Energies [Eh]
    ---------------------

    Doubly Occupied:

       1A    -91.999635     2A    -15.578300     3A    -15.569621
       4A    -11.315870     5A    -11.297582     6A    -11.285925
       7A    -11.270887     8A    -11.268175     9A    -11.260912
      10A    -11.251296    11A    -11.250474    12A     -8.999312
      13A     -6.679918    14A     -6.679576    15A     -6.678963
      16A     -1.325450    17A     -1.267221    18A     -1.097590
      19A     -1.078020    20A     -1.069140    21A     -0.982362
      22A     -0.875857    23A     -0.868934    24A     -0.802795
      25A     -0.758267    26A     -0.719425    27A     -0.677718
      28A     -0.669593    29A     -0.635931    30A     -0.595799
      31A     -0.593378    32A     -0.587057    33A     -0.564316
      34A     -0.544300    35A     -0.529450    36A     -0.479510
      37A     -0.443655    38A     -0.428170    39A     -0.402794
      40A     -0.398003    41A     -0.376708    42A     -0.299598

  @DF-RHF Final Energy:  -812.98017070879348

   => Energetics <=

    Nuclear Repulsion Energy =            630.4301970467213323
    One-Electron Energy =               -2363.9057616200170742
    Two-Electron Energy =                 920.4953938645022617
    Total Energy =                       -812.9801707087934801
  Basis Set: (AUG-CC-PVTZ AUX)
    Blend: AUG-CC-PVTZ-RI
    Molecular point group: c1

    Geometry (in Angstrom), charge = 0, multiplicity = 1:

       Center              X                  Y                   Z               Mass
    ------------   -----------------  -----------------  -----------------  -----------------
         S            1.745982806695    -1.165842843369    -0.000109116177    31.972071174400
         N           -1.205125193305    -1.094397843369     0.000084883823    14.003074004430
         N            1.420488806695     1.403182156631    -0.000056116177    14.003074004430
         C           -0.704660193305     0.158515156631     0.000040883823    12.000000000000
         C            0.754364806695     0.258872156631    -0.000034116177    12.000000000000
         C           -1.502656193305     1.311236156631     0.000058883823    12.000000000000
         C           -2.884875193305     1.153127156631     0.000129883823    12.000000000000
         C           -3.419900193305    -0.137160843369     0.000176883823    12.000000000000
         C           -2.542095193305    -1.222023843369     0.000150883823    12.000000000000
         C            3.134827806695    -0.163104843369    -0.000166116177    12.000000000000
         C            2.630220606695     1.118765556631    -0.000118116177    12.000000000000
         H           -1.028313193305     2.287833156631     0.000019883823     1.007825032230
         H           -3.537238193305     2.023011156631     0.000146883823     1.007825032230
         H           -4.493697193305    -0.301829843369     0.000231883823     1.007825032230
         H           -2.918554193305    -2.243480843369     0.000184883823     1.007825032230
         H            4.133778806695    -0.579962843369    -0.000223116177     1.007825032230
         H            3.457196806695     2.001253156631    -0.000145116177     1.007825032230

  Basis Set: AUG-CC-PVTZ
    Blend: AUG-CC-PVTZ
  Basis Set: (AUG-CC-PVTZ AUX)
    Blend: AUG-CC-PVTZ-JKFIT
	 Reference Energy          =    -812.9801707087934801 [Eh]
	 Singles Energy            =      -0.0000000000000000 [Eh]
	 Same-Spin Energy          =      -0.5276907686571850 [Eh]
	 Opposite-Spin Energy      =      -1.5547161715992996 [Eh]
	 Correlation Energy        =      -2.0824069402564849 [Eh]
	 Total Energy              =    -815.0625776490500130 [Eh]

	 ================> DF-SCS-MP2 Energies <==================
	-----------------------------------------------------------
	 SCS Same-Spin Scale       =       0.3333333333333333 [-]
	 SCS Opposite-Spin Scale   =       1.2000000000000000 [-]
	 SCS Same-Spin Energy      =      -0.1758969228857283 [Eh]
	 SCS Opposite-Spin Energy  =      -1.8656594059191596 [Eh]
	 SCS Correlation Energy    =      -2.0415563288048881 [Eh]
	 SCS Total Energy          =    -815.0217270375983389 [Eh]
	-----------------------------------------------------------

  Dipole Moment: [D]
     X:    -0.7938      Y:     0.0331      Z:    -0.0000     Total:     0.7945

*** Psi4 exiting successfully. Buy a developer a beer!
