                               Psi4 1.4a3.dev225

  ==> Input File <==

--------------------------------------------------------------------------
#psi4
#
memory 32 gb

molecule  {
0 1
  S        1.7618360    -1.1877300    -0.0001100
  N       -1.1892720    -1.1162850     0.0000840
  N        1.4363420     1.3812950    -0.0000570
  C       -0.6888070     0.1366280     0.0000400
  C        0.7987812     0.1959467    -0.0000372
  C       -1.4868030     1.2893490     0.0000580
  C       -2.8690220     1.1312400     0.0001290
  C       -3.4040470    -0.1590480     0.0001760
  C       -2.5262420    -1.2439110     0.0001500
  C        3.1506810    -0.1849920    -0.0001670
  C        2.7828300     1.1426020    -0.0001250
  H       -1.0124600     2.2659460     0.0000190
  H       -3.5213850     2.0011240     0.0001460
  H       -4.4778440    -0.3237170     0.0002310
  H       -2.9027010    -2.2653680     0.0001840
  H        4.1496320    -0.6018500    -0.0002240
  H        3.4730500     1.9793660    -0.0001460
units angstrom
no_reorient  #important for SAPT in psi4, default
symmetry c1  #important for SAPT in psi4, default
}

set PROPERTIES_ORIGIN ["COM"]
properties('MP2/aug-cc-pvtz', properties = ['dipole'])
--------------------------------------------------------------------------

    Molecular point group: c1
  Charge       = 0
  Multiplicity = 1
  Basis Set: AUG-CC-PVTZ
    Blend: AUG-CC-PVTZ
  Basis Set: (AUG-CC-PVTZ AUX)
    Blend: AUG-CC-PVTZ-JKFIT

    Orbital Energies [Eh]
    ---------------------

    Doubly Occupied:

       1A    -91.999741     2A    -15.577341     3A    -15.573746
       4A    -11.313079     5A    -11.298439     6A    -11.284345
       7A    -11.270446     8A    -11.266987     9A    -11.263095
      10A    -11.250206    11A    -11.249237    12A     -9.000565
      13A     -6.681378    14A     -6.680806    15A     -6.680109
      16A     -1.284967    17A     -1.258533    18A     -1.095999
      19A     -1.067962    20A     -1.063277    21A     -0.987957
      22A     -0.873262    23A     -0.867897    24A     -0.788840
      25A     -0.765750    26A     -0.708403    27A     -0.678572
      28A     -0.667994    29A     -0.637810    30A     -0.591210
      31A     -0.582533    32A     -0.580487    33A     -0.561697
      34A     -0.536418    35A     -0.525336    36A     -0.506065
      37A     -0.446798    38A     -0.427253    39A     -0.396422
      40A     -0.391044    41A     -0.372354    42A     -0.308479

  @DF-RHF Final Energy:  -813.00625491299331

   => Energetics <=

    Nuclear Repulsion Energy =            627.2249792051310351
    One-Electron Energy =               -2357.7367904245102181
    Two-Electron Energy =                 917.5055563063857562
    Total Energy =                       -813.0062549129933132
  Basis Set: (AUG-CC-PVTZ AUX)
    Blend: AUG-CC-PVTZ-RI
    Molecular point group: c1

    Geometry (in Angstrom), charge = 0, multiplicity = 1:

       Center              X                  Y                   Z               Mass
    ------------   -----------------  -----------------  -----------------  -----------------
         S            1.733738827518    -1.166189848716    -0.000108508864    31.972071174400
         N           -1.217369172482    -1.094744848716     0.000085491136    14.003074004430
         N            1.408244827518     1.402835151284    -0.000055508864    14.003074004430
         C           -0.716904172482     0.158168151284     0.000041491136    12.000000000000
         C            0.770684027518     0.217486851284    -0.000035708864    12.000000000000
         C           -1.514900172482     1.310889151284     0.000059491136    12.000000000000
         C           -2.897119172482     1.152780151284     0.000130491136    12.000000000000
         C           -3.432144172482    -0.137507848716     0.000177491136    12.000000000000
         C           -2.554339172482    -1.222370848716     0.000151491136    12.000000000000
         C            3.122583827518    -0.163451848716    -0.000165508864    12.000000000000
         C            2.754732827518     1.164142151284    -0.000123508864    12.000000000000
         H           -1.040557172482     2.287486151284     0.000020491136     1.007825032230
         H           -3.549482172482     2.022664151284     0.000147491136     1.007825032230
         H           -4.505941172482    -0.302176848716     0.000232491136     1.007825032230
         H           -2.930798172482    -2.243827848716     0.000185491136     1.007825032230
         H            4.121534827518    -0.580309848716    -0.000222508864     1.007825032230
         H            3.444952827518     2.000906151284    -0.000144508864     1.007825032230

  Basis Set: AUG-CC-PVTZ
    Blend: AUG-CC-PVTZ
  Basis Set: (AUG-CC-PVTZ AUX)
    Blend: AUG-CC-PVTZ-JKFIT
	 Reference Energy          =    -813.0062549129933132 [Eh]
	 Singles Energy            =      -0.0000000000000000 [Eh]
	 Same-Spin Energy          =      -0.5257073281616695 [Eh]
	 Opposite-Spin Energy      =      -1.5539975830434329 [Eh]
	 Correlation Energy        =      -2.0797049112051025 [Eh]
	 Total Energy              =    -815.0859598241984258 [Eh]

	 ================> DF-SCS-MP2 Energies <==================
	-----------------------------------------------------------
	 SCS Same-Spin Scale       =       0.3333333333333333 [-]
	 SCS Opposite-Spin Scale   =       1.2000000000000000 [-]
	 SCS Same-Spin Energy      =      -0.1752357760538898 [Eh]
	 SCS Opposite-Spin Energy  =      -1.8647970996521195 [Eh]
	 SCS Correlation Energy    =      -2.0400328757060091 [Eh]
	 SCS Total Energy          =    -815.0462877886993738 [Eh]
	-----------------------------------------------------------

  Dipole Moment: [D]
     X:    -0.6791      Y:     0.0682      Z:    -0.0000     Total:     0.6825

*** Psi4 exiting successfully. Buy a developer a beer!
