                               Psi4 1.4a3.dev225

  ==> Input File <==

--------------------------------------------------------------------------
#psi4
#
memory 32 gb

molecule  {
0 1
  S        1.7618360    -1.1877300    -0.0001100
  N       -1.1892720    -1.1162850     0.0000840
  N        1.4363420     1.3812950    -0.0000570
  C       -0.6888070     0.1366280     0.0000400
  C        0.7901709     0.2383574    -0.0000360
  C       -1.4868030     1.2893490     0.0000580
  C       -2.8690220     1.1312400     0.0001290
  C       -3.4040470    -0.1590480     0.0001760
  C       -2.5262420    -1.2439110     0.0001500
  C        3.1506810    -0.1849920    -0.0001670
  C        2.7828300     1.1426020    -0.0001250
  H       -1.0124600     2.2659460     0.0000190
  H       -3.5213850     2.0011240     0.0001460
  H       -4.4778440    -0.3237170     0.0002310
  H       -2.9027010    -2.2653680     0.0001840
  H        4.1496320    -0.6018500    -0.0002240
  H        3.4730500     1.9793660    -0.0001460
units angstrom
no_reorient  #important for SAPT in psi4, default
symmetry c1  #important for SAPT in psi4, default
}

set PROPERTIES_ORIGIN ["COM"]
properties('MP2/aug-cc-pvtz', properties = ['dipole'])
--------------------------------------------------------------------------

    Molecular point group: c1
  Charge       = 0
  Multiplicity = 1
  Basis Set: AUG-CC-PVTZ
    Blend: AUG-CC-PVTZ
  Basis Set: (AUG-CC-PVTZ AUX)
    Blend: AUG-CC-PVTZ-JKFIT

    Orbital Energies [Eh]
    ---------------------

    Doubly Occupied:

       1A    -91.995661     2A    -15.578596     3A    -15.573412
       4A    -11.313157     5A    -11.298298     6A    -11.285194
       7A    -11.270115     8A    -11.267290     9A    -11.264664
      10A    -11.250903    11A    -11.249433    12A     -8.995969
      13A     -6.676747    14A     -6.676182    15A     -6.675493
      16A     -1.290114    17A     -1.261249    18A     -1.096152
      19A     -1.067418    20A     -1.062967    21A     -0.986899
      22A     -0.874574    23A     -0.868491    24A     -0.792048
      25A     -0.765378    26A     -0.707887    27A     -0.679831
      28A     -0.668377    29A     -0.638908    30A     -0.592457
      31A     -0.587215    32A     -0.581881    33A     -0.559334
      34A     -0.537018    35A     -0.527280    36A     -0.503719
      37A     -0.445943    38A     -0.424825    39A     -0.398002
      40A     -0.393126    41A     -0.370990    42A     -0.308886

  @DF-RHF Final Energy:  -813.01016461932943

   => Energetics <=

    Nuclear Repulsion Energy =            627.0340704473122742
    One-Electron Energy =               -2357.3643088706294293
    Two-Electron Energy =                 917.3200738039876114
    Total Energy =                       -813.0101646193294300
  Basis Set: (AUG-CC-PVTZ AUX)
    Blend: AUG-CC-PVTZ-RI
    Molecular point group: c1

    Geometry (in Angstrom), charge = 0, multiplicity = 1:

       Center              X                  Y                   Z               Mass
    ------------   -----------------  -----------------  -----------------  -----------------
         S            1.734376528440    -1.169330894036    -0.000108597739    31.972071174400
         N           -1.216731471560    -1.097885894036     0.000085402261    14.003074004430
         N            1.408882528440     1.399694105964    -0.000055597739    14.003074004430
         C           -0.716266471560     0.155027105964     0.000041402261    12.000000000000
         C            0.762711428440     0.256756505964    -0.000034597739    12.000000000000
         C           -1.514262471560     1.307748105964     0.000059402261    12.000000000000
         C           -2.896481471560     1.149639105964     0.000130402261    12.000000000000
         C           -3.431506471560    -0.140648894036     0.000177402261    12.000000000000
         C           -2.553701471560    -1.225511894036     0.000151402261    12.000000000000
         C            3.123221528440    -0.166592894036    -0.000165597739    12.000000000000
         C            2.755370528440     1.161001105964    -0.000123597739    12.000000000000
         H           -1.039919471560     2.284345105964     0.000020402261     1.007825032230
         H           -3.548844471560     2.019523105964     0.000147402261     1.007825032230
         H           -4.505303471560    -0.305317894036     0.000232402261     1.007825032230
         H           -2.930160471560    -2.246968894036     0.000185402261     1.007825032230
         H            4.122172528440    -0.583450894036    -0.000222597739     1.007825032230
         H            3.445590528440     1.997765105964    -0.000144597739     1.007825032230

  Basis Set: AUG-CC-PVTZ
    Blend: AUG-CC-PVTZ
  Basis Set: (AUG-CC-PVTZ AUX)
    Blend: AUG-CC-PVTZ-JKFIT
	 Reference Energy          =    -813.0101646193294300 [Eh]
	 Singles Energy            =      -0.0000000000000000 [Eh]
	 Same-Spin Energy          =      -0.5248624025106590 [Eh]
	 Opposite-Spin Energy      =      -1.5529131188413436 [Eh]
	 Correlation Energy        =      -2.0777755213520024 [Eh]
	 Total Energy              =    -815.0879401406814395 [Eh]

	 ================> DF-SCS-MP2 Energies <==================
	-----------------------------------------------------------
	 SCS Same-Spin Scale       =       0.3333333333333333 [-]
	 SCS Opposite-Spin Scale   =       1.2000000000000000 [-]
	 SCS Same-Spin Energy      =      -0.1749541341702197 [Eh]
	 SCS Opposite-Spin Energy  =      -1.8634957426096124 [Eh]
	 SCS Correlation Energy    =      -2.0384498767798318 [Eh]
	 SCS Total Energy          =    -815.0486144961092805 [Eh]
	-----------------------------------------------------------

  Dipole Moment: [D]
     X:    -0.7938      Y:     0.1804      Z:    -0.0000     Total:     0.8140

*** Psi4 exiting successfully. Buy a developer a beer!
