                               Psi4 1.3.2 release

  ==> Input File <==

--------------------------------------------------------------------------
#psi4
#
memory 32 gb

molecule  {
0 1
  S        1.7618360    -1.1877300    -0.0001100
  N       -1.1892720    -1.1162850     0.0000840
  N        1.4363420     1.3812950    -0.0000570
  C       -0.6888070     0.1366280     0.0000400
  C        0.7702180     0.2369850    -0.0000350
  C       -1.4868030     1.2893490     0.0000580
  C       -2.8690220     1.1312400     0.0001290
  C       -3.4040470    -0.1590480     0.0001760
  C       -2.5262420    -1.2439110     0.0001500
  C        3.1506810    -0.1849920    -0.0001670
  C        2.8293864     1.1546311    -0.0001271
  H       -1.0124600     2.2659460     0.0000190
  H       -3.5213850     2.0011240     0.0001460
  H       -4.4778440    -0.3237170     0.0002310
  H       -2.9027010    -2.2653680     0.0001840
  H        4.1496320    -0.6018500    -0.0002240
  H        3.4730500     1.9793660    -0.0001460
units angstrom
no_reorient  #important for SAPT in psi4, default
symmetry c1  #important for SAPT in psi4, default
}

set PROPERTIES_ORIGIN ["COM"]
properties('MP2/aug-cc-pvtz', properties = ['dipole'])
--------------------------------------------------------------------------

    Molecular point group: c1
  Charge       = 0
  Multiplicity = 1
  Basis Set: AUG-CC-PVTZ
    Blend: AUG-CC-PVTZ
  Basis Set: (AUG-CC-PVTZ AUX)
    Blend: AUG-CC-PVTZ-JKFIT

    Orbital Energies [Eh]
    ---------------------

    Doubly Occupied:

       1A    -91.994957     2A    -15.579236     3A    -15.575765
       4A    -11.313476     5A    -11.297539     6A    -11.285478
       7A    -11.270591     8A    -11.267510     9A    -11.267252
      10A    -11.251518    11A    -11.249929    12A     -8.995084
      13A     -6.675895    14A     -6.675284    15A     -6.674598
      16A     -1.281523    17A     -1.254824    18A     -1.096475
      19A     -1.068478    20A     -1.057998    21A     -0.988099
      22A     -0.878036    23A     -0.869155    24A     -0.789376
      25A     -0.769100    26A     -0.704252    27A     -0.682489
      28A     -0.668390    29A     -0.640424    30A     -0.595018
      31A     -0.587841    32A     -0.578767    33A     -0.554876
      34A     -0.533309    35A     -0.529358    36A     -0.510579
      37A     -0.442278    38A     -0.422299    39A     -0.399393
      40A     -0.390851    41A     -0.368977    42A     -0.309851

  @DF-RHF Final Energy:  -813.00649650304854

   => Energetics <=

    Nuclear Repulsion Energy =            625.8950357067338928
    One-Electron Energy =               -2355.1108082731889226
    Two-Electron Energy =                 916.2092760634066053
    Total Energy =                       -813.0064965030485382
  Basis Set: (AUG-CC-PVTZ AUX)
    Blend: AUG-CC-PVTZ-RI
    Molecular point group: c1

    Geometry (in Angstrom), charge = 0, multiplicity = 1:

       Center              X                  Y                   Z               Mass
    ------------   -----------------  -----------------  -----------------  -----------------
         S            1.732406204933    -1.170120156596    -0.000108516270    31.972071174400
         N           -1.218701795067    -1.098675156596     0.000085483730    14.003074004430
         N            1.406912204933     1.398904843404    -0.000055516270    14.003074004430
         C           -0.718236795067     0.154237843404     0.000041483730    12.000000000000
         C            0.740788204933     0.254594843404    -0.000033516270    12.000000000000
         C           -1.516232795067     1.306958843404     0.000059483730    12.000000000000
         C           -2.898451795067     1.148849843404     0.000130483730    12.000000000000
         C           -3.433476795067    -0.141438156596     0.000177483730    12.000000000000
         C           -2.555671795067    -1.226301156596     0.000151483730    12.000000000000
         C            3.121251204933    -0.167382156596    -0.000165516270    12.000000000000
         C            2.799956604933     1.172240943404    -0.000125616270    12.000000000000
         H           -1.041889795067     2.283555843404     0.000020483730     1.007825032230
         H           -3.550814795067     2.018733843404     0.000147483730     1.007825032230
         H           -4.507273795067    -0.306107156596     0.000232483730     1.007825032230
         H           -2.932130795067    -2.247758156596     0.000185483730     1.007825032230
         H            4.120202204933    -0.584240156596    -0.000222516270     1.007825032230
         H            3.443620204933     1.996975843404    -0.000144516270     1.007825032230

  Basis Set: AUG-CC-PVTZ
    Blend: AUG-CC-PVTZ
  Basis Set: (AUG-CC-PVTZ AUX)
    Blend: AUG-CC-PVTZ-JKFIT
	 Reference Energy          =    -813.0064965030485382 [Eh]
	 Singles Energy            =      -0.0000000000000000 [Eh]
	 Same-Spin Energy          =      -0.5247430544244921 [Eh]
	 Opposite-Spin Energy      =      -1.5539734183537852 [Eh]
	 Correlation Energy        =      -2.0787164727782774 [Eh]
	 Total Energy              =    -815.0852129758268347 [Eh]

	 ================> DF-SCS-MP2 Energies <==================
	-----------------------------------------------------------
	 SCS Same-Spin Scale       =       0.3333333333333333 [-]
	 SCS Opposite-Spin Scale   =       1.2000000000000000 [-]
	 SCS Same-Spin Energy      =      -0.1749143514748307 [Eh]
	 SCS Opposite-Spin Energy  =      -1.8647681020245421 [Eh]
	 SCS Correlation Energy    =      -2.0396824534993727 [Eh]
	 SCS Total Energy          =    -815.0461789565479194 [Eh]
	-----------------------------------------------------------

  Dipole Moment: [D]
     X:    -0.8327      Y:     0.2278      Z:    -0.0000     Total:     0.8633

*** Psi4 exiting successfully. Buy a developer a beer!
