                               Psi4 1.3.2 release

  ==> Input File <==

--------------------------------------------------------------------------
#psi4
#
memory 32 gb

molecule  {
0 1
  S        1.7618360    -1.1877300    -0.0001100
  N       -1.1892720    -1.1162850     0.0000840
  N        1.4454925     1.4281413    -0.0000568
  C       -0.6888070     0.1366280     0.0000400
  C        0.7702180     0.2369850    -0.0000350
  C       -1.4868030     1.2893490     0.0000580
  C       -2.8690220     1.1312400     0.0001290
  C       -3.4040470    -0.1590480     0.0001760
  C       -2.5262420    -1.2439110     0.0001500
  C        3.1506810    -0.1849920    -0.0001670
  C        2.7828300     1.1426020    -0.0001250
  H       -1.0124600     2.2659460     0.0000190
  H       -3.5213850     2.0011240     0.0001460
  H       -4.4778440    -0.3237170     0.0002310
  H       -2.9027010    -2.2653680     0.0001840
  H        4.1496320    -0.6018500    -0.0002240
  H        3.4730500     1.9793660    -0.0001460
units angstrom
no_reorient  #important for SAPT in psi4, default
symmetry c1  #important for SAPT in psi4, default
}

set PROPERTIES_ORIGIN ["COM"]
properties('MP2/aug-cc-pvtz', properties = ['dipole'])
--------------------------------------------------------------------------

    Molecular point group: c1
  Charge       = 0
  Multiplicity = 1
  Basis Set: AUG-CC-PVTZ
    Blend: AUG-CC-PVTZ
  Basis Set: (AUG-CC-PVTZ AUX)
    Blend: AUG-CC-PVTZ-JKFIT

    Orbital Energies [Eh]
    ---------------------

    Doubly Occupied:

       1A    -92.000279     2A    -15.579948     3A    -15.579280
       4A    -11.319560     5A    -11.298116     6A    -11.285881
       7A    -11.270164     8A    -11.267816     9A    -11.264050
      10A    -11.251745    11A    -11.250337    12A     -8.999902
      13A     -6.680655    14A     -6.680089    15A     -6.679480
      16A     -1.280892    17A     -1.255694    18A     -1.096933
      19A     -1.067309    20A     -1.064304    21A     -0.983595
      22A     -0.876992    23A     -0.869379    24A     -0.786548
      25A     -0.766881    26A     -0.708000    27A     -0.679137
      28A     -0.669485    29A     -0.638190    30A     -0.592413
      31A     -0.582426    32A     -0.578237    33A     -0.557869
      34A     -0.534430    35A     -0.528763    36A     -0.503738
      37A     -0.448279    38A     -0.427907    39A     -0.398214
      40A     -0.391926    41A     -0.373220    42A     -0.304160

  @DF-RHF Final Energy:  -813.00304383624382

   => Energetics <=

    Nuclear Repulsion Energy =            625.6252090926526535
    One-Electron Energy =               -2354.5120560079062670
    Two-Electron Energy =                 915.8838030790096809
    Total Energy =                       -813.0030438362438190
  Basis Set: (AUG-CC-PVTZ AUX)
    Blend: AUG-CC-PVTZ-RI
    Molecular point group: c1

    Geometry (in Angstrom), charge = 0, multiplicity = 1:

       Center              X                  Y                   Z               Mass
    ------------   -----------------  -----------------  -----------------  -----------------
         S            1.735063456723    -1.173277956138    -0.000108689087    31.972071174400
         N           -1.216044543277    -1.101832956138     0.000085310913    14.003074004430
         N            1.418719956723     1.442593343862    -0.000055489087    14.003074004430
         C           -0.715579543277     0.151080043862     0.000041310913    12.000000000000
         C            0.743445456723     0.251437043862    -0.000033689087    12.000000000000
         C           -1.513575543277     1.303801043862     0.000059310913    12.000000000000
         C           -2.895794543277     1.145692043862     0.000130310913    12.000000000000
         C           -3.430819543277    -0.144595956138     0.000177310913    12.000000000000
         C           -2.553014543277    -1.229458956138     0.000151310913    12.000000000000
         C            3.123908456723    -0.170539956138    -0.000165689087    12.000000000000
         C            2.756057456723     1.157054043862    -0.000123689087    12.000000000000
         H           -1.039232543277     2.280398043862     0.000020310913     1.007825032230
         H           -3.548157543277     2.015576043862     0.000147310913     1.007825032230
         H           -4.504616543277    -0.309264956138     0.000232310913     1.007825032230
         H           -2.929473543277    -2.250915956138     0.000185310913     1.007825032230
         H            4.122859456723    -0.587397956138    -0.000222689087     1.007825032230
         H            3.446277456723     1.993818043862    -0.000144689087     1.007825032230

  Basis Set: AUG-CC-PVTZ
    Blend: AUG-CC-PVTZ
  Basis Set: (AUG-CC-PVTZ AUX)
    Blend: AUG-CC-PVTZ-JKFIT
	 Reference Energy          =    -813.0030438362438190 [Eh]
	 Singles Energy            =      -0.0000000000000000 [Eh]
	 Same-Spin Energy          =      -0.5265808338669746 [Eh]
	 Opposite-Spin Energy      =      -1.5560484531934229 [Eh]
	 Correlation Energy        =      -2.0826292870603975 [Eh]
	 Total Energy              =    -815.0856731233042183 [Eh]

	 ================> DF-SCS-MP2 Energies <==================
	-----------------------------------------------------------
	 SCS Same-Spin Scale       =       0.3333333333333333 [-]
	 SCS Opposite-Spin Scale   =       1.2000000000000000 [-]
	 SCS Same-Spin Energy      =      -0.1755269446223249 [Eh]
	 SCS Opposite-Spin Energy  =      -1.8672581438321074 [Eh]
	 SCS Correlation Energy    =      -2.0427850884544325 [Eh]
	 SCS Total Energy          =    -815.0458289246982986 [Eh]
	-----------------------------------------------------------

  Dipole Moment: [D]
     X:    -0.7407      Y:     0.0425      Z:    -0.0000     Total:     0.7419

*** Psi4 exiting successfully. Buy a developer a beer!
