                               Psi4 1.3.2 release

  ==> Input File <==

--------------------------------------------------------------------------
#psi4
#
memory 32 gb

molecule  {
0 1
  S        1.7618360    -1.1877300    -0.0001100
  N       -1.1892720    -1.1162850     0.0000840
  N        1.4363420     1.3812950    -0.0000570
  C       -0.6888070     0.1366280     0.0000400
  C        0.7702180     0.2369850    -0.0000350
  C       -1.4298840     1.2071284     0.0000567
  C       -2.8690220     1.1312400     0.0001290
  C       -3.4040470    -0.1590480     0.0001760
  C       -2.5262420    -1.2439110     0.0001500
  C        3.1506810    -0.1849920    -0.0001670
  C        2.7828300     1.1426020    -0.0001250
  H       -1.0124600     2.2659460     0.0000190
  H       -3.5213850     2.0011240     0.0001460
  H       -4.4778440    -0.3237170     0.0002310
  H       -2.9027010    -2.2653680     0.0001840
  H        4.1496320    -0.6018500    -0.0002240
  H        3.4730500     1.9793660    -0.0001460
units angstrom
no_reorient  #important for SAPT in psi4, default
symmetry c1  #important for SAPT in psi4, default
}

set PROPERTIES_ORIGIN ["COM"]
properties('MP2/aug-cc-pvtz', properties = ['dipole'])
--------------------------------------------------------------------------

    Molecular point group: c1
  Charge       = 0
  Multiplicity = 1
  Basis Set: AUG-CC-PVTZ
    Blend: AUG-CC-PVTZ
  Basis Set: (AUG-CC-PVTZ AUX)
    Blend: AUG-CC-PVTZ-JKFIT

    Orbital Energies [Eh]
    ---------------------

    Doubly Occupied:

       1A    -91.993780     2A    -15.577345     3A    -15.571287
       4A    -11.311718     5A    -11.288010     6A    -11.282284
       7A    -11.275326     8A    -11.268252     9A    -11.262473
      10A    -11.253042    11A    -11.246783    12A     -8.993821
      13A     -6.674595    14A     -6.674047    15A     -6.673385
      16A     -1.288354    17A     -1.261542    18A     -1.092250
      19A     -1.077173    20A     -1.060678    21A     -0.986958
      22A     -0.882451    23A     -0.866466    24A     -0.791283
      25A     -0.767658    26A     -0.705302    27A     -0.676489
      28A     -0.672637    29A     -0.638720    30A     -0.591001
      31A     -0.590649    32A     -0.584022    33A     -0.560384
      34A     -0.537271    35A     -0.512007    36A     -0.500076
      37A     -0.443982    38A     -0.425283    39A     -0.399795
      40A     -0.388147    41A     -0.373640    42A     -0.310606

  @DF-RHF Final Energy:  -812.99657789609660

   => Energetics <=

    Nuclear Repulsion Energy =            628.6838729820181015
    One-Electron Energy =               -2360.6989623819413282
    Two-Electron Energy =                 919.0185115038266304
    Total Energy =                       -812.9965778960965963
  Basis Set: (AUG-CC-PVTZ AUX)
    Blend: AUG-CC-PVTZ-RI
    Molecular point group: c1

    Geometry (in Angstrom), charge = 0, multiplicity = 1:

       Center              X                  Y                   Z               Mass
    ------------   -----------------  -----------------  -----------------  -----------------
         S            1.731638724174    -1.163139781853    -0.000108575520    31.972071174400
         N           -1.219469275826    -1.091694781853     0.000085424480    14.003074004430
         N            1.406144724174     1.405885218147    -0.000055575520    14.003074004430
         C           -0.719004275826     0.161218218147     0.000041424480    12.000000000000
         C            0.740020724174     0.261575218147    -0.000033575520    12.000000000000
         C           -1.460081275826     1.231718618147     0.000058124480    12.000000000000
         C           -2.899219275826     1.155830218147     0.000130424480    12.000000000000
         C           -3.434244275826    -0.134457781853     0.000177424480    12.000000000000
         C           -2.556439275826    -1.219320781853     0.000151424480    12.000000000000
         C            3.120483724174    -0.160401781853    -0.000165575520    12.000000000000
         C            2.752632724174     1.167192218147    -0.000123575520    12.000000000000
         H           -1.042657275826     2.290536218147     0.000020424480     1.007825032230
         H           -3.551582275826     2.025714218147     0.000147424480     1.007825032230
         H           -4.508041275826    -0.299126781853     0.000232424480     1.007825032230
         H           -2.932898275826    -2.240777781853     0.000185424480     1.007825032230
         H            4.119434724174    -0.577259781853    -0.000222575520     1.007825032230
         H            3.442852724174     2.003956218147    -0.000144575520     1.007825032230

  Basis Set: AUG-CC-PVTZ
    Blend: AUG-CC-PVTZ
  Basis Set: (AUG-CC-PVTZ AUX)
    Blend: AUG-CC-PVTZ-JKFIT
	 Reference Energy          =    -812.9965778960965963 [Eh]
	 Singles Energy            =      -0.0000000000000000 [Eh]
	 Same-Spin Energy          =      -0.5251924440967740 [Eh]
	 Opposite-Spin Energy      =      -1.5539931512986085 [Eh]
	 Correlation Energy        =      -2.0791855953953826 [Eh]
	 Total Energy              =    -815.0757634914920118 [Eh]

	 ================> DF-SCS-MP2 Energies <==================
	-----------------------------------------------------------
	 SCS Same-Spin Scale       =       0.3333333333333333 [-]
	 SCS Opposite-Spin Scale   =       1.2000000000000000 [-]
	 SCS Same-Spin Energy      =      -0.1750641480322580 [Eh]
	 SCS Opposite-Spin Energy  =      -1.8647917815583301 [Eh]
	 SCS Correlation Energy    =      -2.0398559295905883 [Eh]
	 SCS Total Energy          =    -815.0364338256871406 [Eh]
	-----------------------------------------------------------

  Dipole Moment: [D]
     X:    -0.9840      Y:     0.1884      Z:    -0.0000     Total:     1.0019

*** Psi4 exiting successfully. Buy a developer a beer!
