                               Psi4 1.3.2 release

  ==> Input File <==

--------------------------------------------------------------------------
#psi4
#
memory 32 gb

molecule  {
0 1
  S        1.6074805    -1.2835776    -0.0001034
  N       -1.1892720    -1.1162850     0.0000840
  N        1.4363420     1.3812950    -0.0000570
  C       -0.6888070     0.1366280     0.0000400
  C        0.7702180     0.2369850    -0.0000350
  C       -1.4868030     1.2893490     0.0000580
  C       -2.8690220     1.1312400     0.0001290
  C       -3.4040470    -0.1590480     0.0001760
  C       -2.5262420    -1.2439110     0.0001500
  C        3.1506810    -0.1849920    -0.0001670
  C        2.7828300     1.1426020    -0.0001250
  H       -1.0124600     2.2659460     0.0000190
  H       -3.5213850     2.0011240     0.0001460
  H       -4.4778440    -0.3237170     0.0002310
  H       -2.9027010    -2.2653680     0.0001840
  H        4.1496320    -0.6018500    -0.0002240
  H        3.4730500     1.9793660    -0.0001460
units angstrom
no_reorient  #important for SAPT in psi4, default
symmetry c1  #important for SAPT in psi4, default
}

set PROPERTIES_ORIGIN ["COM"]
properties('MP2/aug-cc-pvtz', properties = ['dipole'])
--------------------------------------------------------------------------

    Molecular point group: c1
  Charge       = 0
  Multiplicity = 1
  Basis Set: AUG-CC-PVTZ
    Blend: AUG-CC-PVTZ
  Basis Set: (AUG-CC-PVTZ AUX)
    Blend: AUG-CC-PVTZ-JKFIT

    Orbital Energies [Eh]
    ---------------------

    Doubly Occupied:

       1A    -91.998059     2A    -15.581400     3A    -15.573309
       4A    -11.319484     5A    -11.296195     6A    -11.287325
       7A    -11.275397     8A    -11.274019     9A    -11.268668
      10A    -11.253390    11A    -11.251153    12A     -8.995215
      13A     -6.675860    14A     -6.674959    15A     -6.674503
      16A     -1.285143    17A     -1.258501    18A     -1.098330
      19A     -1.070314    20A     -1.032245    21A     -0.989917
      22A     -0.877973    23A     -0.869561    24A     -0.796337
      25A     -0.761728    26A     -0.698802    27A     -0.679041
      28A     -0.668606    29A     -0.638536    30A     -0.594174
      31A     -0.590148    32A     -0.579050    33A     -0.557412
      34A     -0.530972    35A     -0.526144    36A     -0.485145
      37A     -0.445118    38A     -0.424064    39A     -0.399263
      40A     -0.381746    41A     -0.375692    42A     -0.310737

  @DF-RHF Final Energy:  -812.99155412943753

   => Energetics <=

    Nuclear Repulsion Energy =            624.8075635437038500
    One-Electron Energy =               -2352.9509617987969250
    Two-Electron Energy =                 915.1518441256554297
    Total Energy =                       -812.9915541294375316
  Basis Set: (AUG-CC-PVTZ AUX)
    Blend: AUG-CC-PVTZ-RI
    Molecular point group: c1

    Geometry (in Angstrom), charge = 0, multiplicity = 1:

       Center              X                  Y                   Z               Mass
    ------------   -----------------  -----------------  -----------------  -----------------
         S            1.611957423582    -1.246163453959    -0.000103374165    31.972071174400
         N           -1.184795076418    -1.078870853959     0.000084025835    14.003074004430
         N            1.440818923582     1.418709146041    -0.000056974165    14.003074004430
         C           -0.684330076418     0.174042146041     0.000040025835    12.000000000000
         C            0.774694923582     0.274399146041    -0.000034974165    12.000000000000
         C           -1.482326076418     1.326763146041     0.000058025835    12.000000000000
         C           -2.864545076418     1.168654146041     0.000129025835    12.000000000000
         C           -3.399570076418    -0.121633853959     0.000176025835    12.000000000000
         C           -2.521765076418    -1.206496853959     0.000150025835    12.000000000000
         C            3.155157923582    -0.147577853959    -0.000166974165    12.000000000000
         C            2.787306923582     1.180016146041    -0.000124974165    12.000000000000
         H           -1.007983076418     2.303360146041     0.000019025835     1.007825032230
         H           -3.516908076418     2.038538146041     0.000146025835     1.007825032230
         H           -4.473367076418    -0.286302853959     0.000231025835     1.007825032230
         H           -2.898224076418    -2.227953853959     0.000184025835     1.007825032230
         H            4.154108923582    -0.564435853959    -0.000223974165     1.007825032230
         H            3.477526923582     2.016780146041    -0.000145974165     1.007825032230

  Basis Set: AUG-CC-PVTZ
    Blend: AUG-CC-PVTZ
  Basis Set: (AUG-CC-PVTZ AUX)
    Blend: AUG-CC-PVTZ-JKFIT
	 Reference Energy          =    -812.9915541294375316 [Eh]
	 Singles Energy            =      -0.0000000000000000 [Eh]
	 Same-Spin Energy          =      -0.5245698553035204 [Eh]
	 Opposite-Spin Energy      =      -1.5565476825786688 [Eh]
	 Correlation Energy        =      -2.0811175378821893 [Eh]
	 Total Energy              =    -815.0726716673196961 [Eh]

	 ================> DF-SCS-MP2 Energies <==================
	-----------------------------------------------------------
	 SCS Same-Spin Scale       =       0.3333333333333333 [-]
	 SCS Opposite-Spin Scale   =       1.2000000000000000 [-]
	 SCS Same-Spin Energy      =      -0.1748566184345068 [Eh]
	 SCS Opposite-Spin Energy  =      -1.8678572190944025 [Eh]
	 SCS Correlation Energy    =      -2.0427138375289093 [Eh]
	 SCS Total Energy          =    -815.0342679669664676 [Eh]
	-----------------------------------------------------------

  Dipole Moment: [D]
     X:    -1.0518      Y:     0.2661      Z:     0.0000     Total:     1.0849

*** Psi4 exiting successfully. Buy a developer a beer!
