                               Psi4 1.3.2 release

  ==> Input File <==

--------------------------------------------------------------------------
#psi4
#
memory 32 gb

molecule  {
0 1
  S        1.7618360    -1.1877300    -0.0001100
  N       -1.1892720    -1.1162850     0.0000840
  N        1.4363420     1.3812950    -0.0000570
  C       -0.6888070     0.1366280     0.0000400
  C        0.7702180     0.2369850    -0.0000350
  C       -1.6006410     1.4537902     0.0000606
  C       -2.8690220     1.1312400     0.0001290
  C       -3.4040470    -0.1590480     0.0001760
  C       -2.5262420    -1.2439110     0.0001500
  C        3.1506810    -0.1849920    -0.0001670
  C        2.7828300     1.1426020    -0.0001250
  H       -1.0124600     2.2659460     0.0000190
  H       -3.5213850     2.0011240     0.0001460
  H       -4.4778440    -0.3237170     0.0002310
  H       -2.9027010    -2.2653680     0.0001840
  H        4.1496320    -0.6018500    -0.0002240
  H        3.4730500     1.9793660    -0.0001460
units angstrom
no_reorient  #important for SAPT in psi4, default
symmetry c1  #important for SAPT in psi4, default
}

set PROPERTIES_ORIGIN ["COM"]
properties('MP2/aug-cc-pvtz', properties = ['dipole'])
--------------------------------------------------------------------------

    Molecular point group: c1
  Charge       = 0
  Multiplicity = 1
  Basis Set: AUG-CC-PVTZ
    Blend: AUG-CC-PVTZ
  Basis Set: (AUG-CC-PVTZ AUX)
    Blend: AUG-CC-PVTZ-JKFIT

    Orbital Energies [Eh]
    ---------------------

    Doubly Occupied:

       1A    -91.998972     2A    -15.580157     3A    -15.579988
       4A    -11.317066     5A    -11.316133     6A    -11.282548
       7A    -11.273411     8A    -11.269799     9A    -11.255172
      10A    -11.253252    11A    -11.248018    12A     -8.998976
      13A     -6.679727    14A     -6.679172    15A     -6.678508
      16A     -1.288355    17A     -1.257489    18A     -1.105665
      19A     -1.067686    20A     -1.056900    21A     -0.987293
      22A     -0.886160    23A     -0.857490    24A     -0.791820
      25A     -0.761986    26A     -0.713183    27A     -0.693416
      28A     -0.673880    29A     -0.629738    30A     -0.598197
      31A     -0.583151    32A     -0.579540    33A     -0.552579
      34A     -0.540995    35A     -0.533510    36A     -0.504193
      37A     -0.445177    38A     -0.412438    39A     -0.411949
      40A     -0.394874    41A     -0.367459    42A     -0.301889

  @DF-RHF Final Energy:  -812.96848871254133

   => Energetics <=

    Nuclear Repulsion Energy =            623.8850426449688484
    One-Electron Energy =               -2350.8912423640626912
    Two-Electron Energy =                 914.0377110065523993
    Total Energy =                       -812.9684887125413297
  Basis Set: (AUG-CC-PVTZ AUX)
    Blend: AUG-CC-PVTZ-RI
    Molecular point group: c1

    Geometry (in Angstrom), charge = 0, multiplicity = 1:

       Center              X                  Y                   Z               Mass
    ------------   -----------------  -----------------  -----------------  -----------------
         S            1.744285425966    -1.181408187999    -0.000108864364    31.972071174400
         N           -1.206822574034    -1.109963187999     0.000085135636    14.003074004430
         N            1.418791425966     1.387616812001    -0.000055864364    14.003074004430
         C           -0.706357574034     0.142949812001     0.000041135636    12.000000000000
         C            0.752667425966     0.243306812001    -0.000033864364    12.000000000000
         C           -1.618191574034     1.460112012001     0.000061735636    12.000000000000
         C           -2.886572574034     1.137561812001     0.000130135636    12.000000000000
         C           -3.421597574034    -0.152726187999     0.000177135636    12.000000000000
         C           -2.543792574034    -1.237589187999     0.000151135636    12.000000000000
         C            3.133130425966    -0.178670187999    -0.000165864364    12.000000000000
         C            2.765279425966     1.148923812001    -0.000123864364    12.000000000000
         H           -1.030010574034     2.272267812001     0.000020135636     1.007825032230
         H           -3.538935574034     2.007445812001     0.000147135636     1.007825032230
         H           -4.495394574034    -0.317395187999     0.000232135636     1.007825032230
         H           -2.920251574034    -2.259046187999     0.000185135636     1.007825032230
         H            4.132081425966    -0.595528187999    -0.000222864364     1.007825032230
         H            3.455499425966     1.985687812001    -0.000144864364     1.007825032230

  Basis Set: AUG-CC-PVTZ
    Blend: AUG-CC-PVTZ
  Basis Set: (AUG-CC-PVTZ AUX)
    Blend: AUG-CC-PVTZ-JKFIT
	 Reference Energy          =    -812.9684887125413297 [Eh]
	 Singles Energy            =      -0.0000000000000000 [Eh]
	 Same-Spin Energy          =      -0.5252114637364593 [Eh]
	 Opposite-Spin Energy      =      -1.5555895898487937 [Eh]
	 Correlation Energy        =      -2.0808010535852528 [Eh]
	 Total Energy              =    -815.0492897661265488 [Eh]

	 ================> DF-SCS-MP2 Energies <==================
	-----------------------------------------------------------
	 SCS Same-Spin Scale       =       0.3333333333333333 [-]
	 SCS Opposite-Spin Scale   =       1.2000000000000000 [-]
	 SCS Same-Spin Energy      =      -0.1750704879121531 [Eh]
	 SCS Opposite-Spin Energy  =      -1.8667075078185524 [Eh]
	 SCS Correlation Energy    =      -2.0417779957307056 [Eh]
	 SCS Total Energy          =    -815.0102667082720700 [Eh]
	-----------------------------------------------------------

  Dipole Moment: [D]
     X:    -0.5005      Y:     0.1598      Z:    -0.0000     Total:     0.5254

*** Psi4 exiting successfully. Buy a developer a beer!
