                               Psi4 1.3.2 release

  ==> Input File <==

--------------------------------------------------------------------------
#psi4
#
memory 32 gb

molecule  {
0 1
  S        1.7618360    -1.1877300    -0.0001100
  N       -1.1892720    -1.1162850     0.0000840
  N        1.4363420     1.3812950    -0.0000570
  C       -0.6888070     0.1366280     0.0000400
  C        0.7596633     0.3385170    -0.0000364
  C       -1.4868030     1.2893490     0.0000580
  C       -2.8690220     1.1312400     0.0001290
  C       -3.4040470    -0.1590480     0.0001760
  C       -2.5262420    -1.2439110     0.0001500
  C        3.1506810    -0.1849920    -0.0001670
  C        2.7828300     1.1426020    -0.0001250
  H       -1.0124600     2.2659460     0.0000190
  H       -3.5213850     2.0011240     0.0001460
  H       -4.4778440    -0.3237170     0.0002310
  H       -2.9027010    -2.2653680     0.0001840
  H        4.1496320    -0.6018500    -0.0002240
  H        3.4730500     1.9793660    -0.0001460
units angstrom
no_reorient  #important for SAPT in psi4, default
symmetry c1  #important for SAPT in psi4, default
}

set PROPERTIES_ORIGIN ["COM"]
properties('MP2/aug-cc-pvtz', properties = ['dipole'])
--------------------------------------------------------------------------

    Molecular point group: c1
  Charge       = 0
  Multiplicity = 1
  Basis Set: AUG-CC-PVTZ
    Blend: AUG-CC-PVTZ
  Basis Set: (AUG-CC-PVTZ AUX)
    Blend: AUG-CC-PVTZ-JKFIT

    Orbital Energies [Eh]
    ---------------------

    Doubly Occupied:

       1A    -91.983607     2A    -15.582252     3A    -15.572702
       4A    -11.313713     5A    -11.299211     6A    -11.287762
       7A    -11.269535     8A    -11.268646     9A    -11.267683
      10A    -11.253284    11A    -11.250851    12A     -8.983187
      13A     -6.663980    14A     -6.663231    15A     -6.662644
      16A     -1.305746    17A     -1.266277    18A     -1.097641
      19A     -1.073347    20A     -1.058679    21A     -0.982379
      22A     -0.879739    23A     -0.870512    24A     -0.798619
      25A     -0.766080    26A     -0.706040    27A     -0.683452
      28A     -0.669793    29A     -0.643018    30A     -0.603479
      31A     -0.590390    32A     -0.587475    33A     -0.555140
      34A     -0.539299    35A     -0.531226    36A     -0.497519
      37A     -0.442452    38A     -0.413190    39A     -0.405875
      40A     -0.394897    41A     -0.368578    42A     -0.308170

  @DF-RHF Final Energy:  -813.00432774009141

   => Energetics <=

    Nuclear Repulsion Energy =            626.6297510833347815
    One-Electron Energy =               -2356.5455528238212537
    Two-Electron Energy =                 916.9114740003951738
    Total Energy =                       -813.0043277400914121
  Basis Set: (AUG-CC-PVTZ AUX)
    Blend: AUG-CC-PVTZ-RI
    Molecular point group: c1

    Geometry (in Angstrom), charge = 0, multiplicity = 1:

       Center              X                  Y                   Z               Mass
    ------------   -----------------  -----------------  -----------------  -----------------
         S            1.736635999616    -1.176748971144    -0.000108568114    31.972071174400
         N           -1.214472000384    -1.105303971144     0.000085431886    14.003074004430
         N            1.411141999616     1.392276028856    -0.000055568114    14.003074004430
         C           -0.714007000384     0.147609028856     0.000041431886    12.000000000000
         C            0.734463299616     0.349498028856    -0.000034968114    12.000000000000
         C           -1.512003000384     1.300330028856     0.000059431886    12.000000000000
         C           -2.894222000384     1.142221028856     0.000130431886    12.000000000000
         C           -3.429247000384    -0.148066971144     0.000177431886    12.000000000000
         C           -2.551442000384    -1.232929971144     0.000151431886    12.000000000000
         C            3.125480999616    -0.174010971144    -0.000165568114    12.000000000000
         C            2.757629999616     1.153583028856    -0.000123568114    12.000000000000
         H           -1.037660000384     2.276927028856     0.000020431886     1.007825032230
         H           -3.546585000384     2.012105028856     0.000147431886     1.007825032230
         H           -4.503044000384    -0.312735971144     0.000232431886     1.007825032230
         H           -2.927901000384    -2.254386971144     0.000185431886     1.007825032230
         H            4.124431999616    -0.590868971144    -0.000222568114     1.007825032230
         H            3.447849999616     1.990347028856    -0.000144568114     1.007825032230

  Basis Set: AUG-CC-PVTZ
    Blend: AUG-CC-PVTZ
  Basis Set: (AUG-CC-PVTZ AUX)
    Blend: AUG-CC-PVTZ-JKFIT
	 Reference Energy          =    -813.0043277400914121 [Eh]
	 Singles Energy            =      -0.0000000000000000 [Eh]
	 Same-Spin Energy          =      -0.5237033529234177 [Eh]
	 Opposite-Spin Energy      =      -1.5516063268316547 [Eh]
	 Correlation Energy        =      -2.0753096797550725 [Eh]
	 Total Energy              =    -815.0796374198464491 [Eh]

	 ================> DF-SCS-MP2 Energies <==================
	-----------------------------------------------------------
	 SCS Same-Spin Scale       =       0.3333333333333333 [-]
	 SCS Opposite-Spin Scale   =       1.2000000000000000 [-]
	 SCS Same-Spin Energy      =      -0.1745677843078059 [Eh]
	 SCS Opposite-Spin Energy  =      -1.8619275921979854 [Eh]
	 SCS Correlation Energy    =      -2.0364953765057914 [Eh]
	 SCS Total Energy          =    -815.0408231165971529 [Eh]
	-----------------------------------------------------------

  Dipole Moment: [D]
     X:    -1.1502      Y:     0.5474      Z:     0.0000     Total:     1.2738

*** Psi4 exiting successfully. Buy a developer a beer!
