                               Psi4 1.4a3.dev225

  ==> Input File <==

--------------------------------------------------------------------------
#psi4
#
memory 32 gb

molecule  {
0 1
  S        1.7618360    -1.1877300    -0.0001100
  N       -1.1892720    -1.1162850     0.0000840
  N        1.4363420     1.3812950    -0.0000570
  C       -0.6888070     0.1366280     0.0000400
  C        0.7702180     0.2369850    -0.0000350
  C       -1.4868030     1.2893490     0.0000580
  C       -2.8690220     1.1312400     0.0001290
  C       -3.4040470    -0.1590480     0.0001760
  C       -2.5262420    -1.2439110     0.0001500
  C        3.1506810    -0.1849920    -0.0001670
  C        2.7774896     1.1618758    -0.0001244
  H       -1.0124600     2.2659460     0.0000190
  H       -3.5213850     2.0011240     0.0001460
  H       -4.4778440    -0.3237170     0.0002310
  H       -2.9027010    -2.2653680     0.0001840
  H        4.1496320    -0.6018500    -0.0002240
  H        3.4730500     1.9793660    -0.0001460
units angstrom
no_reorient  #important for SAPT in psi4, default
symmetry c1  #important for SAPT in psi4, default
}

set PROPERTIES_ORIGIN ["COM"]
properties('MP2/aug-cc-pvtz', properties = ['dipole'])
--------------------------------------------------------------------------

    Molecular point group: c1
  Charge       = 0
  Multiplicity = 1
  Basis Set: AUG-CC-PVTZ
    Blend: AUG-CC-PVTZ
  Basis Set: (AUG-CC-PVTZ AUX)
    Blend: AUG-CC-PVTZ-JKFIT

    Orbital Energies [Eh]
    ---------------------

    Doubly Occupied:

       1A    -91.997043     2A    -15.578499     3A    -15.574369
       4A    -11.313319     5A    -11.297317     6A    -11.285292
       7A    -11.271528     8A    -11.267470     9A    -11.267330
      10A    -11.250933    11A    -11.249527    12A     -8.996910
      13A     -6.677664    14A     -6.677118    15A     -6.676486
      16A     -1.287879    17A     -1.260382    18A     -1.096257
      19A     -1.067178    20A     -1.062680    21A     -0.985383
      22A     -0.876036    23A     -0.869145    24A     -0.791995
      25A     -0.767154    26A     -0.706402    27A     -0.680178
      28A     -0.668537    29A     -0.640525    30A     -0.594876
      31A     -0.589622    32A     -0.581373    33A     -0.558227
      34A     -0.535676    35A     -0.529080    36A     -0.502729
      37A     -0.443261    38A     -0.424630    39A     -0.397975
      40A     -0.393148    41A     -0.371648    42A     -0.304403

  @DF-RHF Final Energy:  -813.00796926480973

   => Energetics <=

    Nuclear Repulsion Energy =            626.7491566649185870
    One-Electron Energy =               -2356.7798865018253309
    Two-Electron Energy =                 917.0227605720968995
    Total Energy =                       -813.0079692648097307
  Basis Set: (AUG-CC-PVTZ AUX)
    Blend: AUG-CC-PVTZ-RI
    Molecular point group: c1

    Geometry (in Angstrom), charge = 0, multiplicity = 1:

       Center              X                  Y                   Z               Mass
    ------------   -----------------  -----------------  -----------------  -----------------
         S            1.736249815172    -1.170656717677    -0.000108716239    31.972071174400
         N           -1.214858184828    -1.099211717677     0.000085283761    14.003074004430
         N            1.410755815172     1.398368282323    -0.000055716239    14.003074004430
         C           -0.714393184828     0.153701282323     0.000041283761    12.000000000000
         C            0.744631815172     0.254058282323    -0.000033716239    12.000000000000
         C           -1.512389184828     1.306422282323     0.000059283761    12.000000000000
         C           -2.894608184828     1.148313282323     0.000130283761    12.000000000000
         C           -3.429633184828    -0.141974717677     0.000177283761    12.000000000000
         C           -2.551828184828    -1.226837717677     0.000151283761    12.000000000000
         C            3.125094815172    -0.167918717677    -0.000165716239    12.000000000000
         C            2.751903415172     1.178949082323    -0.000123116239    12.000000000000
         H           -1.038046184828     2.283019282323     0.000020283761     1.007825032230
         H           -3.546971184828     2.018197282323     0.000147283761     1.007825032230
         H           -4.503430184828    -0.306643717677     0.000232283761     1.007825032230
         H           -2.928287184828    -2.248294717677     0.000185283761     1.007825032230
         H            4.124045815172    -0.584776717677    -0.000222716239     1.007825032230
         H            3.447463815172     1.996439282323    -0.000144716239     1.007825032230

  Basis Set: AUG-CC-PVTZ
    Blend: AUG-CC-PVTZ
  Basis Set: (AUG-CC-PVTZ AUX)
    Blend: AUG-CC-PVTZ-JKFIT
	 Reference Energy          =    -813.0079692648097307 [Eh]
	 Singles Energy            =      -0.0000000000000000 [Eh]
	 Same-Spin Energy          =      -0.5258656231364529 [Eh]
	 Opposite-Spin Energy      =      -1.5542227216770352 [Eh]
	 Correlation Energy        =      -2.0800883448134879 [Eh]
	 Total Energy              =    -815.0880576096232062 [Eh]

	 ================> DF-SCS-MP2 Energies <==================
	-----------------------------------------------------------
	 SCS Same-Spin Scale       =       0.3333333333333333 [-]
	 SCS Opposite-Spin Scale   =       1.2000000000000000 [-]
	 SCS Same-Spin Energy      =      -0.1752885410454843 [Eh]
	 SCS Opposite-Spin Energy  =      -1.8650672660124421 [Eh]
	 SCS Correlation Energy    =      -2.0403558070579262 [Eh]
	 SCS Total Energy          =    -815.0483250718676800 [Eh]
	-----------------------------------------------------------

  Dipole Moment: [D]
     X:    -0.7666      Y:     0.2041      Z:    -0.0000     Total:     0.7933

*** Psi4 exiting successfully. Buy a developer a beer!
