                               Psi4 1.3.2 release

  ==> Input File <==

--------------------------------------------------------------------------
#psi4
#
memory 32 gb

molecule  {
0 1
  S        1.7618360    -1.1877300    -0.0001100
  N       -1.1892720    -1.1162850     0.0000840
  N        1.4187680     1.2392411    -0.0000582
  C       -0.6888070     0.1366280     0.0000400
  C        0.7702180     0.2369850    -0.0000350
  C       -1.4868030     1.2893490     0.0000580
  C       -2.8690220     1.1312400     0.0001290
  C       -3.4040470    -0.1590480     0.0001760
  C       -2.5262420    -1.2439110     0.0001500
  C        3.1506810    -0.1849920    -0.0001670
  C        2.7828300     1.1426020    -0.0001250
  H       -1.0124600     2.2659460     0.0000190
  H       -3.5213850     2.0011240     0.0001460
  H       -4.4778440    -0.3237170     0.0002310
  H       -2.9027010    -2.2653680     0.0001840
  H        4.1496320    -0.6018500    -0.0002240
  H        3.4730500     1.9793660    -0.0001460
units angstrom
no_reorient  #important for SAPT in psi4, default
symmetry c1  #important for SAPT in psi4, default
}

set PROPERTIES_ORIGIN ["COM"]
properties('MP2/aug-cc-pvtz', properties = ['dipole'])
--------------------------------------------------------------------------

    Molecular point group: c1
  Charge       = 0
  Multiplicity = 1
  Basis Set: AUG-CC-PVTZ
    Blend: AUG-CC-PVTZ
  Basis Set: (AUG-CC-PVTZ AUX)
    Blend: AUG-CC-PVTZ-JKFIT

    Orbital Energies [Eh]
    ---------------------

    Doubly Occupied:

       1A    -91.980576     2A    -15.578039     3A    -15.555877
       4A    -11.295372     5A    -11.294563     6A    -11.284565
       7A    -11.270979     8A    -11.267771     9A    -11.267228
      10A    -11.250737    11A    -11.249410    12A     -8.981969
      13A     -6.662732    14A     -6.662289    15A     -6.661432
      16A     -1.323213    17A     -1.264788    18A     -1.095812
      19A     -1.075411    20A     -1.055728    21A     -0.993935
      22A     -0.878186    23A     -0.869042    24A     -0.803548
      25A     -0.765231    26A     -0.704894    27A     -0.683886
      28A     -0.667515    29A     -0.647198    30A     -0.607404
      31A     -0.597203    32A     -0.590316    33A     -0.559962
      34A     -0.540459    35A     -0.532387    36A     -0.499136
      37A     -0.437006    38A     -0.403957    39A     -0.403550
      40A     -0.392589    41A     -0.366445    42A     -0.315087

  @DF-RHF Final Energy:  -812.99804906528539

   => Energetics <=

    Nuclear Repulsion Energy =            631.1542529287195293
    One-Electron Energy =               -2365.6297488315922237
    Two-Electron Energy =                 921.4774468375874221
    Total Energy =                       -812.9980490652853860
  Basis Set: (AUG-CC-PVTZ AUX)
    Blend: AUG-CC-PVTZ-RI
    Molecular point group: c1

    Geometry (in Angstrom), charge = 0, multiplicity = 1:

       Center              X                  Y                   Z               Mass
    ------------   -----------------  -----------------  -----------------  -----------------
         S            1.737373129675    -1.156952199528    -0.000108568091    31.972071174400
         N           -1.213734870325    -1.085507199528     0.000085431909    14.003074004430
         N            1.394305129675     1.270018900472    -0.000056768091    14.003074004430
         C           -0.713269870325     0.167405800472     0.000041431909    12.000000000000
         C            0.745755129675     0.267762800472    -0.000033568091    12.000000000000
         C           -1.511265870325     1.320126800472     0.000059431909    12.000000000000
         C           -2.893484870325     1.162017800472     0.000130431909    12.000000000000
         C           -3.428509870325    -0.128270199528     0.000177431909    12.000000000000
         C           -2.550704870325    -1.213133199528     0.000151431909    12.000000000000
         C            3.126218129675    -0.154214199528    -0.000165568091    12.000000000000
         C            2.758367129675     1.173379800472    -0.000123568091    12.000000000000
         H           -1.036922870325     2.296723800472     0.000020431909     1.007825032230
         H           -3.545847870325     2.031901800472     0.000147431909     1.007825032230
         H           -4.502306870325    -0.292939199528     0.000232431909     1.007825032230
         H           -2.927163870325    -2.234590199528     0.000185431909     1.007825032230
         H            4.125169129675    -0.571072199528    -0.000222568091     1.007825032230
         H            3.448587129675     2.010143800472    -0.000144568091     1.007825032230

  Basis Set: AUG-CC-PVTZ
    Blend: AUG-CC-PVTZ
  Basis Set: (AUG-CC-PVTZ AUX)
    Blend: AUG-CC-PVTZ-JKFIT
	 Reference Energy          =    -812.9980490652853860 [Eh]
	 Singles Energy            =      -0.0000000000000000 [Eh]
	 Same-Spin Energy          =      -0.5225762931874549 [Eh]
	 Opposite-Spin Energy      =      -1.5481941053873260 [Eh]
	 Correlation Energy        =      -2.0707703985747807 [Eh]
	 Total Energy              =    -815.0688194638602226 [Eh]

	 ================> DF-SCS-MP2 Energies <==================
	-----------------------------------------------------------
	 SCS Same-Spin Scale       =       0.3333333333333333 [-]
	 SCS Opposite-Spin Scale   =       1.2000000000000000 [-]
	 SCS Same-Spin Energy      =      -0.1741920977291516 [Eh]
	 SCS Opposite-Spin Energy  =      -1.8578329264647913 [Eh]
	 SCS Correlation Energy    =      -2.0320250241939428 [Eh]
	 SCS Total Energy          =    -815.0300740894792852 [Eh]
	-----------------------------------------------------------

  Dipole Moment: [D]
     X:    -0.9630      Y:     0.7749      Z:     0.0000     Total:     1.2361

*** Psi4 exiting successfully. Buy a developer a beer!
