                               Psi4 1.3.2 release

  ==> Input File <==

--------------------------------------------------------------------------
#psi4
#
memory 32 gb

molecule  {
0 1
  S        1.6600374    -1.2534312    -0.0001057
  N       -1.1892720    -1.1162850     0.0000840
  N        1.4363420     1.3812950    -0.0000570
  C       -0.6888070     0.1366280     0.0000400
  C        0.7702180     0.2369850    -0.0000350
  C       -1.4868030     1.2893490     0.0000580
  C       -2.8690220     1.1312400     0.0001290
  C       -3.4040470    -0.1590480     0.0001760
  C       -2.5262420    -1.2439110     0.0001500
  C        3.1506810    -0.1849920    -0.0001670
  C        2.7828300     1.1426020    -0.0001250
  H       -1.0124600     2.2659460     0.0000190
  H       -3.5213850     2.0011240     0.0001460
  H       -4.4778440    -0.3237170     0.0002310
  H       -2.9027010    -2.2653680     0.0001840
  H        4.1496320    -0.6018500    -0.0002240
  H        3.4730500     1.9793660    -0.0001460
units angstrom
no_reorient  #important for SAPT in psi4, default
symmetry c1  #important for SAPT in psi4, default
}

set PROPERTIES_ORIGIN ["COM"]
properties('MP2/aug-cc-pvtz', properties = ['dipole'])
--------------------------------------------------------------------------

    Molecular point group: c1
  Charge       = 0
  Multiplicity = 1
  Basis Set: AUG-CC-PVTZ
    Blend: AUG-CC-PVTZ
  Basis Set: (AUG-CC-PVTZ AUX)
    Blend: AUG-CC-PVTZ-JKFIT

    Orbital Energies [Eh]
    ---------------------

    Doubly Occupied:

       1A    -91.997589     2A    -15.580626     3A    -15.573611
       4A    -11.317805     5A    -11.296624     6A    -11.286728
       7A    -11.273399     8A    -11.271544     9A    -11.268340
      10A    -11.252794    11A    -11.250834    12A     -8.995473
      13A     -6.676162    14A     -6.675377    15A     -6.674878
      16A     -1.285538    17A     -1.259069    18A     -1.097710
      19A     -1.069103    20A     -1.041424    21A     -0.988892
      22A     -0.877675    23A     -0.869586    24A     -0.794545
      25A     -0.763137    26A     -0.701130    27A     -0.679301
      28A     -0.668877    29A     -0.638777    30A     -0.593724
      31A     -0.589519    32A     -0.579534    33A     -0.556846
      34A     -0.532461    35A     -0.526707    36A     -0.493168
      37A     -0.445100    38A     -0.424590    39A     -0.398205
      40A     -0.385661    41A     -0.374423    42A     -0.309783

  @DF-RHF Final Energy:  -813.00046646767794

   => Energetics <=

    Nuclear Repulsion Energy =            625.3766453314302680
    One-Electron Energy =               -2354.0816810482351684
    Two-Electron Energy =                 915.7045692491270756
    Total Energy =                       -813.0004664676779385
  Basis Set: (AUG-CC-PVTZ AUX)
    Blend: AUG-CC-PVTZ-RI
    Molecular point group: c1

    Geometry (in Angstrom), charge = 0, multiplicity = 1:

       Center              X                  Y                   Z               Mass
    ------------   -----------------  -----------------  -----------------  -----------------
         S            1.654143385820    -1.221965776927    -0.000105220311    31.972071174400
         N           -1.195166014180    -1.084819576927     0.000084479689    14.003074004430
         N            1.430447985820     1.412760423073    -0.000056520311    14.003074004430
         C           -0.694701014180     0.168093423073     0.000040479689    12.000000000000
         C            0.764323985820     0.268450423073    -0.000034520311    12.000000000000
         C           -1.492697014180     1.320814423073     0.000058479689    12.000000000000
         C           -2.874916014180     1.162705423073     0.000129479689    12.000000000000
         C           -3.409941014180    -0.127582576927     0.000176479689    12.000000000000
         C           -2.532136014180    -1.212445576927     0.000150479689    12.000000000000
         C            3.144786985820    -0.153526576927    -0.000166520311    12.000000000000
         C            2.776935985820     1.174067423073    -0.000124520311    12.000000000000
         H           -1.018354014180     2.297411423073     0.000019479689     1.007825032230
         H           -3.527279014180     2.032589423073     0.000146479689     1.007825032230
         H           -4.483738014180    -0.292251576927     0.000231479689     1.007825032230
         H           -2.908595014180    -2.233902576927     0.000184479689     1.007825032230
         H            4.143737985820    -0.570384576927    -0.000223520311     1.007825032230
         H            3.467155985820     2.010831423073    -0.000145520311     1.007825032230

  Basis Set: AUG-CC-PVTZ
    Blend: AUG-CC-PVTZ
  Basis Set: (AUG-CC-PVTZ AUX)
    Blend: AUG-CC-PVTZ-JKFIT
	 Reference Energy          =    -813.0004664676779385 [Eh]
	 Singles Energy            =      -0.0000000000000000 [Eh]
	 Same-Spin Energy          =      -0.5246600630849648 [Eh]
	 Opposite-Spin Energy      =      -1.5553520878838696 [Eh]
	 Correlation Energy        =      -2.0800121509688343 [Eh]
	 Total Energy              =    -815.0804786186467936 [Eh]

	 ================> DF-SCS-MP2 Energies <==================
	-----------------------------------------------------------
	 SCS Same-Spin Scale       =       0.3333333333333333 [-]
	 SCS Opposite-Spin Scale   =       1.2000000000000000 [-]
	 SCS Same-Spin Energy      =      -0.1748866876949883 [Eh]
	 SCS Opposite-Spin Energy  =      -1.8664225054606434 [Eh]
	 SCS Correlation Energy    =      -2.0413091931556315 [Eh]
	 SCS Total Energy          =    -815.0417756608335367 [Eh]
	-----------------------------------------------------------

  Dipole Moment: [D]
     X:    -0.9690      Y:     0.2417      Z:     0.0000     Total:     0.9987

*** Psi4 exiting successfully. Buy a developer a beer!
