                               Psi4 1.3.2 release

  ==> Input File <==

--------------------------------------------------------------------------
#psi4
#
memory 32 gb

molecule  {
0 1
  S        1.7618360    -1.1877300    -0.0001100
  N       -1.1892720    -1.1162850     0.0000840
  N        1.4363420     1.3812950    -0.0000570
  C       -0.6888070     0.1366280     0.0000400
  C        0.6696005     0.0641379    -0.0000317
  C       -1.4868030     1.2893490     0.0000580
  C       -2.8690220     1.1312400     0.0001290
  C       -3.4040470    -0.1590480     0.0001760
  C       -2.5262420    -1.2439110     0.0001500
  C        3.1506810    -0.1849920    -0.0001670
  C        2.7828300     1.1426020    -0.0001250
  H       -1.0124600     2.2659460     0.0000190
  H       -3.5213850     2.0011240     0.0001460
  H       -4.4778440    -0.3237170     0.0002310
  H       -2.9027010    -2.2653680     0.0001840
  H        4.1496320    -0.6018500    -0.0002240
  H        3.4730500     1.9793660    -0.0001460
units angstrom
no_reorient  #important for SAPT in psi4, default
symmetry c1  #important for SAPT in psi4, default
}

set PROPERTIES_ORIGIN ["COM"]
properties('MP2/aug-cc-pvtz', properties = ['dipole'])
--------------------------------------------------------------------------

    Molecular point group: c1
  Charge       = 0
  Multiplicity = 1
  Basis Set: AUG-CC-PVTZ
    Blend: AUG-CC-PVTZ
  Basis Set: (AUG-CC-PVTZ AUX)
    Blend: AUG-CC-PVTZ-JKFIT

    Orbital Energies [Eh]
    ---------------------

    Doubly Occupied:

       1A    -92.011399     2A    -15.577435     3A    -15.576209
       4A    -11.314702     5A    -11.290205     6A    -11.284065
       7A    -11.272522     8A    -11.268338     9A    -11.262659
      10A    -11.252679    11A    -11.251911    12A     -9.011038
      13A     -6.691876    14A     -6.691391    15A     -6.690880
      16A     -1.281205    17A     -1.230527    18A     -1.100389
      19A     -1.079135    20A     -1.058583    21A     -0.984952
      22A     -0.890481    23A     -0.871076    24A     -0.780147
      25A     -0.766226    26A     -0.704800    27A     -0.676228
      28A     -0.672138    29A     -0.640991    30A     -0.599140
      31A     -0.583957    32A     -0.580606    33A     -0.553702
      34A     -0.531504    35A     -0.528148    36A     -0.504530
      37A     -0.436017    38A     -0.421346    39A     -0.405328
      40A     -0.381501    41A     -0.378896    42A     -0.291083

  @DF-RHF Final Energy:  -812.95523308735551

   => Energetics <=

    Nuclear Repulsion Energy =            627.3823745520045350
    One-Electron Energy =               -2357.9153261846126952
    Two-Electron Energy =                 917.5777185452527647
    Total Energy =                       -812.9552330873555093
  Basis Set: (AUG-CC-PVTZ AUX)
    Blend: AUG-CC-PVTZ-RI
    Molecular point group: c1

    Geometry (in Angstrom), charge = 0, multiplicity = 1:

       Center              X                  Y                   Z               Mass
    ------------   -----------------  -----------------  -----------------  -----------------
         S            1.743306281796    -1.156427750604    -0.000108916208    31.972071174400
         N           -1.207801718204    -1.084982750604     0.000085083792    14.003074004430
         N            1.417812281796     1.412597249396    -0.000055916208    14.003074004430
         C           -0.707336718204     0.167930249396     0.000041083792    12.000000000000
         C            0.651070781796     0.095440149396    -0.000030616208    12.000000000000
         C           -1.505332718204     1.320651249396     0.000059083792    12.000000000000
         C           -2.887551718204     1.162542249396     0.000130083792    12.000000000000
         C           -3.422576718204    -0.127745750604     0.000177083792    12.000000000000
         C           -2.544771718204    -1.212608750604     0.000151083792    12.000000000000
         C            3.132151281796    -0.153689750604    -0.000165916208    12.000000000000
         C            2.764300281796     1.173904249396    -0.000123916208    12.000000000000
         H           -1.030989718204     2.297248249396     0.000020083792     1.007825032230
         H           -3.539914718204     2.032426249396     0.000147083792     1.007825032230
         H           -4.496373718204    -0.292414750604     0.000232083792     1.007825032230
         H           -2.921230718204    -2.234065750604     0.000185083792     1.007825032230
         H            4.131102281796    -0.570547750604    -0.000222916208     1.007825032230
         H            3.454520281796     2.010668249396    -0.000144916208     1.007825032230

  Basis Set: AUG-CC-PVTZ
    Blend: AUG-CC-PVTZ
  Basis Set: (AUG-CC-PVTZ AUX)
    Blend: AUG-CC-PVTZ-JKFIT
	 Reference Energy          =    -812.9552330873555093 [Eh]
	 Singles Energy            =      -0.0000000000000000 [Eh]
	 Same-Spin Energy          =      -0.5323057289069721 [Eh]
	 Opposite-Spin Energy      =      -1.5645668089766889 [Eh]
	 Correlation Energy        =      -2.0968725378836610 [Eh]
	 Total Energy              =    -815.0521056252391645 [Eh]

	 ================> DF-SCS-MP2 Energies <==================
	-----------------------------------------------------------
	 SCS Same-Spin Scale       =       0.3333333333333333 [-]
	 SCS Opposite-Spin Scale   =       1.2000000000000000 [-]
	 SCS Same-Spin Energy      =      -0.1774352429689907 [Eh]
	 SCS Opposite-Spin Energy  =      -1.8774801707720266 [Eh]
	 SCS Correlation Energy    =      -2.0549154137410173 [Eh]
	 SCS Total Energy          =    -815.0101485010965234 [Eh]
	-----------------------------------------------------------

  Dipole Moment: [D]
     X:    -0.3565      Y:     0.0135      Z:    -0.0000     Total:     0.3567

*** Psi4 exiting successfully. Buy a developer a beer!
