                               Psi4 1.3.2 release

  ==> Input File <==

--------------------------------------------------------------------------
#psi4
#
memory 32 gb

molecule  {
0 1
  S        1.7618360    -1.1877300    -0.0001100
  N       -1.1892720    -1.1162850     0.0000840
  N        1.4363420     1.3812950    -0.0000570
  C       -0.6888070     0.1366280     0.0000400
  C        0.7952337     0.2540741    -0.0000360
  C       -1.4868030     1.2893490     0.0000580
  C       -2.8690220     1.1312400     0.0001290
  C       -3.4040470    -0.1590480     0.0001760
  C       -2.5262420    -1.2439110     0.0001500
  C        3.1506810    -0.1849920    -0.0001670
  C        2.7828300     1.1426020    -0.0001250
  H       -1.0124600     2.2659460     0.0000190
  H       -3.5213850     2.0011240     0.0001460
  H       -4.4778440    -0.3237170     0.0002310
  H       -2.9027010    -2.2653680     0.0001840
  H        4.1496320    -0.6018500    -0.0002240
  H        3.4730500     1.9793660    -0.0001460
units angstrom
no_reorient  #important for SAPT in psi4, default
symmetry c1  #important for SAPT in psi4, default
}

set PROPERTIES_ORIGIN ["COM"]
properties('MP2/aug-cc-pvtz', properties = ['dipole'])
--------------------------------------------------------------------------

    Molecular point group: c1
  Charge       = 0
  Multiplicity = 1
  Basis Set: AUG-CC-PVTZ
    Blend: AUG-CC-PVTZ
  Basis Set: (AUG-CC-PVTZ AUX)
    Blend: AUG-CC-PVTZ-JKFIT

    Orbital Energies [Eh]
    ---------------------

    Doubly Occupied:

       1A    -91.994077     2A    -15.578927     3A    -15.572847
       4A    -11.312874     5A    -11.298639     6A    -11.285385
       7A    -11.270012     8A    -11.267296     9A    -11.265024
      10A    -11.250974    11A    -11.249315    12A     -8.994347
      13A     -6.675126    14A     -6.674539    15A     -6.673851
      16A     -1.293657    17A     -1.262321    18A     -1.096095
      19A     -1.068104    20A     -1.062044    21A     -0.986552
      22A     -0.874130    23A     -0.868365    24A     -0.793703
      25A     -0.764729    26A     -0.707970    27A     -0.680231
      28A     -0.668278    29A     -0.639069    30A     -0.592947
      31A     -0.588104    32A     -0.582771    33A     -0.558870
      34A     -0.537687    35A     -0.527040    36A     -0.503183
      37A     -0.446184    38A     -0.423695    39A     -0.398783
      40A     -0.393679    41A     -0.370290    42A     -0.309690

  @DF-RHF Final Energy:  -813.01062695723112

   => Energetics <=

    Nuclear Repulsion Energy =            627.0064663929566677
    One-Electron Energy =               -2357.3113731493936029
    Two-Electron Energy =                 917.2942797992059241
    Total Energy =                       -813.0106269572311248
  Basis Set: (AUG-CC-PVTZ AUX)
    Blend: AUG-CC-PVTZ-RI
    Molecular point group: c1

    Geometry (in Angstrom), charge = 0, multiplicity = 1:

       Center              X                  Y                   Z               Mass
    ------------   -----------------  -----------------  -----------------  -----------------
         S            1.734001564475    -1.170494913186    -0.000108597739    31.972071174400
         N           -1.217106435525    -1.099049913186     0.000085402261    14.003074004430
         N            1.408507564475     1.398530086814    -0.000055597739    14.003074004430
         C           -0.716641435525     0.153863086814     0.000041402261    12.000000000000
         C            0.767399264475     0.271309186814    -0.000034597739    12.000000000000
         C           -1.514637435525     1.306584086814     0.000059402261    12.000000000000
         C           -2.896856435525     1.148475086814     0.000130402261    12.000000000000
         C           -3.431881435525    -0.141812913186     0.000177402261    12.000000000000
         C           -2.554076435525    -1.226675913186     0.000151402261    12.000000000000
         C            3.122846564475    -0.167756913186    -0.000165597739    12.000000000000
         C            2.754995564475     1.159837086814    -0.000123597739    12.000000000000
         H           -1.040294435525     2.283181086814     0.000020402261     1.007825032230
         H           -3.549219435525     2.018359086814     0.000147402261     1.007825032230
         H           -4.505678435525    -0.306481913186     0.000232402261     1.007825032230
         H           -2.930535435525    -2.248132913186     0.000185402261     1.007825032230
         H            4.121797564475    -0.584614913186    -0.000222597739     1.007825032230
         H            3.445215564475     1.996601086814    -0.000144597739     1.007825032230

  Basis Set: AUG-CC-PVTZ
    Blend: AUG-CC-PVTZ
  Basis Set: (AUG-CC-PVTZ AUX)
    Blend: AUG-CC-PVTZ-JKFIT
	 Reference Energy          =    -813.0106269572311248 [Eh]
	 Singles Energy            =      -0.0000000000000000 [Eh]
	 Same-Spin Energy          =      -0.5244014434273618 [Eh]
	 Opposite-Spin Energy      =      -1.5523007208495307 [Eh]
	 Correlation Energy        =      -2.0767021642768926 [Eh]
	 Total Energy              =    -815.0873291215079917 [Eh]

	 ================> DF-SCS-MP2 Energies <==================
	-----------------------------------------------------------
	 SCS Same-Spin Scale       =       0.3333333333333333 [-]
	 SCS Opposite-Spin Scale   =       1.2000000000000000 [-]
	 SCS Same-Spin Energy      =      -0.1748004811424539 [Eh]
	 SCS Opposite-Spin Energy  =      -1.8627608650194367 [Eh]
	 SCS Correlation Energy    =      -2.0375613461618904 [Eh]
	 SCS Total Energy          =    -815.0481883033929762 [Eh]
	-----------------------------------------------------------

  Dipole Moment: [D]
     X:    -0.8357      Y:     0.2205      Z:    -0.0000     Total:     0.8643

*** Psi4 exiting successfully. Buy a developer a beer!
