                               Psi4 1.3.2 release

  ==> Input File <==

--------------------------------------------------------------------------
#psi4
#
memory 32 gb

molecule  {
0 1
  S        1.9053271    -1.0762730    -0.0001166
  N       -1.1892720    -1.1162850     0.0000840
  N        1.4363420     1.3812950    -0.0000570
  C       -0.6888070     0.1366280     0.0000400
  C        0.7702180     0.2369850    -0.0000350
  C       -1.4868030     1.2893490     0.0000580
  C       -2.8690220     1.1312400     0.0001290
  C       -3.4040470    -0.1590480     0.0001760
  C       -2.5262420    -1.2439110     0.0001500
  C        3.1506810    -0.1849920    -0.0001670
  C        2.7828300     1.1426020    -0.0001250
  H       -1.0124600     2.2659460     0.0000190
  H       -3.5213850     2.0011240     0.0001460
  H       -4.4778440    -0.3237170     0.0002310
  H       -2.9027010    -2.2653680     0.0001840
  H        4.1496320    -0.6018500    -0.0002240
  H        3.4730500     1.9793660    -0.0001460
units angstrom
no_reorient  #important for SAPT in psi4, default
symmetry c1  #important for SAPT in psi4, default
}

set PROPERTIES_ORIGIN ["COM"]
properties('MP2/aug-cc-pvtz', properties = ['dipole'])
--------------------------------------------------------------------------

    Molecular point group: c1
  Charge       = 0
  Multiplicity = 1
  Basis Set: AUG-CC-PVTZ
    Blend: AUG-CC-PVTZ
  Basis Set: (AUG-CC-PVTZ AUX)
    Blend: AUG-CC-PVTZ-JKFIT

    Orbital Energies [Eh]
    ---------------------

    Doubly Occupied:

       1A    -91.989876     2A    -15.575701     3A    -15.575639
       4A    -11.305771     5A    -11.298166     6A    -11.283275
       7A    -11.265969     8A    -11.265810     9A    -11.253813
      10A    -11.248511    11A    -11.247852    12A     -8.995716
      13A     -6.677212    14A     -6.675685    15A     -6.675059
      16A     -1.296099    17A     -1.261647    18A     -1.111515
      19A     -1.092783    20A     -1.061821    21A     -0.982076
      22A     -0.875438    23A     -0.867890    24A     -0.786126
      25A     -0.773821    26A     -0.718031    27A     -0.681872
      28A     -0.667842    29A     -0.642507    30A     -0.597476
      31A     -0.589042    32A     -0.584457    33A     -0.568510
      34A     -0.542426    35A     -0.531436    36A     -0.499873
      37A     -0.441653    38A     -0.422578    39A     -0.415478
      40A     -0.391534    41A     -0.367020    42A     -0.300674

  @DF-RHF Final Energy:  -812.98489756944309

   => Energetics <=

    Nuclear Repulsion Energy =            630.5194089256881398
    One-Electron Energy =               -2364.1972547493760430
    Two-Electron Energy =                 920.6929482542448113
    Total Energy =                       -812.9848975694430919
  Basis Set: (AUG-CC-PVTZ AUX)
    Blend: AUG-CC-PVTZ-RI
    Molecular point group: c1

    Geometry (in Angstrom), charge = 0, multiplicity = 1:

       Center              X                  Y                   Z               Mass
    ------------   -----------------  -----------------  -----------------  -----------------
         S            1.851030607508    -1.079765815831    -0.000113969438    31.972071174400
         N           -1.243568492492    -1.119777815831     0.000086630562    14.003074004430
         N            1.382045507508     1.377802184169    -0.000054369438    14.003074004430
         C           -0.743103492492     0.133135184169     0.000042630562    12.000000000000
         C            0.715921507508     0.233492184169    -0.000032369438    12.000000000000
         C           -1.541099492492     1.285856184169     0.000060630562    12.000000000000
         C           -2.923318492492     1.127747184169     0.000131630562    12.000000000000
         C           -3.458343492492    -0.162540815831     0.000178630562    12.000000000000
         C           -2.580538492492    -1.247403815831     0.000152630562    12.000000000000
         C            3.096384507508    -0.188484815831    -0.000164369438    12.000000000000
         C            2.728533507508     1.139109184169    -0.000122369438    12.000000000000
         H           -1.066756492492     2.262453184169     0.000021630562     1.007825032230
         H           -3.575681492492     1.997631184169     0.000148630562     1.007825032230
         H           -4.532140492492    -0.327209815831     0.000233630562     1.007825032230
         H           -2.956997492492    -2.268860815831     0.000186630562     1.007825032230
         H            4.095335507508    -0.605342815831    -0.000221369438     1.007825032230
         H            3.418753507508     1.975873184169    -0.000143369438     1.007825032230

  Basis Set: AUG-CC-PVTZ
    Blend: AUG-CC-PVTZ
  Basis Set: (AUG-CC-PVTZ AUX)
    Blend: AUG-CC-PVTZ-JKFIT
	 Reference Energy          =    -812.9848975694430919 [Eh]
	 Singles Energy            =      -0.0000000000000000 [Eh]
	 Same-Spin Energy          =      -0.5275133025304460 [Eh]
	 Opposite-Spin Energy      =      -1.5528460177749759 [Eh]
	 Correlation Energy        =      -2.0803593203054218 [Eh]
	 Total Energy              =    -815.0652568897485253 [Eh]

	 ================> DF-SCS-MP2 Energies <==================
	-----------------------------------------------------------
	 SCS Same-Spin Scale       =       0.3333333333333333 [-]
	 SCS Opposite-Spin Scale   =       1.2000000000000000 [-]
	 SCS Same-Spin Energy      =      -0.1758377675101487 [Eh]
	 SCS Opposite-Spin Energy  =      -1.8634152213299711 [Eh]
	 SCS Correlation Energy    =      -2.0392529888401199 [Eh]
	 SCS Total Energy          =    -815.0241505582831678 [Eh]
	-----------------------------------------------------------

  Dipole Moment: [D]
     X:    -0.4870      Y:     0.1482      Z:    -0.0000     Total:     0.5091

*** Psi4 exiting successfully. Buy a developer a beer!
