                               Psi4 1.3.2 release

  ==> Input File <==

--------------------------------------------------------------------------
#psi4
#
memory 32 gb

molecule  {
0 1
  S        1.7618360    -1.1877300    -0.0001100
  N       -1.1892720    -1.1162850     0.0000840
  N        1.4363420     1.3812950    -0.0000570
  C       -0.6888070     0.1366280     0.0000400
  C        0.7306879     0.2609295    -0.0000328
  C       -1.4868030     1.2893490     0.0000580
  C       -2.8690220     1.1312400     0.0001290
  C       -3.4040470    -0.1590480     0.0001760
  C       -2.5262420    -1.2439110     0.0001500
  C        3.1506810    -0.1849920    -0.0001670
  C        2.7828300     1.1426020    -0.0001250
  H       -1.0124600     2.2659460     0.0000190
  H       -3.5213850     2.0011240     0.0001460
  H       -4.4778440    -0.3237170     0.0002310
  H       -2.9027010    -2.2653680     0.0001840
  H        4.1496320    -0.6018500    -0.0002240
  H        3.4730500     1.9793660    -0.0001460
units angstrom
no_reorient  #important for SAPT in psi4, default
symmetry c1  #important for SAPT in psi4, default
}

set PROPERTIES_ORIGIN ["COM"]
properties('MP2/aug-cc-pvtz', properties = ['dipole'])
--------------------------------------------------------------------------

    Molecular point group: c1
  Charge       = 0
  Multiplicity = 1
  Basis Set: AUG-CC-PVTZ
    Blend: AUG-CC-PVTZ
  Basis Set: (AUG-CC-PVTZ AUX)
    Blend: AUG-CC-PVTZ-JKFIT

    Orbital Energies [Eh]
    ---------------------

    Doubly Occupied:

       1A    -91.992906     2A    -15.580295     3A    -15.575876
       4A    -11.315072     5A    -11.295799     6A    -11.286592
       7A    -11.270059     8A    -11.268334     9A    -11.266651
      10A    -11.252714    11A    -11.251129    12A     -8.992287
      13A     -6.673045    14A     -6.672460    15A     -6.671859
      16A     -1.286957    17A     -1.259872    18A     -1.097515
      19A     -1.074348    20A     -1.057966    21A     -0.984850
      22A     -0.882190    23A     -0.871029    24A     -0.790810
      25A     -0.768464    26A     -0.705701    27A     -0.681276
      28A     -0.670249    29A     -0.641770    30A     -0.598837
      31A     -0.589592    32A     -0.582297    33A     -0.555338
      34A     -0.534616    35A     -0.533085    36A     -0.500033
      37A     -0.441541    38A     -0.421254    39A     -0.401918
      40A     -0.392731    41A     -0.371380    42A     -0.303986

  @DF-RHF Final Energy:  -813.00610538051365

   => Energetics <=

    Nuclear Repulsion Energy =            626.7324719908024235
    One-Electron Energy =               -2356.7477873515222200
    Two-Electron Energy =                 917.0092099802061512
    Total Energy =                       -813.0061053805136453
  Basis Set: (AUG-CC-PVTZ AUX)
    Blend: AUG-CC-PVTZ-RI
    Molecular point group: c1

    Geometry (in Angstrom), charge = 0, multiplicity = 1:

       Center              X                  Y                   Z               Mass
    ------------   -----------------  -----------------  -----------------  -----------------
         S            1.738781992127    -1.171002641709    -0.000108834739    31.972071174400
         N           -1.212326007873    -1.099557641709     0.000085165261    14.003074004430
         N            1.413287992127     1.398022358291    -0.000055834739    14.003074004430
         C           -0.711861007873     0.153355358291     0.000041165261    12.000000000000
         C            0.707633892127     0.277656858291    -0.000031634739    12.000000000000
         C           -1.509857007873     1.306076358291     0.000059165261    12.000000000000
         C           -2.892076007873     1.147967358291     0.000130165261    12.000000000000
         C           -3.427101007873    -0.142320641709     0.000177165261    12.000000000000
         C           -2.549296007873    -1.227183641709     0.000151165261    12.000000000000
         C            3.127626992127    -0.168264641709    -0.000165834739    12.000000000000
         C            2.759775992127     1.159329358291    -0.000123834739    12.000000000000
         H           -1.035514007873     2.282673358291     0.000020165261     1.007825032230
         H           -3.544439007873     2.017851358291     0.000147165261     1.007825032230
         H           -4.500898007873    -0.306989641709     0.000232165261     1.007825032230
         H           -2.925755007873    -2.248640641709     0.000185165261     1.007825032230
         H            4.126577992127    -0.585122641709    -0.000222834739     1.007825032230
         H            3.449995992127     1.996093358291    -0.000144834739     1.007825032230

  Basis Set: AUG-CC-PVTZ
    Blend: AUG-CC-PVTZ
  Basis Set: (AUG-CC-PVTZ AUX)
    Blend: AUG-CC-PVTZ-JKFIT
	 Reference Energy          =    -813.0061053805136453 [Eh]
	 Singles Energy            =      -0.0000000000000000 [Eh]
	 Same-Spin Energy          =      -0.5259060175595347 [Eh]
	 Opposite-Spin Energy      =      -1.5546084638212805 [Eh]
	 Correlation Energy        =      -2.0805144813808152 [Eh]
	 Total Energy              =    -815.0866198618944054 [Eh]

	 ================> DF-SCS-MP2 Energies <==================
	-----------------------------------------------------------
	 SCS Same-Spin Scale       =       0.3333333333333333 [-]
	 SCS Opposite-Spin Scale   =       1.2000000000000000 [-]
	 SCS Same-Spin Energy      =      -0.1753020058531782 [Eh]
	 SCS Opposite-Spin Energy  =      -1.8655301565855364 [Eh]
	 SCS Correlation Energy    =      -2.0408321624387149 [Eh]
	 SCS Total Energy          =    -815.0469375429523780 [Eh]
	-----------------------------------------------------------

  Dipole Moment: [D]
     X:    -0.8886      Y:     0.2967      Z:    -0.0000     Total:     0.9368

*** Psi4 exiting successfully. Buy a developer a beer!
