                               Psi4 1.3.2 release

  ==> Input File <==

--------------------------------------------------------------------------
#psi4
#
memory 32 gb

molecule  {
0 1
  S        1.7618360    -1.1877300    -0.0001100
  N       -1.1892720    -1.1162850     0.0000840
  N        1.4363420     1.3812950    -0.0000570
  C       -0.6888070     0.1366280     0.0000400
  C        0.7682443     0.2624332    -0.0000354
  C       -1.4868030     1.2893490     0.0000580
  C       -2.8690220     1.1312400     0.0001290
  C       -3.4040470    -0.1590480     0.0001760
  C       -2.5262420    -1.2439110     0.0001500
  C        3.1506810    -0.1849920    -0.0001670
  C        2.7828300     1.1426020    -0.0001250
  H       -1.0124600     2.2659460     0.0000190
  H       -3.5213850     2.0011240     0.0001460
  H       -4.4778440    -0.3237170     0.0002310
  H       -2.9027010    -2.2653680     0.0001840
  H        4.1496320    -0.6018500    -0.0002240
  H        3.4730500     1.9793660    -0.0001460
units angstrom
no_reorient  #important for SAPT in psi4, default
symmetry c1  #important for SAPT in psi4, default
}

set PROPERTIES_ORIGIN ["COM"]
properties('MP2/aug-cc-pvtz', properties = ['dipole'])
--------------------------------------------------------------------------

    Molecular point group: c1
  Charge       = 0
  Multiplicity = 1
  Basis Set: AUG-CC-PVTZ
    Blend: AUG-CC-PVTZ
  Basis Set: (AUG-CC-PVTZ AUX)
    Blend: AUG-CC-PVTZ-JKFIT

    Orbital Energies [Eh]
    ---------------------

    Doubly Occupied:

       1A    -91.992985     2A    -15.579690     3A    -15.573961
       4A    -11.313761     5A    -11.297699     6A    -11.286009
       7A    -11.269940     8A    -11.267780     9A    -11.265820
      10A    -11.251792    11A    -11.250087    12A     -8.992843
      13A     -6.673611    14A     -6.673022    15A     -6.672373
      16A     -1.291212    17A     -1.262149    18A     -1.096708
      19A     -1.069647    20A     -1.061066    21A     -0.985696
      22A     -0.877485    23A     -0.869540    24A     -0.792865
      25A     -0.766362    26A     -0.706951    27A     -0.680799
      28A     -0.669137    29A     -0.640316    30A     -0.595730
      31A     -0.588997    32A     -0.582600    33A     -0.557358
      34A     -0.536692    35A     -0.529844    36A     -0.501614
      37A     -0.443934    38A     -0.422623    39A     -0.400211
      40A     -0.393473    41A     -0.370645    42A     -0.307542

  @DF-RHF Final Energy:  -813.01017343425997

   => Energetics <=

    Nuclear Repulsion Energy =            626.8646848296218650
    One-Electron Energy =               -2357.0245778071889617
    Two-Electron Energy =                 917.1497195433071283
    Total Energy =                       -813.0101734342599684
  Basis Set: (AUG-CC-PVTZ AUX)
    Blend: AUG-CC-PVTZ-RI
    Molecular point group: c1

    Geometry (in Angstrom), charge = 0, multiplicity = 1:

       Center              X                  Y                   Z               Mass
    ------------   -----------------  -----------------  -----------------  -----------------
         S            1.736000468727    -1.171114009592    -0.000108642177    31.972071174400
         N           -1.215107531273    -1.099669009592     0.000085357823    14.003074004430
         N            1.410506468727     1.397910990408    -0.000055642177    14.003074004430
         C           -0.714642531273     0.153243990408     0.000041357823    12.000000000000
         C            0.742408768727     0.279049190408    -0.000034042177    12.000000000000
         C           -1.512638531273     1.305964990408     0.000059357823    12.000000000000
         C           -2.894857531273     1.147855990408     0.000130357823    12.000000000000
         C           -3.429882531273    -0.142432009592     0.000177357823    12.000000000000
         C           -2.552077531273    -1.227295009592     0.000151357823    12.000000000000
         C            3.124845468727    -0.168376009592    -0.000165642177    12.000000000000
         C            2.756994468727     1.159217990408    -0.000123642177    12.000000000000
         H           -1.038295531273     2.282561990408     0.000020357823     1.007825032230
         H           -3.547220531273     2.017739990408     0.000147357823     1.007825032230
         H           -4.503679531273    -0.307101009592     0.000232357823     1.007825032230
         H           -2.928536531273    -2.248752009592     0.000185357823     1.007825032230
         H            4.123796468727    -0.585234009592    -0.000222642177     1.007825032230
         H            3.447214468727     1.995981990408    -0.000144642177     1.007825032230

  Basis Set: AUG-CC-PVTZ
    Blend: AUG-CC-PVTZ
  Basis Set: (AUG-CC-PVTZ AUX)
    Blend: AUG-CC-PVTZ-JKFIT
	 Reference Energy          =    -813.0101734342599684 [Eh]
	 Singles Energy            =      -0.0000000000000000 [Eh]
	 Same-Spin Energy          =      -0.5248417578763120 [Eh]
	 Opposite-Spin Energy      =      -1.5529875552520127 [Eh]
	 Correlation Energy        =      -2.0778293131283245 [Eh]
	 Total Energy              =    -815.0880027473882592 [Eh]

	 ================> DF-SCS-MP2 Energies <==================
	-----------------------------------------------------------
	 SCS Same-Spin Scale       =       0.3333333333333333 [-]
	 SCS Opposite-Spin Scale   =       1.2000000000000000 [-]
	 SCS Same-Spin Energy      =      -0.1749472526254373 [Eh]
	 SCS Opposite-Spin Energy  =      -1.8635850663024152 [Eh]
	 SCS Correlation Energy    =      -2.0385323189278526 [Eh]
	 SCS Total Energy          =    -815.0487057531878463 [Eh]
	-----------------------------------------------------------

  Dipole Moment: [D]
     X:    -0.8780      Y:     0.2691      Z:    -0.0000     Total:     0.9183

*** Psi4 exiting successfully. Buy a developer a beer!
