                               Psi4 1.3.2 release

  ==> Input File <==

--------------------------------------------------------------------------
#psi4
#
memory 32 gb

molecule  {
0 1
  S        1.7618360    -1.1877300    -0.0001100
  N       -1.1892720    -1.1162850     0.0000840
  N        1.4363420     1.3812950    -0.0000570
  C       -0.6888070     0.1366280     0.0000400
  C        0.7702180     0.2369850    -0.0000350
  C       -1.4868030     1.2893490     0.0000580
  C       -2.8690220     1.1312400     0.0001290
  C       -3.4040470    -0.1590480     0.0001760
  C       -2.5262420    -1.2439110     0.0001500
  C        3.1506810    -0.1849920    -0.0001670
  C        2.7828300     1.1426020    -0.0001250
  H       -1.0124600     2.2659460     0.0000190
  H       -3.5213850     2.0011240     0.0001460
  H       -4.4778440    -0.3237170     0.0002310
  H       -2.9027010    -2.2653680     0.0001840
  H        4.1496320    -0.6018500    -0.0002240
  H        3.3457855     1.8250814    -0.0001421
units angstrom
no_reorient  #important for SAPT in psi4, default
symmetry c1  #important for SAPT in psi4, default
}

set PROPERTIES_ORIGIN ["COM"]
properties('MP2/aug-cc-pvtz', properties = ['dipole'])
--------------------------------------------------------------------------

    Molecular point group: c1
  Charge       = 0
  Multiplicity = 1
  Basis Set: AUG-CC-PVTZ
    Blend: AUG-CC-PVTZ
  Basis Set: (AUG-CC-PVTZ AUX)
    Blend: AUG-CC-PVTZ-JKFIT

    Orbital Energies [Eh]
    ---------------------

    Doubly Occupied:

       1A    -91.995147     2A    -15.578552     3A    -15.573122
       4A    -11.312718     5A    -11.296982     6A    -11.285204
       7A    -11.267314     8A    -11.264897     9A    -11.251084
      10A    -11.249625    11A    -11.247083    12A     -8.995197
      13A     -6.675966    14A     -6.675417    15A     -6.674763
      16A     -1.287169    17A     -1.260137    18A     -1.096260
      19A     -1.070134    20A     -1.062019    21A     -0.996773
      22A     -0.882115    23A     -0.869736    24A     -0.805182
      25A     -0.776104    26A     -0.707878    27A     -0.693839
      28A     -0.668682    29A     -0.645832    30A     -0.600902
      31A     -0.590708    32A     -0.580886    33A     -0.558182
      34A     -0.535569    35A     -0.529109    36A     -0.508740
      37A     -0.444318    38A     -0.424134    39A     -0.398505
      40A     -0.392085    41A     -0.371268    42A     -0.306928

  @DF-RHF Final Energy:  -812.97408603359872

   => Energetics <=

    Nuclear Repulsion Energy =            628.2014462240041439
    One-Electron Energy =               -2359.5385274826130626
    Two-Electron Energy =                 918.3629952250103088
    Total Energy =                       -812.9740860335987236
  Basis Set: (AUG-CC-PVTZ AUX)
    Blend: AUG-CC-PVTZ-RI
    Molecular point group: c1

    Geometry (in Angstrom), charge = 0, multiplicity = 1:

       Center              X                  Y                   Z               Mass
    ------------   -----------------  -----------------  -----------------  -----------------
         S            1.736645898997    -1.168269573238    -0.000108696060    31.972071174400
         N           -1.214462101003    -1.096824573238     0.000085303940    14.003074004430
         N            1.411151898997     1.400755426762    -0.000055696060    14.003074004430
         C           -0.713997101003     0.156088426762     0.000041303940    12.000000000000
         C            0.745027898997     0.256445426762    -0.000033696060    12.000000000000
         C           -1.511993101003     1.308809426762     0.000059303940    12.000000000000
         C           -2.894212101003     1.150700426762     0.000130303940    12.000000000000
         C           -3.429237101003    -0.139587573238     0.000177303940    12.000000000000
         C           -2.551432101003    -1.224450573238     0.000151303940    12.000000000000
         C            3.125490898997    -0.165531573238    -0.000165696060    12.000000000000
         C            2.757639898997     1.162062426762    -0.000123696060    12.000000000000
         H           -1.037650101003     2.285406426762     0.000020303940     1.007825032230
         H           -3.546575101003     2.020584426762     0.000147303940     1.007825032230
         H           -4.503034101003    -0.304256573238     0.000232303940     1.007825032230
         H           -2.927891101003    -2.245907573238     0.000185303940     1.007825032230
         H            4.124441898997    -0.582389573238    -0.000222696060     1.007825032230
         H            3.320595398997     1.844541826762    -0.000140796060     1.007825032230

  Basis Set: AUG-CC-PVTZ
    Blend: AUG-CC-PVTZ
  Basis Set: (AUG-CC-PVTZ AUX)
    Blend: AUG-CC-PVTZ-JKFIT
	 Reference Energy          =    -812.9740860335987236 [Eh]
	 Singles Energy            =      -0.0000000000000000 [Eh]
	 Same-Spin Energy          =      -0.5250846949708967 [Eh]
	 Opposite-Spin Energy      =      -1.5532450097530592 [Eh]
	 Correlation Energy        =      -2.0783297047239557 [Eh]
	 Total Energy              =    -815.0524157383226793 [Eh]

	 ================> DF-SCS-MP2 Energies <==================
	-----------------------------------------------------------
	 SCS Same-Spin Scale       =       0.3333333333333333 [-]
	 SCS Opposite-Spin Scale   =       1.2000000000000000 [-]
	 SCS Same-Spin Energy      =      -0.1750282316569656 [Eh]
	 SCS Opposite-Spin Energy  =      -1.8638940117036711 [Eh]
	 SCS Correlation Energy    =      -2.0389222433606369 [Eh]
	 SCS Total Energy          =    -815.0130082769593400 [Eh]
	-----------------------------------------------------------

  Dipole Moment: [D]
     X:    -0.7710      Y:     0.1823      Z:    -0.0000     Total:     0.7923

*** Psi4 exiting successfully. Buy a developer a beer!
