                               Psi4 1.3.2 release

  ==> Input File <==

--------------------------------------------------------------------------
#psi4
#
memory 32 gb

molecule  {
0 1
  S        1.7618360    -1.1877300    -0.0001100
  N       -1.1892720    -1.1162850     0.0000840
  N        1.4363420     1.3812950    -0.0000570
  C       -0.6888070     0.1366280     0.0000400
  C        0.8699823     0.2438471    -0.0000401
  C       -1.4868030     1.2893490     0.0000580
  C       -2.8690220     1.1312400     0.0001290
  C       -3.4040470    -0.1590480     0.0001760
  C       -2.5262420    -1.2439110     0.0001500
  C        3.1506810    -0.1849920    -0.0001670
  C        2.7828300     1.1426020    -0.0001250
  H       -1.0124600     2.2659460     0.0000190
  H       -3.5213850     2.0011240     0.0001460
  H       -4.4778440    -0.3237170     0.0002310
  H       -2.9027010    -2.2653680     0.0001840
  H        4.1496320    -0.6018500    -0.0002240
  H        3.4730500     1.9793660    -0.0001460
units angstrom
no_reorient  #important for SAPT in psi4, default
symmetry c1  #important for SAPT in psi4, default
}

set PROPERTIES_ORIGIN ["COM"]
properties('MP2/aug-cc-pvtz', properties = ['dipole'])
--------------------------------------------------------------------------

    Molecular point group: c1
  Charge       = 0
  Multiplicity = 1
  Basis Set: AUG-CC-PVTZ
    Blend: AUG-CC-PVTZ
  Basis Set: (AUG-CC-PVTZ AUX)
    Blend: AUG-CC-PVTZ-JKFIT

    Orbital Energies [Eh]
    ---------------------

    Doubly Occupied:

       1A    -91.995778     2A    -15.576959     3A    -15.569976
       4A    -11.310753     5A    -11.300241     6A    -11.283782
       7A    -11.270520     8A    -11.265935     9A    -11.263406
      10A    -11.248808    11A    -11.247213    12A     -8.997234
      13A     -6.678066    14A     -6.677398    15A     -6.676623
      16A     -1.305123    17A     -1.261636    18A     -1.094716
      19A     -1.075923    20A     -1.054998    21A     -0.988197
      22A     -0.866707    23A     -0.864095    24A     -0.797385
      25A     -0.759514    26A     -0.710908    27A     -0.679297
      28A     -0.665838    29A     -0.636120    30A     -0.588761
      31A     -0.585736    32A     -0.584833    33A     -0.560909
      34A     -0.539806    35A     -0.518104    36A     -0.506643
      37A     -0.453084    38A     -0.423010    39A     -0.398297
      40A     -0.393001    41A     -0.368362    42A     -0.315201

  @DF-RHF Final Energy:  -813.00252536661003

   => Energetics <=

    Nuclear Repulsion Energy =            627.4261503398423656
    One-Electron Energy =               -2358.1395572536957843
    Two-Electron Energy =                 917.7108815472432752
    Total Energy =                       -813.0025253666100298
  Basis Set: (AUG-CC-PVTZ AUX)
    Blend: AUG-CC-PVTZ-RI
    Molecular point group: c1

    Geometry (in Angstrom), charge = 0, multiplicity = 1:

       Center              X                  Y                   Z               Mass
    ------------   -----------------  -----------------  -----------------  -----------------
         S            1.728465491262    -1.169737475311    -0.000108294082    31.972071174400
         N           -1.222642508738    -1.098292475311     0.000085705918    14.003074004430
         N            1.402971491262     1.399287524689    -0.000055294082    14.003074004430
         C           -0.722177508738     0.154620524689     0.000041705918    12.000000000000
         C            0.836611791262     0.261839624689    -0.000038394082    12.000000000000
         C           -1.520173508738     1.307341524689     0.000059705918    12.000000000000
         C           -2.902392508738     1.149232524689     0.000130705918    12.000000000000
         C           -3.437417508738    -0.141055475311     0.000177705918    12.000000000000
         C           -2.559612508738    -1.225918475311     0.000151705918    12.000000000000
         C            3.117310491262    -0.166999475311    -0.000165294082    12.000000000000
         C            2.749459491262     1.160594524689    -0.000123294082    12.000000000000
         H           -1.045830508738     2.283938524689     0.000020705918     1.007825032230
         H           -3.554755508738     2.019116524689     0.000147705918     1.007825032230
         H           -4.511214508738    -0.305724475311     0.000232705918     1.007825032230
         H           -2.936071508738    -2.247375475311     0.000185705918     1.007825032230
         H            4.116261491262    -0.583857475311    -0.000222294082     1.007825032230
         H            3.439679491262     1.997358524689    -0.000144294082     1.007825032230

  Basis Set: AUG-CC-PVTZ
    Blend: AUG-CC-PVTZ
  Basis Set: (AUG-CC-PVTZ AUX)
    Blend: AUG-CC-PVTZ-JKFIT
	 Reference Energy          =    -813.0025253666100298 [Eh]
	 Singles Energy            =      -0.0000000000000000 [Eh]
	 Same-Spin Energy          =      -0.5234614351300582 [Eh]
	 Opposite-Spin Energy      =      -1.5510032301459411 [Eh]
	 Correlation Energy        =      -2.0744646652759995 [Eh]
	 Total Energy              =    -815.0769900318859982 [Eh]

	 ================> DF-SCS-MP2 Energies <==================
	-----------------------------------------------------------
	 SCS Same-Spin Scale       =       0.3333333333333333 [-]
	 SCS Opposite-Spin Scale   =       1.2000000000000000 [-]
	 SCS Same-Spin Energy      =      -0.1744871450433527 [Eh]
	 SCS Opposite-Spin Energy  =      -1.8612038761751293 [Eh]
	 SCS Correlation Energy    =      -2.0356910212184820 [Eh]
	 SCS Total Energy          =    -815.0382163878284700 [Eh]
	-----------------------------------------------------------

  Dipole Moment: [D]
     X:    -0.7376      Y:     0.1216      Z:    -0.0000     Total:     0.7475

*** Psi4 exiting successfully. Buy a developer a beer!
