                               Psi4 1.3.2 release

  ==> Input File <==

--------------------------------------------------------------------------
#psi4
#
memory 32 gb

molecule  {
0 1
  S        1.7976771    -1.2355892    -0.0001127
  N       -1.1892720    -1.1162850     0.0000840
  N        1.4363420     1.3812950    -0.0000570
  C       -0.6888070     0.1366280     0.0000400
  C        0.7702180     0.2369850    -0.0000350
  C       -1.4868030     1.2893490     0.0000580
  C       -2.8690220     1.1312400     0.0001290
  C       -3.4040470    -0.1590480     0.0001760
  C       -2.5262420    -1.2439110     0.0001500
  C        3.1506810    -0.1849920    -0.0001670
  C        2.7828300     1.1426020    -0.0001250
  H       -1.0124600     2.2659460     0.0000190
  H       -3.5213850     2.0011240     0.0001460
  H       -4.4778440    -0.3237170     0.0002310
  H       -2.9027010    -2.2653680     0.0001840
  H        4.1496320    -0.6018500    -0.0002240
  H        3.4730500     1.9793660    -0.0001460
units angstrom
no_reorient  #important for SAPT in psi4, default
symmetry c1  #important for SAPT in psi4, default
}

set PROPERTIES_ORIGIN ["COM"]
properties('MP2/aug-cc-pvtz', properties = ['dipole'])
--------------------------------------------------------------------------

    Molecular point group: c1
  Charge       = 0
  Multiplicity = 1
  Basis Set: AUG-CC-PVTZ
    Blend: AUG-CC-PVTZ
  Basis Set: (AUG-CC-PVTZ AUX)
    Blend: AUG-CC-PVTZ-JKFIT

    Orbital Energies [Eh]
    ---------------------

    Doubly Occupied:

       1A    -91.996864     2A    -15.579170     3A    -15.577998
       4A    -11.319391     5A    -11.297891     6A    -11.285577
       7A    -11.270027     8A    -11.267847     9A    -11.266120
      10A    -11.251721    11A    -11.250579    12A     -8.995751
      13A     -6.676513    14A     -6.675839    15A     -6.675264
      16A     -1.285387    17A     -1.259809    18A     -1.096534
      19A     -1.068825    20A     -1.059003    21A     -0.982084
      22A     -0.877121    23A     -0.869347    24A     -0.790807
      25A     -0.764795    26A     -0.707110    27A     -0.680282
      28A     -0.669042    29A     -0.639189    30A     -0.594059
      31A     -0.587692    32A     -0.578842    33A     -0.552255
      34A     -0.534752    35A     -0.528182    36A     -0.505060
      37A     -0.443899    38A     -0.425654    39A     -0.400922
      40A     -0.393489    41A     -0.370460    42A     -0.304767

  @DF-RHF Final Energy:  -813.00606672292895

   => Energetics <=

    Nuclear Repulsion Energy =            624.2048338829129079
    One-Electron Energy =               -2351.7099654546163947
    Two-Electron Energy =                 914.4990648487745375
    Total Energy =                       -813.0060667229289493
  Basis Set: (AUG-CC-PVTZ AUX)
    Blend: AUG-CC-PVTZ-RI
    Molecular point group: c1

    Geometry (in Angstrom), charge = 0, multiplicity = 1:

       Center              X                  Y                   Z               Mass
    ------------   -----------------  -----------------  -----------------  -----------------
         S            1.764622945814    -1.207644499640    -0.000110839017    31.972071174400
         N           -1.222326154186    -1.088340299640     0.000085860983    14.003074004430
         N            1.403287845814     1.409239700360    -0.000055139017    14.003074004430
         C           -0.721861154186     0.164572700360     0.000041860983    12.000000000000
         C            0.737163845814     0.264929700360    -0.000033139017    12.000000000000
         C           -1.519857154186     1.317293700360     0.000059860983    12.000000000000
         C           -2.902076154186     1.159184700360     0.000130860983    12.000000000000
         C           -3.437101154186    -0.131103299640     0.000177860983    12.000000000000
         C           -2.559296154186    -1.215966299640     0.000151860983    12.000000000000
         C            3.117626845814    -0.157047299640    -0.000165139017    12.000000000000
         C            2.749775845814     1.170546700360    -0.000123139017    12.000000000000
         H           -1.045514154186     2.293890700360     0.000020860983     1.007825032230
         H           -3.554439154186     2.029068700360     0.000147860983     1.007825032230
         H           -4.510898154186    -0.295772299640     0.000232860983     1.007825032230
         H           -2.935755154186    -2.237423299640     0.000185860983     1.007825032230
         H            4.116577845814    -0.573905299640    -0.000222139017     1.007825032230
         H            3.439995845814     2.007310700360    -0.000144139017     1.007825032230

  Basis Set: AUG-CC-PVTZ
    Blend: AUG-CC-PVTZ
  Basis Set: (AUG-CC-PVTZ AUX)
    Blend: AUG-CC-PVTZ-JKFIT
	 Reference Energy          =    -813.0060667229289493 [Eh]
	 Singles Energy            =      -0.0000000000000000 [Eh]
	 Same-Spin Energy          =      -0.5251955153584095 [Eh]
	 Opposite-Spin Energy      =      -1.5546012093403183 [Eh]
	 Correlation Energy        =      -2.0797967246987277 [Eh]
	 Total Energy              =    -815.0858634476277302 [Eh]

	 ================> DF-SCS-MP2 Energies <==================
	-----------------------------------------------------------
	 SCS Same-Spin Scale       =       0.3333333333333333 [-]
	 SCS Opposite-Spin Scale   =       1.2000000000000000 [-]
	 SCS Same-Spin Energy      =      -0.1750651717861365 [Eh]
	 SCS Opposite-Spin Energy  =      -1.8655214512083820 [Eh]
	 SCS Correlation Energy    =      -2.0405866229945184 [Eh]
	 SCS Total Energy          =    -815.0466533459234597 [Eh]
	-----------------------------------------------------------

  Dipole Moment: [D]
     X:    -0.8494      Y:     0.2569      Z:    -0.0000     Total:     0.8874

*** Psi4 exiting successfully. Buy a developer a beer!
