                               Psi4 1.3.2 release

  ==> Input File <==

--------------------------------------------------------------------------
#psi4
#
memory 32 gb

molecule  {
0 1
  S        1.8742589    -1.3274107    -0.0001183
  N       -1.1892720    -1.1162850     0.0000840
  N        1.4363420     1.3812950    -0.0000570
  C       -0.6888070     0.1366280     0.0000400
  C        0.7702180     0.2369850    -0.0000350
  C       -1.4868030     1.2893490     0.0000580
  C       -2.8690220     1.1312400     0.0001290
  C       -3.4040470    -0.1590480     0.0001760
  C       -2.5262420    -1.2439110     0.0001500
  C        3.1506810    -0.1849920    -0.0001670
  C        2.7828300     1.1426020    -0.0001250
  H       -1.0124600     2.2659460     0.0000190
  H       -3.5213850     2.0011240     0.0001460
  H       -4.4778440    -0.3237170     0.0002310
  H       -2.9027010    -2.2653680     0.0001840
  H        4.1496320    -0.6018500    -0.0002240
  H        3.4730500     1.9793660    -0.0001460
units angstrom
no_reorient  #important for SAPT in psi4, default
symmetry c1  #important for SAPT in psi4, default
}

set PROPERTIES_ORIGIN ["COM"]
properties('MP2/aug-cc-pvtz', properties = ['dipole'])
--------------------------------------------------------------------------

    Molecular point group: c1
  Charge       = 0
  Multiplicity = 1
  Basis Set: AUG-CC-PVTZ
    Blend: AUG-CC-PVTZ
  Basis Set: (AUG-CC-PVTZ AUX)
    Blend: AUG-CC-PVTZ-JKFIT

    Orbital Energies [Eh]
    ---------------------

    Doubly Occupied:

       1A    -91.998045     2A    -15.584947     3A    -15.579715
       4A    -11.329398     5A    -11.299265     6A    -11.285805
       7A    -11.270049     8A    -11.268512     9A    -11.267930
      10A    -11.252543    11A    -11.252069    12A     -8.995375
      13A     -6.676117    14A     -6.675216    15A     -6.674738
      16A     -1.283028    17A     -1.259357    18A     -1.096862
      19A     -1.069709    20A     -1.054165    21A     -0.974485
      22A     -0.877767    23A     -0.869587    24A     -0.791797
      25A     -0.760681    26A     -0.706715    27A     -0.681024
      28A     -0.669384    29A     -0.638808    30A     -0.595544
      31A     -0.587670    32A     -0.575430    33A     -0.544027
      34A     -0.532549    35A     -0.521752    36A     -0.508082
      37A     -0.441684    38A     -0.426251    39A     -0.406281
      40A     -0.393853    41A     -0.368957    42A     -0.300699

  @DF-RHF Final Energy:  -812.99109653655671

   => Energetics <=

    Nuclear Repulsion Energy =            618.9911855573087678
    One-Electron Energy =               -2341.2728201334784899
    Two-Electron Energy =                 909.2905380396131250
    Total Energy =                       -812.9910965365567108
  Basis Set: (AUG-CC-PVTZ AUX)
    Blend: AUG-CC-PVTZ-RI
    Molecular point group: c1

    Geometry (in Angstrom), charge = 0, multiplicity = 1:

       Center              X                  Y                   Z               Mass
    ------------   -----------------  -----------------  -----------------  -----------------
         S            1.826093027247    -1.281347064510    -0.000115333981    31.972071174400
         N           -1.237437872753    -1.070221364510     0.000086966019    14.003074004430
         N            1.388176127247     1.427358635490    -0.000054033981    14.003074004430
         C           -0.736972872753     0.182691635490     0.000042966019    12.000000000000
         C            0.722052127247     0.283048635490    -0.000032033981    12.000000000000
         C           -1.534968872753     1.335412635490     0.000060966019    12.000000000000
         C           -2.917187872753     1.177303635490     0.000131966019    12.000000000000
         C           -3.452212872753    -0.112984364510     0.000178966019    12.000000000000
         C           -2.574407872753    -1.197847364510     0.000152966019    12.000000000000
         C            3.102515127247    -0.138928364510    -0.000164033981    12.000000000000
         C            2.734664127247     1.188665635490    -0.000122033981    12.000000000000
         H           -1.060625872753     2.312009635490     0.000021966019     1.007825032230
         H           -3.569550872753     2.047187635490     0.000148966019     1.007825032230
         H           -4.526009872753    -0.277653364510     0.000233966019     1.007825032230
         H           -2.950866872753    -2.219304364510     0.000186966019     1.007825032230
         H            4.101466127247    -0.555786364510    -0.000221033981     1.007825032230
         H            3.424884127247     2.025429635490    -0.000143033981     1.007825032230

  Basis Set: AUG-CC-PVTZ
    Blend: AUG-CC-PVTZ
  Basis Set: (AUG-CC-PVTZ AUX)
    Blend: AUG-CC-PVTZ-JKFIT
	 Reference Energy          =    -812.9910965365567108 [Eh]
	 Singles Energy            =      -0.0000000000000000 [Eh]
	 Same-Spin Energy          =      -0.5253295103311023 [Eh]
	 Opposite-Spin Energy      =      -1.5572110976929165 [Eh]
	 Correlation Energy        =      -2.0825406080240190 [Eh]
	 Total Energy              =    -815.0736371445807436 [Eh]

	 ================> DF-SCS-MP2 Energies <==================
	-----------------------------------------------------------
	 SCS Same-Spin Scale       =       0.3333333333333333 [-]
	 SCS Opposite-Spin Scale   =       1.2000000000000000 [-]
	 SCS Same-Spin Energy      =      -0.1751098367770341 [Eh]
	 SCS Opposite-Spin Energy  =      -1.8686533172314999 [Eh]
	 SCS Correlation Energy    =      -2.0437631540085341 [Eh]
	 SCS Total Energy          =    -815.0348596905652130 [Eh]
	-----------------------------------------------------------

  Dipole Moment: [D]
     X:    -0.9851      Y:     0.4189      Z:     0.0000     Total:     1.0705

*** Psi4 exiting successfully. Buy a developer a beer!
