                               Psi4 1.4a3.dev225

  ==> Input File <==

--------------------------------------------------------------------------
#psi4
#
memory 32 gb

molecule  {
0 1
  S        1.7618360    -1.1877300    -0.0001100
  N       -1.1892720    -1.1162850     0.0000840
  N        1.4363420     1.3812950    -0.0000570
  C       -0.6888070     0.1366280     0.0000400
  C        0.7702180     0.2369850    -0.0000350
  C       -1.4868030     1.2893490     0.0000580
  C       -2.8690220     1.1312400     0.0001290
  C       -3.4040470    -0.1590480     0.0001760
  C       -2.5262420    -1.2439110     0.0001500
  C        3.1506810    -0.1849920    -0.0001670
  C        2.8320624     1.1338745    -0.0001275
  H       -1.0124600     2.2659460     0.0000190
  H       -3.5213850     2.0011240     0.0001460
  H       -4.4778440    -0.3237170     0.0002310
  H       -2.9027010    -2.2653680     0.0001840
  H        4.1496320    -0.6018500    -0.0002240
  H        3.4730500     1.9793660    -0.0001460
units angstrom
no_reorient  #important for SAPT in psi4, default
symmetry c1  #important for SAPT in psi4, default
}

set PROPERTIES_ORIGIN ["COM"]
properties('MP2/aug-cc-pvtz', properties = ['dipole'])
--------------------------------------------------------------------------

    Molecular point group: c1
  Charge       = 0
  Multiplicity = 1
  Basis Set: AUG-CC-PVTZ
    Blend: AUG-CC-PVTZ
  Basis Set: (AUG-CC-PVTZ AUX)
    Blend: AUG-CC-PVTZ-JKFIT

    Orbital Energies [Eh]
    ---------------------

    Doubly Occupied:

       1A    -91.993688     2A    -15.579572     3A    -15.575561
       4A    -11.313847     5A    -11.297607     6A    -11.285643
       7A    -11.269040     8A    -11.267727     9A    -11.264445
      10A    -11.251901    11A    -11.250310    12A     -8.993960
      13A     -6.674780    14A     -6.674169    15A     -6.673453
      16A     -1.281727    17A     -1.255015    18A     -1.096737
      19A     -1.070257    20A     -1.057643    21A     -0.989123
      22A     -0.878829    23A     -0.869252    24A     -0.787842
      25A     -0.768481    26A     -0.705325    27A     -0.682003
      28A     -0.668898    29A     -0.639549    30A     -0.594305
      31A     -0.585629    32A     -0.579050    33A     -0.554660
      34A     -0.533913    35A     -0.529583    36A     -0.510621
      37A     -0.443091    38A     -0.422412    39A     -0.400423
      40A     -0.390661    41A     -0.368794    42A     -0.312374

  @DF-RHF Final Energy:  -813.00781252222623

   => Energetics <=

    Nuclear Repulsion Energy =            626.1784472319048973
    One-Electron Energy =               -2355.6887186888229735
    Two-Electron Energy =                 916.5024589346917310
    Total Energy =                       -813.0078125222262315
  Basis Set: (AUG-CC-PVTZ AUX)
    Blend: AUG-CC-PVTZ-RI
    Molecular point group: c1

    Geometry (in Angstrom), charge = 0, multiplicity = 1:

       Center              X                  Y                   Z               Mass
    ------------   -----------------  -----------------  -----------------  -----------------
         S            1.732208013503    -1.168582869513    -0.000108486645    31.972071174400
         N           -1.218899986497    -1.097137869513     0.000085513355    14.003074004430
         N            1.406714013503     1.400442130487    -0.000055486645    14.003074004430
         C           -0.718434986497     0.155775130487     0.000041513355    12.000000000000
         C            0.740590013503     0.256132130487    -0.000033486645    12.000000000000
         C           -1.516430986497     1.308496130487     0.000059513355    12.000000000000
         C           -2.898649986497     1.150387130487     0.000130513355    12.000000000000
         C           -3.433674986497    -0.139900869513     0.000177513355    12.000000000000
         C           -2.555869986497    -1.224763869513     0.000151513355    12.000000000000
         C            3.121053013503    -0.165844869513    -0.000165486645    12.000000000000
         C            2.802434413503     1.153021630487    -0.000125986645    12.000000000000
         H           -1.042087986497     2.285093130487     0.000020513355     1.007825032230
         H           -3.551012986497     2.020271130487     0.000147513355     1.007825032230
         H           -4.507471986497    -0.304569869513     0.000232513355     1.007825032230
         H           -2.932328986497    -2.246220869513     0.000185513355     1.007825032230
         H            4.120004013503    -0.582702869513    -0.000222486645     1.007825032230
         H            3.443422013503     1.998513130487    -0.000144486645     1.007825032230

  Basis Set: AUG-CC-PVTZ
    Blend: AUG-CC-PVTZ
  Basis Set: (AUG-CC-PVTZ AUX)
    Blend: AUG-CC-PVTZ-JKFIT
	 Reference Energy          =    -813.0078125222262315 [Eh]
	 Singles Energy            =      -0.0000000000000000 [Eh]
	 Same-Spin Energy          =      -0.5242639559065438 [Eh]
	 Opposite-Spin Energy      =      -1.5533632474433463 [Eh]
	 Correlation Energy        =      -2.0776272033498904 [Eh]
	 Total Energy              =    -815.0854397255760659 [Eh]

	 ================> DF-SCS-MP2 Energies <==================
	-----------------------------------------------------------
	 SCS Same-Spin Scale       =       0.3333333333333333 [-]
	 SCS Opposite-Spin Scale   =       1.2000000000000000 [-]
	 SCS Same-Spin Energy      =      -0.1747546519688479 [Eh]
	 SCS Opposite-Spin Energy  =      -1.8640358969320154 [Eh]
	 SCS Correlation Energy    =      -2.0387905489008635 [Eh]
	 SCS Total Energy          =    -815.0466030711271515 [Eh]
	-----------------------------------------------------------

  Dipole Moment: [D]
     X:    -0.8598      Y:     0.2233      Z:    -0.0000     Total:     0.8883

*** Psi4 exiting successfully. Buy a developer a beer!
