                               Psi4 1.3.2 release

  ==> Input File <==

--------------------------------------------------------------------------
#psi4
#
memory 32 gb

molecule  {
0 1
  S        1.7618360    -1.1877300    -0.0001100
  N       -1.1892720    -1.1162850     0.0000840
  N        1.4363420     1.3812950    -0.0000570
  C       -0.6670169     0.1277029     0.0000391
  C        0.7702180     0.2369850    -0.0000350
  C       -1.4868030     1.2893490     0.0000580
  C       -2.8690220     1.1312400     0.0001290
  C       -3.4040470    -0.1590480     0.0001760
  C       -2.5262420    -1.2439110     0.0001500
  C        3.1506810    -0.1849920    -0.0001670
  C        2.7828300     1.1426020    -0.0001250
  H       -1.0124600     2.2659460     0.0000190
  H       -3.5213850     2.0011240     0.0001460
  H       -4.4778440    -0.3237170     0.0002310
  H       -2.9027010    -2.2653680     0.0001840
  H        4.1496320    -0.6018500    -0.0002240
  H        3.4730500     1.9793660    -0.0001460
units angstrom
no_reorient  #important for SAPT in psi4, default
symmetry c1  #important for SAPT in psi4, default
}

set PROPERTIES_ORIGIN ["COM"]
properties('MP2/aug-cc-pvtz', properties = ['dipole'])
--------------------------------------------------------------------------

    Molecular point group: c1
  Charge       = 0
  Multiplicity = 1
  Basis Set: AUG-CC-PVTZ
    Blend: AUG-CC-PVTZ
  Basis Set: (AUG-CC-PVTZ AUX)
    Blend: AUG-CC-PVTZ-JKFIT

    Orbital Energies [Eh]
    ---------------------

    Doubly Occupied:

       1A    -91.996209     2A    -15.578546     3A    -15.575535
       4A    -11.313313     5A    -11.298122     6A    -11.284819
       7A    -11.270933     8A    -11.266628     9A    -11.266090
      10A    -11.251847    11A    -11.251309    12A     -8.996274
      13A     -6.677041    14A     -6.676481    15A     -6.675821
      16A     -1.288374    17A     -1.259219    18A     -1.095299
      19A     -1.069442    20A     -1.063081    21A     -0.986682
      22A     -0.878982    23A     -0.867670    24A     -0.791243
      25A     -0.768211    26A     -0.707215    27A     -0.681197
      28A     -0.667791    29A     -0.638618    30A     -0.594039
      31A     -0.588597    32A     -0.582465    33A     -0.558060
      34A     -0.534956    35A     -0.532163    36A     -0.503394
      37A     -0.443899    38A     -0.422808    39A     -0.400175
      40A     -0.392552    41A     -0.371041    42A     -0.305336

  @DF-RHF Final Energy:  -813.00793460465161

   => Energetics <=

    Nuclear Repulsion Energy =            627.0296126769925422
    One-Electron Energy =               -2357.3321371293823177
    Two-Electron Energy =                 917.2945898477380524
    Total Energy =                       -813.0079346046516093
  Basis Set: (AUG-CC-PVTZ AUX)
    Blend: AUG-CC-PVTZ-RI
    Molecular point group: c1

    Geometry (in Angstrom), charge = 0, multiplicity = 1:

       Center              X                  Y                   Z               Mass
    ------------   -----------------  -----------------  -----------------  -----------------
         S            1.734240460692    -1.168568234750    -0.000108605145    31.972071174400
         N           -1.216867539308    -1.097123234750     0.000085394855    14.003074004430
         N            1.408746460692     1.400456765250    -0.000055605145    14.003074004430
         C           -0.694612439308     0.146864665250     0.000040494855    12.000000000000
         C            0.742622460692     0.256146765250    -0.000033605145    12.000000000000
         C           -1.514398539308     1.308510765250     0.000059394855    12.000000000000
         C           -2.896617539308     1.150401765250     0.000130394855    12.000000000000
         C           -3.431642539308    -0.139886234750     0.000177394855    12.000000000000
         C           -2.553837539308    -1.224749234750     0.000151394855    12.000000000000
         C            3.123085460692    -0.165830234750    -0.000165605145    12.000000000000
         C            2.755234460692     1.161763765250    -0.000123605145    12.000000000000
         H           -1.040055539308     2.285107765250     0.000020394855     1.007825032230
         H           -3.548980539308     2.020285765250     0.000147394855     1.007825032230
         H           -4.505439539308    -0.304555234750     0.000232394855     1.007825032230
         H           -2.930296539308    -2.246206234750     0.000185394855     1.007825032230
         H            4.122036460692    -0.582688234750    -0.000222605145     1.007825032230
         H            3.445454460692     1.998527765250    -0.000144605145     1.007825032230

  Basis Set: AUG-CC-PVTZ
    Blend: AUG-CC-PVTZ
  Basis Set: (AUG-CC-PVTZ AUX)
    Blend: AUG-CC-PVTZ-JKFIT
	 Reference Energy          =    -813.0079346046516093 [Eh]
	 Singles Energy            =      -0.0000000000000000 [Eh]
	 Same-Spin Energy          =      -0.5257424034131472 [Eh]
	 Opposite-Spin Energy      =      -1.5541710194909060 [Eh]
	 Correlation Energy        =      -2.0799134229040530 [Eh]
	 Total Energy              =    -815.0878480275556512 [Eh]

	 ================> DF-SCS-MP2 Energies <==================
	-----------------------------------------------------------
	 SCS Same-Spin Scale       =       0.3333333333333333 [-]
	 SCS Opposite-Spin Scale   =       1.2000000000000000 [-]
	 SCS Same-Spin Energy      =      -0.1752474678043824 [Eh]
	 SCS Opposite-Spin Energy  =      -1.8650052233890870 [Eh]
	 SCS Correlation Energy    =      -2.0402526911934693 [Eh]
	 SCS Total Energy          =    -815.0481872958450822 [Eh]
	-----------------------------------------------------------

  Dipole Moment: [D]
     X:    -0.7082      Y:     0.1961      Z:    -0.0000     Total:     0.7348

*** Psi4 exiting successfully. Buy a developer a beer!
