                               Psi4 1.3.2 release

  ==> Input File <==

--------------------------------------------------------------------------
#psi4
#
memory 32 gb

molecule  {
0 1
  S        1.7618360    -1.1877300    -0.0001100
  N       -1.1892720    -1.1162850     0.0000840
  N        1.3548963     1.4249740    -0.0000523
  C       -0.6888070     0.1366280     0.0000400
  C        0.7702180     0.2369850    -0.0000350
  C       -1.4868030     1.2893490     0.0000580
  C       -2.8690220     1.1312400     0.0001290
  C       -3.4040470    -0.1590480     0.0001760
  C       -2.5262420    -1.2439110     0.0001500
  C        3.1506810    -0.1849920    -0.0001670
  C        2.7828300     1.1426020    -0.0001250
  H       -1.0124600     2.2659460     0.0000190
  H       -3.5213850     2.0011240     0.0001460
  H       -4.4778440    -0.3237170     0.0002310
  H       -2.9027010    -2.2653680     0.0001840
  H        4.1496320    -0.6018500    -0.0002240
  H        3.4730500     1.9793660    -0.0001460
units angstrom
no_reorient  #important for SAPT in psi4, default
symmetry c1  #important for SAPT in psi4, default
}

set PROPERTIES_ORIGIN ["COM"]
properties('MP2/aug-cc-pvtz', properties = ['dipole'])
--------------------------------------------------------------------------

    Molecular point group: c1
  Charge       = 0
  Multiplicity = 1
  Basis Set: AUG-CC-PVTZ
    Blend: AUG-CC-PVTZ
  Basis Set: (AUG-CC-PVTZ AUX)
    Blend: AUG-CC-PVTZ-JKFIT

    Orbital Energies [Eh]
    ---------------------

    Doubly Occupied:

       1A    -91.995743     2A    -15.583868     3A    -15.578392
       4A    -11.315715     5A    -11.295010     6A    -11.284484
       7A    -11.278245     8A    -11.268637     9A    -11.266740
      10A    -11.251067    11A    -11.249045    12A     -8.996002
      13A     -6.676841    14A     -6.676197    15A     -6.675459
      16A     -1.280303    17A     -1.250878    18A     -1.096056
      19A     -1.072875    20A     -1.057572    21A     -0.982209
      22A     -0.876383    23A     -0.868212    24A     -0.783341
      25A     -0.767637    26A     -0.704994    27A     -0.676969
      28A     -0.668630    29A     -0.635507    30A     -0.592041
      31A     -0.578086    32A     -0.578041    33A     -0.558740
      34A     -0.531432    35A     -0.526951    36A     -0.505961
      37A     -0.451920    38A     -0.425957    39A     -0.401805
      40A     -0.391430    41A     -0.365805    42A     -0.311978

  @DF-RHF Final Energy:  -813.00087570740709

   => Energetics <=

    Nuclear Repulsion Energy =            625.7721939357920746
    One-Electron Energy =               -2354.8798271893306264
    Two-Electron Energy =                 916.1067575461314618
    Total Energy =                       -813.0008757074070900
  Basis Set: (AUG-CC-PVTZ AUX)
    Blend: AUG-CC-PVTZ-RI
    Molecular point group: c1

    Geometry (in Angstrom), charge = 0, multiplicity = 1:

       Center              X                  Y                   Z               Mass
    ------------   -----------------  -----------------  -----------------  -----------------
         S            1.742893260561    -1.173004221283    -0.000109078000    31.972071174400
         N           -1.208214739439    -1.101559221283     0.000084922000    14.003074004430
         N            1.335953560561     1.439699778717    -0.000051378000    14.003074004430
         C           -0.707749739439     0.151353778717     0.000040922000    12.000000000000
         C            0.751275260561     0.251710778717    -0.000034078000    12.000000000000
         C           -1.505745739439     1.304074778717     0.000058922000    12.000000000000
         C           -2.887964739439     1.145965778717     0.000129922000    12.000000000000
         C           -3.422989739439    -0.144322221283     0.000176922000    12.000000000000
         C           -2.545184739439    -1.229185221283     0.000150922000    12.000000000000
         C            3.131738260561    -0.170266221283    -0.000166078000    12.000000000000
         C            2.763887260561     1.157327778717    -0.000124078000    12.000000000000
         H           -1.031402739439     2.280671778717     0.000019922000     1.007825032230
         H           -3.540327739439     2.015849778717     0.000146922000     1.007825032230
         H           -4.496786739439    -0.308991221283     0.000231922000     1.007825032230
         H           -2.921643739439    -2.250642221283     0.000184922000     1.007825032230
         H            4.130689260561    -0.587124221283    -0.000223078000     1.007825032230
         H            3.454107260561     1.994091778717    -0.000145078000     1.007825032230

  Basis Set: AUG-CC-PVTZ
    Blend: AUG-CC-PVTZ
  Basis Set: (AUG-CC-PVTZ AUX)
    Blend: AUG-CC-PVTZ-JKFIT
	 Reference Energy          =    -813.0008757074070900 [Eh]
	 Singles Energy            =      -0.0000000000000000 [Eh]
	 Same-Spin Energy          =      -0.5244376411616125 [Eh]
	 Opposite-Spin Energy      =      -1.5551845813157559 [Eh]
	 Correlation Energy        =      -2.0796222224773686 [Eh]
	 Total Energy              =    -815.0804979298844728 [Eh]

	 ================> DF-SCS-MP2 Energies <==================
	-----------------------------------------------------------
	 SCS Same-Spin Scale       =       0.3333333333333333 [-]
	 SCS Opposite-Spin Scale   =       1.2000000000000000 [-]
	 SCS Same-Spin Energy      =      -0.1748125470538708 [Eh]
	 SCS Opposite-Spin Energy  =      -1.8662214975789069 [Eh]
	 SCS Correlation Energy    =      -2.0410340446327777 [Eh]
	 SCS Total Energy          =    -815.0419097520398282 [Eh]
	-----------------------------------------------------------

  Dipole Moment: [D]
     X:    -0.7178      Y:     0.1085      Z:    -0.0000     Total:     0.7260

*** Psi4 exiting successfully. Buy a developer a beer!
