                               Psi4 1.3.2 release

  ==> Input File <==

--------------------------------------------------------------------------
#psi4
#
memory 32 gb

molecule  {
0 1
  S        1.7618360    -1.1877300    -0.0001100
  N       -1.1892720    -1.1162850     0.0000840
  N        1.4363420     1.3812950    -0.0000570
  C       -0.6888070     0.1366280     0.0000400
  C        0.7902904     0.2255338    -0.0000361
  C       -1.4868030     1.2893490     0.0000580
  C       -2.8690220     1.1312400     0.0001290
  C       -3.4040470    -0.1590480     0.0001760
  C       -2.5262420    -1.2439110     0.0001500
  C        3.1506810    -0.1849920    -0.0001670
  C        2.7828300     1.1426020    -0.0001250
  H       -1.0124600     2.2659460     0.0000190
  H       -3.5213850     2.0011240     0.0001460
  H       -4.4778440    -0.3237170     0.0002310
  H       -2.9027010    -2.2653680     0.0001840
  H        4.1496320    -0.6018500    -0.0002240
  H        3.4730500     1.9793660    -0.0001460
units angstrom
no_reorient  #important for SAPT in psi4, default
symmetry c1  #important for SAPT in psi4, default
}

set PROPERTIES_ORIGIN ["COM"]
properties('MP2/aug-cc-pvtz', properties = ['dipole'])
--------------------------------------------------------------------------

    Molecular point group: c1
  Charge       = 0
  Multiplicity = 1
  Basis Set: AUG-CC-PVTZ
    Blend: AUG-CC-PVTZ
  Basis Set: (AUG-CC-PVTZ AUX)
    Blend: AUG-CC-PVTZ-JKFIT

    Orbital Energies [Eh]
    ---------------------

    Doubly Occupied:

       1A    -91.996938     2A    -15.578250     3A    -15.573646
       4A    -11.313224     5A    -11.298202     6A    -11.284969
       7A    -11.270212     8A    -11.267225     9A    -11.264269
      10A    -11.250743    11A    -11.249423    12A     -8.997347
      13A     -6.678129    14A     -6.677574    15A     -6.676883
      16A     -1.288105    17A     -1.260368    18A     -1.096129
      19A     -1.066977    20A     -1.063603    21A     -0.987222
      22A     -0.874455    23A     -0.868408    24A     -0.790945
      25A     -0.765625    26A     -0.707968    27A     -0.679465
      28A     -0.668332    29A     -0.638638    30A     -0.592004
      31A     -0.586123    32A     -0.581343    33A     -0.559917
      34A     -0.536691    35A     -0.527016    36A     -0.504330
      37A     -0.446035    38A     -0.425663    39A     -0.397444
      40A     -0.392572    41A     -0.371464    42A     -0.308567

  @DF-RHF Final Energy:  -813.00936787761043

   => Energetics <=

    Nuclear Repulsion Energy =            627.0781991803703477
    One-Electron Energy =               -2357.4502509887015549
    Two-Electron Energy =                 917.3626839307207774
    Total Energy =                       -813.0093678776104298
  Basis Set: (AUG-CC-PVTZ AUX)
    Blend: AUG-CC-PVTZ-RI
    Molecular point group: c1

    Geometry (in Angstrom), charge = 0, multiplicity = 1:

       Center              X                  Y                   Z               Mass
    ------------   -----------------  -----------------  -----------------  -----------------
         S            1.734367677963    -1.168381145299    -0.000108590333    31.972071174400
         N           -1.216740322037    -1.096936145299     0.000085409667    14.003074004430
         N            1.408873677963     1.400643854701    -0.000055590333    14.003074004430
         C           -0.716275322037     0.155976854701     0.000041409667    12.000000000000
         C            0.762822077963     0.244882654701    -0.000034690333    12.000000000000
         C           -1.514271322037     1.308697854701     0.000059409667    12.000000000000
         C           -2.896490322037     1.150588854701     0.000130409667    12.000000000000
         C           -3.431515322037    -0.139699145299     0.000177409667    12.000000000000
         C           -2.553710322037    -1.224562145299     0.000151409667    12.000000000000
         C            3.123212677963    -0.165643145299    -0.000165590333    12.000000000000
         C            2.755361677963     1.161950854701    -0.000123590333    12.000000000000
         H           -1.039928322037     2.285294854701     0.000020409667     1.007825032230
         H           -3.548853322037     2.020472854701     0.000147409667     1.007825032230
         H           -4.505312322037    -0.304368145299     0.000232409667     1.007825032230
         H           -2.930169322037    -2.246019145299     0.000185409667     1.007825032230
         H            4.122163677963    -0.582501145299    -0.000222590333     1.007825032230
         H            3.445581677963     1.998714854701    -0.000144590333     1.007825032230

  Basis Set: AUG-CC-PVTZ
    Blend: AUG-CC-PVTZ
  Basis Set: (AUG-CC-PVTZ AUX)
    Blend: AUG-CC-PVTZ-JKFIT
	 Reference Energy          =    -813.0093678776104298 [Eh]
	 Singles Energy            =      -0.0000000000000000 [Eh]
	 Same-Spin Energy          =      -0.5251578360352266 [Eh]
	 Opposite-Spin Energy      =      -1.5532983029027634 [Eh]
	 Correlation Energy        =      -2.0784561389379901 [Eh]
	 Total Energy              =    -815.0878240165484385 [Eh]

	 ================> DF-SCS-MP2 Energies <==================
	-----------------------------------------------------------
	 SCS Same-Spin Scale       =       0.3333333333333333 [-]
	 SCS Opposite-Spin Scale   =       1.2000000000000000 [-]
	 SCS Same-Spin Energy      =      -0.1750526120117422 [Eh]
	 SCS Opposite-Spin Energy  =      -1.8639579634833159 [Eh]
	 SCS Correlation Energy    =      -2.0390105754950580 [Eh]
	 SCS Total Energy          =    -815.0483784531054425 [Eh]
	-----------------------------------------------------------

  Dipole Moment: [D]
     X:    -0.7582      Y:     0.1464      Z:    -0.0000     Total:     0.7722

*** Psi4 exiting successfully. Buy a developer a beer!
