                               Psi4 1.3.2 release

  ==> Input File <==

--------------------------------------------------------------------------
#psi4
#
memory 32 gb

molecule  {
0 1
  S        1.7618360    -1.1877300    -0.0001100
  N       -1.1892720    -1.1162850     0.0000840
  N        1.4363420     1.3812950    -0.0000570
  C       -0.6888070     0.1366280     0.0000400
  C        0.6732504     0.1643427    -0.0000311
  C       -1.4868030     1.2893490     0.0000580
  C       -2.8690220     1.1312400     0.0001290
  C       -3.4040470    -0.1590480     0.0001760
  C       -2.5262420    -1.2439110     0.0001500
  C        3.1506810    -0.1849920    -0.0001670
  C        2.7828300     1.1426020    -0.0001250
  H       -1.0124600     2.2659460     0.0000190
  H       -3.5213850     2.0011240     0.0001460
  H       -4.4778440    -0.3237170     0.0002310
  H       -2.9027010    -2.2653680     0.0001840
  H        4.1496320    -0.6018500    -0.0002240
  H        3.4730500     1.9793660    -0.0001460
units angstrom
no_reorient  #important for SAPT in psi4, default
symmetry c1  #important for SAPT in psi4, default
}

set PROPERTIES_ORIGIN ["COM"]
properties('MP2/aug-cc-pvtz', properties = ['dipole'])
--------------------------------------------------------------------------

    Molecular point group: c1
  Charge       = 0
  Multiplicity = 1
  Basis Set: AUG-CC-PVTZ
    Blend: AUG-CC-PVTZ
  Basis Set: (AUG-CC-PVTZ AUX)
    Blend: AUG-CC-PVTZ-JKFIT

    Orbital Energies [Eh]
    ---------------------

    Doubly Occupied:

       1A    -92.002872     2A    -15.578845     3A    -15.578279
       4A    -11.315729     5A    -11.290236     6A    -11.285530
       7A    -11.271524     8A    -11.268426     9A    -11.265945
      10A    -11.252664    11A    -11.252332    12A     -9.001841
      13A     -6.682550    14A     -6.682163    15A     -6.681578
      16A     -1.281548    17A     -1.241075    18A     -1.098899
      19A     -1.081078    20A     -1.054659    21A     -0.985076
      22A     -0.889224    23A     -0.872115    24A     -0.783743
      25A     -0.768008    26A     -0.704679    27A     -0.678991
      28A     -0.671874    29A     -0.641896    30A     -0.598670
      31A     -0.587100    32A     -0.580970    33A     -0.554072
      34A     -0.536410    35A     -0.528944    36A     -0.501360
      37A     -0.437692    38A     -0.422962    39A     -0.404038
      40A     -0.387098    41A     -0.375195    42A     -0.294714

  @DF-RHF Final Energy:  -812.98057728941092

   => Energetics <=

    Nuclear Repulsion Energy =            626.9518443974651518
    One-Electron Energy =               -2357.1196345614580423
    Two-Electron Energy =                 917.1872128745818600
    Total Energy =                       -812.9805772894109168
  Basis Set: (AUG-CC-PVTZ AUX)
    Blend: AUG-CC-PVTZ-RI
    Molecular point group: c1

    Geometry (in Angstrom), charge = 0, multiplicity = 1:

       Center              X                  Y                   Z               Mass
    ------------   -----------------  -----------------  -----------------  -----------------
         S            1.743035960832    -1.163849175341    -0.000108960646    31.972071174400
         N           -1.208072039168    -1.092404175341     0.000085039354    14.003074004430
         N            1.417541960832     1.405175824659    -0.000055960646    14.003074004430
         C           -0.707607039168     0.160508824659     0.000041039354    12.000000000000
         C            0.654450360832     0.188223524659    -0.000030060646    12.000000000000
         C           -1.505603039168     1.313229824659     0.000059039354    12.000000000000
         C           -2.887822039168     1.155120824659     0.000130039354    12.000000000000
         C           -3.422847039168    -0.135167175341     0.000177039354    12.000000000000
         C           -2.545042039168    -1.220030175341     0.000151039354    12.000000000000
         C            3.131880960832    -0.161111175341    -0.000165960646    12.000000000000
         C            2.764029960832     1.166482824659    -0.000123960646    12.000000000000
         H           -1.031260039168     2.289826824659     0.000020039354     1.007825032230
         H           -3.540185039168     2.025004824659     0.000147039354     1.007825032230
         H           -4.496644039168    -0.299836175341     0.000232039354     1.007825032230
         H           -2.921501039168    -2.241487175341     0.000185039354     1.007825032230
         H            4.130831960832    -0.577969175341    -0.000222960646     1.007825032230
         H            3.454249960832     2.003246824659    -0.000144960646     1.007825032230

  Basis Set: AUG-CC-PVTZ
    Blend: AUG-CC-PVTZ
  Basis Set: (AUG-CC-PVTZ AUX)
    Blend: AUG-CC-PVTZ-JKFIT
	 Reference Energy          =    -812.9805772894109168 [Eh]
	 Singles Energy            =      -0.0000000000000000 [Eh]
	 Same-Spin Energy          =      -0.5298495672084040 [Eh]
	 Opposite-Spin Energy      =      -1.5606376365012742 [Eh]
	 Correlation Energy        =      -2.0904872037096780 [Eh]
	 Total Energy              =    -815.0710644931206161 [Eh]

	 ================> DF-SCS-MP2 Energies <==================
	-----------------------------------------------------------
	 SCS Same-Spin Scale       =       0.3333333333333333 [-]
	 SCS Opposite-Spin Scale   =       1.2000000000000000 [-]
	 SCS Same-Spin Energy      =      -0.1766165224028013 [Eh]
	 SCS Opposite-Spin Energy  =      -1.8727651638015290 [Eh]
	 SCS Correlation Energy    =      -2.0493816862043301 [Eh]
	 SCS Total Energy          =    -815.0299589756152727 [Eh]
	-----------------------------------------------------------

  Dipole Moment: [D]
     X:    -0.5830      Y:     0.1281      Z:    -0.0000     Total:     0.5969

*** Psi4 exiting successfully. Buy a developer a beer!
