                               Psi4 1.3.2 release

  ==> Input File <==

--------------------------------------------------------------------------
#psi4
#
memory 32 gb

molecule  {
0 1
  S        1.7445473    -1.1633386    -0.0001088
  N       -1.1892720    -1.1162850     0.0000840
  N        1.4363420     1.3812950    -0.0000570
  C       -0.6888070     0.1366280     0.0000400
  C        0.7702180     0.2369850    -0.0000350
  C       -1.4868030     1.2893490     0.0000580
  C       -2.8690220     1.1312400     0.0001290
  C       -3.4040470    -0.1590480     0.0001760
  C       -2.5262420    -1.2439110     0.0001500
  C        3.1506810    -0.1849920    -0.0001670
  C        2.7828300     1.1426020    -0.0001250
  H       -1.0124600     2.2659460     0.0000190
  H       -3.5213850     2.0011240     0.0001460
  H       -4.4778440    -0.3237170     0.0002310
  H       -2.9027010    -2.2653680     0.0001840
  H        4.1496320    -0.6018500    -0.0002240
  H        3.4730500     1.9793660    -0.0001460
units angstrom
no_reorient  #important for SAPT in psi4, default
symmetry c1  #important for SAPT in psi4, default
}

set PROPERTIES_ORIGIN ["COM"]
properties('MP2/aug-cc-pvtz', properties = ['dipole'])
--------------------------------------------------------------------------

    Molecular point group: c1
  Charge       = 0
  Multiplicity = 1
  Basis Set: AUG-CC-PVTZ
    Blend: AUG-CC-PVTZ
  Basis Set: (AUG-CC-PVTZ AUX)
    Blend: AUG-CC-PVTZ-JKFIT

    Orbital Energies [Eh]
    ---------------------

    Doubly Occupied:

       1A    -91.994966     2A    -15.578809     3A    -15.572467
       4A    -11.310847     5A    -11.297269     6A    -11.285467
       7A    -11.270221     8A    -11.267473     9A    -11.264524
      10A    -11.251242    11A    -11.249694    12A     -8.995673
      13A     -6.676454    14A     -6.675943    15A     -6.675231
      16A     -1.288909    17A     -1.260596    18A     -1.096635
      19A     -1.068340    20A     -1.064184    21A     -0.988790
      22A     -0.876995    23A     -0.869243    24A     -0.791025
      25A     -0.767386    26A     -0.707235    27A     -0.679897
      28A     -0.668982    29A     -0.639923    30A     -0.593905
      31A     -0.587777    32A     -0.583079    33A     -0.561663
      34A     -0.536697    35A     -0.529661    36A     -0.501623
      37A     -0.444239    38A     -0.424071    39A     -0.398276
      40A     -0.391641    41A     -0.372111    42A     -0.308307

  @DF-RHF Final Energy:  -813.00975436429144

   => Energetics <=

    Nuclear Repulsion Energy =            628.3669681274590175
    One-Electron Energy =               -2360.0185042007342417
    Two-Electron Energy =                 918.6417817089836717
    Total Energy =                       -813.0097543642914388
  Basis Set: (AUG-CC-PVTZ AUX)
    Blend: AUG-CC-PVTZ-RI
    Molecular point group: c1

    Geometry (in Angstrom), charge = 0, multiplicity = 1:

       Center              X                  Y                   Z               Mass
    ------------   -----------------  -----------------  -----------------  -----------------
         S            1.721977132676    -1.149650952013    -0.000107708595    31.972071174400
         N           -1.211842167324    -1.102597352013     0.000085091405    14.003074004430
         N            1.413771832676     1.394982647987    -0.000055908595    14.003074004430
         C           -0.711377167324     0.150315647987     0.000041091405    12.000000000000
         C            0.747647832676     0.250672647987    -0.000033908595    12.000000000000
         C           -1.509373167324     1.303036647987     0.000059091405    12.000000000000
         C           -2.891592167324     1.144927647987     0.000130091405    12.000000000000
         C           -3.426617167324    -0.145360352013     0.000177091405    12.000000000000
         C           -2.548812167324    -1.230223352013     0.000151091405    12.000000000000
         C            3.128110832676    -0.171304352013    -0.000165908595    12.000000000000
         C            2.760259832676     1.156289647987    -0.000123908595    12.000000000000
         H           -1.035030167324     2.279633647987     0.000020091405     1.007825032230
         H           -3.543955167324     2.014811647987     0.000147091405     1.007825032230
         H           -4.500414167324    -0.310029352013     0.000232091405     1.007825032230
         H           -2.925271167324    -2.251680352013     0.000185091405     1.007825032230
         H            4.127061832676    -0.588162352013    -0.000222908595     1.007825032230
         H            3.450479832676     1.993053647987    -0.000144908595     1.007825032230

  Basis Set: AUG-CC-PVTZ
    Blend: AUG-CC-PVTZ
  Basis Set: (AUG-CC-PVTZ AUX)
    Blend: AUG-CC-PVTZ-JKFIT
	 Reference Energy          =    -813.0097543642914388 [Eh]
	 Singles Energy            =      -0.0000000000000000 [Eh]
	 Same-Spin Energy          =      -0.5254731186584862 [Eh]
	 Opposite-Spin Energy      =      -1.5532389842101328 [Eh]
	 Correlation Energy        =      -2.0787121028686188 [Eh]
	 Total Energy              =    -815.0884664671600603 [Eh]

	 ================> DF-SCS-MP2 Energies <==================
	-----------------------------------------------------------
	 SCS Same-Spin Scale       =       0.3333333333333333 [-]
	 SCS Opposite-Spin Scale   =       1.2000000000000000 [-]
	 SCS Same-Spin Energy      =      -0.1751577062194954 [Eh]
	 SCS Opposite-Spin Energy  =      -1.8638867810521593 [Eh]
	 SCS Correlation Energy    =      -2.0390444872716547 [Eh]
	 SCS Total Energy          =    -815.0487988515631059 [Eh]
	-----------------------------------------------------------

  Dipole Moment: [D]
     X:    -0.7794      Y:     0.1690      Z:    -0.0000     Total:     0.7975

*** Psi4 exiting successfully. Buy a developer a beer!
