                               Psi4 1.3.2 release

  ==> Input File <==

--------------------------------------------------------------------------
#psi4
#
memory 32 gb

molecule  {
0 1
  S        1.7618360    -1.1877300    -0.0001100
  N       -1.1892720    -1.1162850     0.0000840
  N        1.4363420     1.3812950    -0.0000570
  C       -0.6888070     0.1366280     0.0000400
  C        0.7702180     0.2369850    -0.0000350
  C       -1.4868030     1.2893490     0.0000580
  C       -2.8690220     1.1312400     0.0001290
  C       -3.4040470    -0.1590480     0.0001760
  C       -2.5262420    -1.2439110     0.0001500
  C        3.1967893    -0.1713455    -0.0001691
  C        2.7828300     1.1426020    -0.0001250
  H       -1.0124600     2.2659460     0.0000190
  H       -3.5213850     2.0011240     0.0001460
  H       -4.4778440    -0.3237170     0.0002310
  H       -2.9027010    -2.2653680     0.0001840
  H        4.1496320    -0.6018500    -0.0002240
  H        3.4730500     1.9793660    -0.0001460
units angstrom
no_reorient  #important for SAPT in psi4, default
symmetry c1  #important for SAPT in psi4, default
}

set PROPERTIES_ORIGIN ["COM"]
properties('MP2/aug-cc-pvtz', properties = ['dipole'])
--------------------------------------------------------------------------

    Molecular point group: c1
  Charge       = 0
  Multiplicity = 1
  Basis Set: AUG-CC-PVTZ
    Blend: AUG-CC-PVTZ
  Basis Set: (AUG-CC-PVTZ AUX)
    Blend: AUG-CC-PVTZ-JKFIT

    Orbital Energies [Eh]
    ---------------------

    Doubly Occupied:

       1A    -91.994127     2A    -15.579973     3A    -15.574308
       4A    -11.316514     5A    -11.298153     6A    -11.286116
       7A    -11.272102     8A    -11.268315     9A    -11.265280
      10A    -11.252581    11A    -11.251229    12A     -8.993420
      13A     -6.674150    14A     -6.673614    15A     -6.672997
      16A     -1.286766    17A     -1.260181    18A     -1.097300
      19A     -1.068548    20A     -1.055623    21A     -0.988051
      22A     -0.878535    23A     -0.869862    24A     -0.795917
      25A     -0.766398    26A     -0.708189    27A     -0.680476
      28A     -0.671544    29A     -0.639977    30A     -0.594509
      31A     -0.590012    32A     -0.580723    33A     -0.563959
      34A     -0.535099    35A     -0.530250    36A     -0.493024
      37A     -0.444781    38A     -0.424113    39A     -0.398357
      40A     -0.390312    41A     -0.372031    42A     -0.309594

  @DF-RHF Final Energy:  -813.00786831119456

   => Energetics <=

    Nuclear Repulsion Energy =            625.8403430673533876
    One-Electron Energy =               -2354.9624021190029453
    Two-Electron Energy =                 916.1141907404550011
    Total Energy =                       -813.0078683111945566
  Basis Set: (AUG-CC-PVTZ AUX)
    Blend: AUG-CC-PVTZ-RI
    Molecular point group: c1

    Geometry (in Angstrom), charge = 0, multiplicity = 1:

       Center              X                  Y                   Z               Mass
    ------------   -----------------  -----------------  -----------------  -----------------
         S            1.732439392369    -1.170239945392    -0.000108516270    31.972071174400
         N           -1.218668607631    -1.098794945392     0.000085483730    14.003074004430
         N            1.406945392369     1.398785054608    -0.000055516270    14.003074004430
         C           -0.718203607631     0.154118054608     0.000041483730    12.000000000000
         C            0.740821392369     0.254475054608    -0.000033516270    12.000000000000
         C           -1.516199607631     1.306839054608     0.000059483730    12.000000000000
         C           -2.898418607631     1.148730054608     0.000130483730    12.000000000000
         C           -3.433443607631    -0.141557945392     0.000177483730    12.000000000000
         C           -2.555638607631    -1.226420945392     0.000151483730    12.000000000000
         C            3.167392692369    -0.153855445392    -0.000167616270    12.000000000000
         C            2.753433392369     1.160092054608    -0.000123516270    12.000000000000
         H           -1.041856607631     2.283436054608     0.000020483730     1.007825032230
         H           -3.550781607631     2.018614054608     0.000147483730     1.007825032230
         H           -4.507240607631    -0.306226945392     0.000232483730     1.007825032230
         H           -2.932097607631    -2.247877945392     0.000185483730     1.007825032230
         H            4.120235392369    -0.584359945392    -0.000222516270     1.007825032230
         H            3.443653392369     1.996856054608    -0.000144516270     1.007825032230

  Basis Set: AUG-CC-PVTZ
    Blend: AUG-CC-PVTZ
  Basis Set: (AUG-CC-PVTZ AUX)
    Blend: AUG-CC-PVTZ-JKFIT
	 Reference Energy          =    -813.0078683111945566 [Eh]
	 Singles Energy            =      -0.0000000000000000 [Eh]
	 Same-Spin Energy          =      -0.5247359515547789 [Eh]
	 Opposite-Spin Energy      =      -1.5535021354196343 [Eh]
	 Correlation Energy        =      -2.0782380869744133 [Eh]
	 Total Energy              =    -815.0861063981690222 [Eh]

	 ================> DF-SCS-MP2 Energies <==================
	-----------------------------------------------------------
	 SCS Same-Spin Scale       =       0.3333333333333333 [-]
	 SCS Opposite-Spin Scale   =       1.2000000000000000 [-]
	 SCS Same-Spin Energy      =      -0.1749119838515930 [Eh]
	 SCS Opposite-Spin Energy  =      -1.8642025625035612 [Eh]
	 SCS Correlation Energy    =      -2.0391145463551541 [Eh]
	 SCS Total Energy          =    -815.0469828575496649 [Eh]
	-----------------------------------------------------------

  Dipole Moment: [D]
     X:    -0.8477      Y:     0.2325      Z:    -0.0000     Total:     0.8790

*** Psi4 exiting successfully. Buy a developer a beer!
