                               Psi4 1.3.2 release

  ==> Input File <==

--------------------------------------------------------------------------
#psi4
#
memory 32 gb

molecule  {
0 1
  S        1.7618360    -1.1877300    -0.0001100
  N       -1.1892720    -1.1162850     0.0000840
  N        1.4363420     1.3812950    -0.0000570
  C       -0.6888070     0.1366280     0.0000400
  C        0.7702180     0.2369850    -0.0000350
  C       -1.4868030     1.2893490     0.0000580
  C       -2.8690220     1.1312400     0.0001290
  C       -3.4040470    -0.1590480     0.0001760
  C       -2.5262420    -1.2439110     0.0001500
  C        3.1041246    -0.1970211    -0.0001648
  C        2.7828300     1.1426020    -0.0001250
  H       -1.0124600     2.2659460     0.0000190
  H       -3.5213850     2.0011240     0.0001460
  H       -4.4778440    -0.3237170     0.0002310
  H       -2.9027010    -2.2653680     0.0001840
  H        4.1496320    -0.6018500    -0.0002240
  H        3.4730500     1.9793660    -0.0001460
units angstrom
no_reorient  #important for SAPT in psi4, default
symmetry c1  #important for SAPT in psi4, default
}

set PROPERTIES_ORIGIN ["COM"]
properties('MP2/aug-cc-pvtz', properties = ['dipole'])
--------------------------------------------------------------------------

    Molecular point group: c1
  Charge       = 0
  Multiplicity = 1
  Basis Set: AUG-CC-PVTZ
    Blend: AUG-CC-PVTZ
  Basis Set: (AUG-CC-PVTZ AUX)
    Blend: AUG-CC-PVTZ-JKFIT

    Orbital Energies [Eh]
    ---------------------

    Doubly Occupied:

       1A    -91.996982     2A    -15.577822     3A    -15.574453
       4A    -11.311015     5A    -11.296668     6A    -11.284847
       7A    -11.268568     8A    -11.266821     9A    -11.265238
      10A    -11.250151    11A    -11.248656    12A     -8.997929
      13A     -6.678777    14A     -6.678119    15A     -6.677431
      16A     -1.288693    17A     -1.260403    18A     -1.095935
      19A     -1.072938    20A     -1.065270    21A     -0.984880
      22A     -0.875567    23A     -0.868580    24A     -0.786313
      25A     -0.767117    26A     -0.707154    27A     -0.679871
      28A     -0.666250    29A     -0.639136    30A     -0.593123
      31A     -0.585695    32A     -0.582561    33A     -0.551617
      34A     -0.537075    35A     -0.528851    36A     -0.511200
      37A     -0.443662    38A     -0.425090    39A     -0.400924
      40A     -0.393586    41A     -0.370870    42A     -0.304598

  @DF-RHF Final Energy:  -813.00594512203907

   => Energetics <=

    Nuclear Repulsion Energy =            628.1185099649496806
    One-Electron Energy =               -2359.5280348733599567
    Two-Electron Energy =                 918.4035797863712105
    Total Energy =                       -813.0059451220390656
  Basis Set: (AUG-CC-PVTZ AUX)
    Blend: AUG-CC-PVTZ-RI
    Molecular point group: c1

    Geometry (in Angstrom), charge = 0, multiplicity = 1:

       Center              X                  Y                   Z               Mass
    ------------   -----------------  -----------------  -----------------  -----------------
         S            1.739302377943    -1.168338344541    -0.000108834739    31.972071174400
         N           -1.211805622057    -1.096893344541     0.000085165261    14.003074004430
         N            1.413808377943     1.400686655459    -0.000055834739    14.003074004430
         C           -0.711340622057     0.156019655459     0.000041165261    12.000000000000
         C            0.747684377943     0.256376655459    -0.000033834739    12.000000000000
         C           -1.509336622057     1.308740655459     0.000059165261    12.000000000000
         C           -2.891555622057     1.150631655459     0.000130165261    12.000000000000
         C           -3.426580622057    -0.139656344541     0.000177165261    12.000000000000
         C           -2.548775622057    -1.224519344541     0.000151165261    12.000000000000
         C            3.081590977943    -0.177629444541    -0.000163634739    12.000000000000
         C            2.760296377943     1.161993655459    -0.000123834739    12.000000000000
         H           -1.034993622057     2.285337655459     0.000020165261     1.007825032230
         H           -3.543918622057     2.020515655459     0.000147165261     1.007825032230
         H           -4.500377622057    -0.304325344541     0.000232165261     1.007825032230
         H           -2.925234622057    -2.245976344541     0.000185165261     1.007825032230
         H            4.127098377943    -0.582458344541    -0.000222834739     1.007825032230
         H            3.450516377943     1.998757655459    -0.000144834739     1.007825032230

  Basis Set: AUG-CC-PVTZ
    Blend: AUG-CC-PVTZ
  Basis Set: (AUG-CC-PVTZ AUX)
    Blend: AUG-CC-PVTZ-JKFIT
	 Reference Energy          =    -813.0059451220390656 [Eh]
	 Singles Energy            =      -0.0000000000000000 [Eh]
	 Same-Spin Energy          =      -0.5260841450794801 [Eh]
	 Opposite-Spin Energy      =      -1.5540384194944246 [Eh]
	 Correlation Energy        =      -2.0801225645739048 [Eh]
	 Total Energy              =    -815.0860676866129779 [Eh]

	 ================> DF-SCS-MP2 Energies <==================
	-----------------------------------------------------------
	 SCS Same-Spin Scale       =       0.3333333333333333 [-]
	 SCS Opposite-Spin Scale   =       1.2000000000000000 [-]
	 SCS Same-Spin Energy      =      -0.1753613816931600 [Eh]
	 SCS Opposite-Spin Energy  =      -1.8648461033933095 [Eh]
	 SCS Correlation Energy    =      -2.0402074850864693 [Eh]
	 SCS Total Energy          =    -815.0461526071255776 [Eh]
	-----------------------------------------------------------

  Dipole Moment: [D]
     X:    -0.7518      Y:     0.1587      Z:    -0.0000     Total:     0.7684

*** Psi4 exiting successfully. Buy a developer a beer!
