                               Psi4 1.3.2 release

  ==> Input File <==

--------------------------------------------------------------------------
#psi4
#
memory 32 gb

molecule  {
0 1
  S        1.7618360    -1.1877300    -0.0001100
  N       -1.1892720    -1.1162850     0.0000840
  N        1.4363420     1.3812950    -0.0000570
  C       -0.7107496     0.1451715     0.0000409
  C        0.7702180     0.2369850    -0.0000350
  C       -1.4868030     1.2893490     0.0000580
  C       -2.8690220     1.1312400     0.0001290
  C       -3.4040470    -0.1590480     0.0001760
  C       -2.5262420    -1.2439110     0.0001500
  C        3.1506810    -0.1849920    -0.0001670
  C        2.7828300     1.1426020    -0.0001250
  H       -1.0124600     2.2659460     0.0000190
  H       -3.5213850     2.0011240     0.0001460
  H       -4.4778440    -0.3237170     0.0002310
  H       -2.9027010    -2.2653680     0.0001840
  H        4.1496320    -0.6018500    -0.0002240
  H        3.4730500     1.9793660    -0.0001460
units angstrom
no_reorient  #important for SAPT in psi4, default
symmetry c1  #important for SAPT in psi4, default
}

set PROPERTIES_ORIGIN ["COM"]
properties('MP2/aug-cc-pvtz', properties = ['dipole'])
--------------------------------------------------------------------------

    Molecular point group: c1
  Charge       = 0
  Multiplicity = 1
  Basis Set: AUG-CC-PVTZ
    Blend: AUG-CC-PVTZ
  Basis Set: (AUG-CC-PVTZ AUX)
    Blend: AUG-CC-PVTZ-JKFIT

    Orbital Energies [Eh]
    ---------------------

    Doubly Occupied:

       1A    -91.995166     2A    -15.579340     3A    -15.573144
       4A    -11.314145     5A    -11.296726     6A    -11.286207
       7A    -11.269344     8A    -11.268556     9A    -11.264076
      10A    -11.251476    11A    -11.248051    12A     -8.995159
      13A     -6.675927    14A     -6.675387    15A     -6.674717
      16A     -1.286806    17A     -1.261294    18A     -1.098153
      19A     -1.067594    20A     -1.061579    21A     -0.986165
      22A     -0.875683    23A     -0.870349    24A     -0.790348
      25A     -0.765039    26A     -0.707226    27A     -0.678859
      28A     -0.670166    29A     -0.640646    30A     -0.593894
      31A     -0.586630    32A     -0.580645    33A     -0.558736
      34A     -0.537070    35A     -0.526118    36A     -0.502411
      37A     -0.444923    38A     -0.426037    39A     -0.397617
      40A     -0.392658    41A     -0.372030    42A     -0.308700

  @DF-RHF Final Energy:  -813.00950430437319

   => Energetics <=

    Nuclear Repulsion Energy =            626.8904193965248623
    One-Electron Energy =               -2357.0902545499880034
    Two-Electron Energy =                 917.1903308490898326
    Total Energy =                       -813.0095043043731948
  Basis Set: (AUG-CC-PVTZ AUX)
    Blend: AUG-CC-PVTZ-RI
    Molecular point group: c1

    Geometry (in Angstrom), charge = 0, multiplicity = 1:

       Center              X                  Y                   Z               Mass
    ------------   -----------------  -----------------  -----------------  -----------------
         S            1.737479416726    -1.169862004112    -0.000108738458    31.972071174400
         N           -1.213628583274    -1.098417004112     0.000085261542    14.003074004430
         N            1.411985416726     1.399162995888    -0.000055738458    14.003074004430
         C           -0.735106183274     0.163039495888     0.000042161542    12.000000000000
         C            0.745861416726     0.254852995888    -0.000033738458    12.000000000000
         C           -1.511159583274     1.307216995888     0.000059261542    12.000000000000
         C           -2.893378583274     1.149107995888     0.000130261542    12.000000000000
         C           -3.428403583274    -0.141180004112     0.000177261542    12.000000000000
         C           -2.550598583274    -1.226043004112     0.000151261542    12.000000000000
         C            3.126324416726    -0.167124004112    -0.000165738458    12.000000000000
         C            2.758473416726     1.160469995888    -0.000123738458    12.000000000000
         H           -1.036816583274     2.283813995888     0.000020261542     1.007825032230
         H           -3.545741583274     2.018991995888     0.000147261542     1.007825032230
         H           -4.502200583274    -0.305849004112     0.000232261542     1.007825032230
         H           -2.927057583274    -2.247500004112     0.000185261542     1.007825032230
         H            4.125275416726    -0.583982004112    -0.000222738458     1.007825032230
         H            3.448693416726     1.997233995888    -0.000144738458     1.007825032230

  Basis Set: AUG-CC-PVTZ
    Blend: AUG-CC-PVTZ
  Basis Set: (AUG-CC-PVTZ AUX)
    Blend: AUG-CC-PVTZ-JKFIT
	 Reference Energy          =    -813.0095043043731948 [Eh]
	 Singles Energy            =      -0.0000000000000000 [Eh]
	 Same-Spin Energy          =      -0.5249974884442218 [Eh]
	 Opposite-Spin Energy      =      -1.5532019156512509 [Eh]
	 Correlation Energy        =      -2.0781994040954728 [Eh]
	 Total Energy              =    -815.0877037084686663 [Eh]

	 ================> DF-SCS-MP2 Energies <==================
	-----------------------------------------------------------
	 SCS Same-Spin Scale       =       0.3333333333333333 [-]
	 SCS Opposite-Spin Scale   =       1.2000000000000000 [-]
	 SCS Same-Spin Energy      =      -0.1749991628147406 [Eh]
	 SCS Opposite-Spin Energy  =      -1.8638422987815009 [Eh]
	 SCS Correlation Energy    =      -2.0388414615962414 [Eh]
	 SCS Total Energy          =    -815.0483457659694295 [Eh]
	-----------------------------------------------------------

  Dipole Moment: [D]
     X:    -0.8900      Y:     0.1933      Z:    -0.0000     Total:     0.9107

*** Psi4 exiting successfully. Buy a developer a beer!
