                               Psi4 1.3.2 release

  ==> Input File <==

--------------------------------------------------------------------------
#psi4
#
memory 32 gb

molecule  {
0 1
  S        1.7368203    -1.2048191    -0.0001088
  N       -1.1892720    -1.1162850     0.0000840
  N        1.4363420     1.3812950    -0.0000570
  C       -0.6888070     0.1366280     0.0000400
  C        0.7702180     0.2369850    -0.0000350
  C       -1.4868030     1.2893490     0.0000580
  C       -2.8690220     1.1312400     0.0001290
  C       -3.4040470    -0.1590480     0.0001760
  C       -2.5262420    -1.2439110     0.0001500
  C        3.1506810    -0.1849920    -0.0001670
  C        2.7828300     1.1426020    -0.0001250
  H       -1.0124600     2.2659460     0.0000190
  H       -3.5213850     2.0011240     0.0001460
  H       -4.4778440    -0.3237170     0.0002310
  H       -2.9027010    -2.2653680     0.0001840
  H        4.1496320    -0.6018500    -0.0002240
  H        3.4730500     1.9793660    -0.0001460
units angstrom
no_reorient  #important for SAPT in psi4, default
symmetry c1  #important for SAPT in psi4, default
}

set PROPERTIES_ORIGIN ["COM"]
properties('MP2/aug-cc-pvtz', properties = ['dipole'])
--------------------------------------------------------------------------

    Molecular point group: c1
  Charge       = 0
  Multiplicity = 1
  Basis Set: AUG-CC-PVTZ
    Blend: AUG-CC-PVTZ
  Basis Set: (AUG-CC-PVTZ AUX)
    Blend: AUG-CC-PVTZ-JKFIT

    Orbital Energies [Eh]
    ---------------------

    Doubly Occupied:

       1A    -91.996306     2A    -15.579378     3A    -15.574146
       4A    -11.314892     5A    -11.297245     6A    -11.285817
       7A    -11.270924     8A    -11.267791     9A    -11.266805
      10A    -11.251771    11A    -11.250216    12A     -8.995697
      13A     -6.676437    14A     -6.675846    15A     -6.675226
      16A     -1.286837    17A     -1.259988    18A     -1.096827
      19A     -1.067763    20A     -1.057411    21A     -0.987134
      22A     -0.877188    23A     -0.869394    24A     -0.791766
      25A     -0.765644    26A     -0.705535    27A     -0.679806
      28A     -0.669019    29A     -0.639358    30A     -0.593653
      31A     -0.588252    32A     -0.580838    33A     -0.557592
      34A     -0.535066    35A     -0.528540    36A     -0.501495
      37A     -0.444518    38A     -0.424776    39A     -0.397884
      40A     -0.391422    41A     -0.372263    42A     -0.307869

  @DF-RHF Final Energy:  -813.00857092314766

   => Energetics <=

    Nuclear Repulsion Energy =            626.5033998067742687
    One-Electron Energy =               -2356.3112728808700922
    Two-Electron Energy =                 916.7993021509481650
    Total Energy =                       -813.0085709231476585
  Basis Set: (AUG-CC-PVTZ AUX)
    Blend: AUG-CC-PVTZ-RI
    Molecular point group: c1

    Geometry (in Angstrom), charge = 0, multiplicity = 1:

       Center              X                  Y                   Z               Mass
    ------------   -----------------  -----------------  -----------------  -----------------
         S            1.715774884632    -1.182946195961    -0.000107708595    31.972071174400
         N           -1.210317415368    -1.094412095961     0.000085091405    14.003074004430
         N            1.415296584632     1.403167904039    -0.000055908595    14.003074004430
         C           -0.709852415368     0.158500904039     0.000041091405    12.000000000000
         C            0.749172584632     0.258857904039    -0.000033908595    12.000000000000
         C           -1.507848415368     1.311221904039     0.000059091405    12.000000000000
         C           -2.890067415368     1.153112904039     0.000130091405    12.000000000000
         C           -3.425092415368    -0.137175095961     0.000177091405    12.000000000000
         C           -2.547287415368    -1.222038095961     0.000151091405    12.000000000000
         C            3.129635584632    -0.163119095961    -0.000165908595    12.000000000000
         C            2.761784584632     1.164474904039    -0.000123908595    12.000000000000
         H           -1.033505415368     2.287818904039     0.000020091405     1.007825032230
         H           -3.542430415368     2.022996904039     0.000147091405     1.007825032230
         H           -4.498889415368    -0.301844095961     0.000232091405     1.007825032230
         H           -2.923746415368    -2.243495095961     0.000185091405     1.007825032230
         H            4.128586584632    -0.579977095961    -0.000222908595     1.007825032230
         H            3.452004584632     2.001238904039    -0.000144908595     1.007825032230

  Basis Set: AUG-CC-PVTZ
    Blend: AUG-CC-PVTZ
  Basis Set: (AUG-CC-PVTZ AUX)
    Blend: AUG-CC-PVTZ-JKFIT
	 Reference Energy          =    -813.0085709231476585 [Eh]
	 Singles Energy            =      -0.0000000000000000 [Eh]
	 Same-Spin Energy          =      -0.5251120931514004 [Eh]
	 Opposite-Spin Energy      =      -1.5539780821699880 [Eh]
	 Correlation Energy        =      -2.0790901753213884 [Eh]
	 Total Energy              =    -815.0876610984690842 [Eh]

	 ================> DF-SCS-MP2 Energies <==================
	-----------------------------------------------------------
	 SCS Same-Spin Scale       =       0.3333333333333333 [-]
	 SCS Opposite-Spin Scale   =       1.2000000000000000 [-]
	 SCS Same-Spin Energy      =      -0.1750373643838001 [Eh]
	 SCS Opposite-Spin Energy  =      -1.8647736986039856 [Eh]
	 SCS Correlation Energy    =      -2.0398110629877859 [Eh]
	 SCS Total Energy          =    -815.0483819861354959 [Eh]
	-----------------------------------------------------------

  Dipole Moment: [D]
     X:    -0.8434      Y:     0.2059      Z:    -0.0000     Total:     0.8682

*** Psi4 exiting successfully. Buy a developer a beer!
