                               Psi4 1.4a3.dev225

  ==> Input File <==

--------------------------------------------------------------------------
#psi4
#
memory 32 gb

molecule  {
0 1
  S        1.7618360    -1.1877300    -0.0001100
  N       -1.1892720    -1.1162850     0.0000840
  N        1.4363420     1.3812950    -0.0000570
  C       -0.6888070     0.1366280     0.0000400
  C        0.7702180     0.2369850    -0.0000350
  C       -1.4868030     1.2893490     0.0000580
  C       -2.8690220     1.1312400     0.0001290
  C       -3.4040470    -0.1590480     0.0001760
  C       -2.5262420    -1.2439110     0.0001500
  C        3.1506810    -0.1849920    -0.0001670
  C        2.7631370     1.1460930    -0.0001240
  H       -1.0124600     2.2659460     0.0000190
  H       -3.5213850     2.0011240     0.0001460
  H       -4.4778440    -0.3237170     0.0002310
  H       -2.9027010    -2.2653680     0.0001840
  H        4.1496320    -0.6018500    -0.0002240
  H        3.4730500     1.9793660    -0.0001460
units angstrom
no_reorient  #important for SAPT in psi4, default
symmetry c1  #important for SAPT in psi4, default
}

set PROPERTIES_ORIGIN ["COM"]
properties('MP2/aug-cc-pvtz', properties = ['dipole'])
--------------------------------------------------------------------------

    Molecular point group: c1
  Charge       = 0
  Multiplicity = 1
  Basis Set: AUG-CC-PVTZ
    Blend: AUG-CC-PVTZ
  Basis Set: (AUG-CC-PVTZ AUX)
    Blend: AUG-CC-PVTZ-JKFIT

    Orbital Energies [Eh]
    ---------------------

    Doubly Occupied:

       1A    -91.996642     2A    -15.578620     3A    -15.573742
       4A    -11.313725     5A    -11.297350     6A    -11.285421
       7A    -11.270651     8A    -11.267507     9A    -11.265389
      10A    -11.251139    11A    -11.249790    12A     -8.996557
      13A     -6.677301    14A     -6.676777    15A     -6.676134
      16A     -1.290913    17A     -1.261861    18A     -1.096471
      19A     -1.067871    20A     -1.064238    21A     -0.985419
      22A     -0.876213    23A     -0.869237    24A     -0.792373
      25A     -0.765732    26A     -0.708126    27A     -0.679324
      28A     -0.668992    29A     -0.639560    30A     -0.593593
      31A     -0.588768    32A     -0.582661    33A     -0.559500
      34A     -0.536919    35A     -0.529222    36A     -0.499819
      37A     -0.444515    38A     -0.425371    39A     -0.398305
      40A     -0.393681    41A     -0.372409    42A     -0.304877

  @DF-RHF Final Energy:  -813.00855771527949

   => Energetics <=

    Nuclear Repulsion Energy =            627.2751074947730103
    One-Electron Energy =               -2357.8218985418898228
    Two-Electron Energy =                 917.5382333318373185
    Total Energy =                       -813.0085577152794940
  Basis Set: (AUG-CC-PVTZ AUX)
    Blend: AUG-CC-PVTZ-RI
    Molecular point group: c1

    Geometry (in Angstrom), charge = 0, multiplicity = 1:

       Center              X                  Y                   Z               Mass
    ------------   -----------------  -----------------  -----------------  -----------------
         S            1.737312805574    -1.169487802991    -0.000108745864    31.972071174400
         N           -1.213795194426    -1.098042802991     0.000085254136    14.003074004430
         N            1.411818805574     1.399537197009    -0.000055745864    14.003074004430
         C           -0.713330194426     0.154870197009     0.000041254136    12.000000000000
         C            0.745694805574     0.255227197009    -0.000033745864    12.000000000000
         C           -1.511326194426     1.307591197009     0.000059254136    12.000000000000
         C           -2.893545194426     1.149482197009     0.000130254136    12.000000000000
         C           -3.428570194426    -0.140805802991     0.000177254136    12.000000000000
         C           -2.550765194426    -1.225668802991     0.000151254136    12.000000000000
         C            3.126157805574    -0.166749802991    -0.000165745864    12.000000000000
         C            2.738613805574     1.164335197009    -0.000122745864    12.000000000000
         H           -1.036983194426     2.284188197009     0.000020254136     1.007825032230
         H           -3.545908194426     2.019366197009     0.000147254136     1.007825032230
         H           -4.502367194426    -0.305474802991     0.000232254136     1.007825032230
         H           -2.927224194426    -2.247125802991     0.000185254136     1.007825032230
         H            4.125108805574    -0.583607802991    -0.000222745864     1.007825032230
         H            3.448526805574     1.997608197009    -0.000144745864     1.007825032230

  Basis Set: AUG-CC-PVTZ
    Blend: AUG-CC-PVTZ
  Basis Set: (AUG-CC-PVTZ AUX)
    Blend: AUG-CC-PVTZ-JKFIT
	 Reference Energy          =    -813.0085577152794940 [Eh]
	 Singles Energy            =      -0.0000000000000000 [Eh]
	 Same-Spin Energy          =      -0.5258239243081282 [Eh]
	 Opposite-Spin Energy      =      -1.5538457174274360 [Eh]
	 Correlation Energy        =      -2.0796696417355642 [Eh]
	 Total Energy              =    -815.0882273570150574 [Eh]

	 ================> DF-SCS-MP2 Energies <==================
	-----------------------------------------------------------
	 SCS Same-Spin Scale       =       0.3333333333333333 [-]
	 SCS Opposite-Spin Scale   =       1.2000000000000000 [-]
	 SCS Same-Spin Energy      =      -0.1752746414360427 [Eh]
	 SCS Opposite-Spin Energy  =      -1.8646148609129232 [Eh]
	 SCS Correlation Energy    =      -2.0398895023489660 [Eh]
	 SCS Total Energy          =    -815.0484472176284498 [Eh]
	-----------------------------------------------------------

  Dipole Moment: [D]
     X:    -0.7743      Y:     0.1850      Z:    -0.0000     Total:     0.7961

*** Psi4 exiting successfully. Buy a developer a beer!
