                               Psi4 1.3.2 release

  ==> Input File <==

--------------------------------------------------------------------------
#psi4
#
memory 32 gb

molecule  {
0 1
  O        2.5331200    -0.0725200     0.2027050
  O        0.8230440     1.2494390    -0.4327460
  C       -1.8165730    -0.1662430    -0.5903910
  C       -2.5841030     0.6523970     0.4513900
  C       -0.9018550    -1.1471370     0.0763090
  C        0.4138040    -1.0149060     0.3209930
  C        1.2159030     0.1700770    -0.0266570
  H       -2.5251580    -0.7208810    -1.2155130
  H       -1.2597500     0.5079260    -1.2382380
  H       -3.2919980     1.3271690    -0.0377650
  H       -1.8881090     1.2530680     1.0427000
  H       -3.1450010     0.0036210     1.1307380
  H       -1.3259879    -2.1584297     0.2326929
  H        0.9531490    -1.8065430     0.8308200
  H        2.9905100     0.7616870    -0.0298800
units angstrom
no_reorient  #important for SAPT in psi4, default
symmetry c1  #important for SAPT in psi4, default
}

set PROPERTIES_ORIGIN ["COM"]
properties('MP2/aug-cc-pvtz', properties = ['dipole'])
--------------------------------------------------------------------------

    Molecular point group: c1
  Charge       = 0
  Multiplicity = 1
  Basis Set: AUG-CC-PVTZ
    Blend: AUG-CC-PVTZ
  Basis Set: (AUG-CC-PVTZ AUX)
    Blend: AUG-CC-PVTZ-JKFIT

    Orbital Energies [Eh]
    ---------------------

    Doubly Occupied:

       1A    -20.611567     2A    -20.544782     3A    -11.388428
       4A    -11.272612     5A    -11.243869     6A    -11.231450
       7A    -11.220649     8A     -1.458325     9A     -1.352801
      10A     -1.105151    11A     -1.019767    12A     -0.908683
      13A     -0.839494    14A     -0.750036    15A     -0.708012
      16A     -0.673962    17A     -0.646201    18A     -0.628611
      19A     -0.601797    20A     -0.582483    21A     -0.567734
      22A     -0.525180    23A     -0.502667    24A     -0.495326
      25A     -0.481784    26A     -0.444347    27A     -0.380679

  @DF-RHF Final Energy:  -343.85379785610456

   => Energetics <=

    Nuclear Repulsion Energy =            292.7057758858375678
    One-Electron Energy =               -1048.7463607280637916
    Two-Electron Energy =                 412.1867869861217173
    Total Energy =                       -343.8537978561045634
  Basis Set: (AUG-CC-PVTZ AUX)
    Blend: AUG-CC-PVTZ-RI
    Molecular point group: c1

    Geometry (in Angstrom), charge = 0, multiplicity = 1:

       Center              X                  Y                   Z               Mass
    ------------   -----------------  -----------------  -----------------  -----------------
         O            2.532709756843    -0.071681227741     0.204490104217    15.994914619570
         O            0.822633756843     1.250277772259    -0.430960895783    15.994914619570
         C           -1.816983243157    -0.165404227741    -0.588605895783    12.000000000000
         C           -2.584513243157     0.653235772259     0.453175104217    12.000000000000
         C           -0.902265243157    -1.146298227741     0.078094104217    12.000000000000
         C            0.413393756843    -1.014067227741     0.322778104217    12.000000000000
         C            1.215492756843     0.170915772259    -0.024871895783    12.000000000000
         H           -2.525568243157    -0.720042227741    -1.213727895783     1.007825032230
         H           -1.260160243157     0.508764772259    -1.236452895783     1.007825032230
         H           -3.292408243157     1.328007772259    -0.035979895783     1.007825032230
         H           -1.888519243157     1.253906772259     1.044485104217     1.007825032230
         H           -3.145411243157     0.004459772259     1.132523104217     1.007825032230
         H           -1.326398143157    -2.157590927741     0.234478004217     1.007825032230
         H            0.952738756843    -1.805704227741     0.832605104217     1.007825032230
         H            2.990099756843     0.762525772259    -0.028094895783     1.007825032230

  Basis Set: AUG-CC-PVTZ
    Blend: AUG-CC-PVTZ
  Basis Set: (AUG-CC-PVTZ AUX)
    Blend: AUG-CC-PVTZ-JKFIT
	 Reference Energy          =    -343.8537978561045634 [Eh]
	 Singles Energy            =      -0.0000000000000000 [Eh]
	 Same-Spin Energy          =      -0.3410458043987652 [Eh]
	 Opposite-Spin Energy      =      -1.1002288987324373 [Eh]
	 Correlation Energy        =      -1.4412747031312025 [Eh]
	 Total Energy              =    -345.2950725592357912 [Eh]

	 ================> DF-SCS-MP2 Energies <==================
	-----------------------------------------------------------
	 SCS Same-Spin Scale       =       0.3333333333333333 [-]
	 SCS Opposite-Spin Scale   =       1.2000000000000000 [-]
	 SCS Same-Spin Energy      =      -0.1136819347995884 [Eh]
	 SCS Opposite-Spin Energy  =      -1.3202746784789248 [Eh]
	 SCS Correlation Energy    =      -1.4339566132785131 [Eh]
	 SCS Total Energy          =    -345.2877544693830600 [Eh]
	-----------------------------------------------------------

  Dipole Moment: [D]
     X:    -0.3770      Y:    -1.1558      Z:     0.2423     Total:     1.2397

*** Psi4 exiting successfully. Buy a developer a beer!
