                               Psi4 1.3.2 release

  ==> Input File <==

--------------------------------------------------------------------------
#psi4
#
memory 32 gb

molecule  {
0 1
  O        2.5331200    -0.0725200     0.2027050
  O        0.8230440     1.2494390    -0.4327460
  C       -1.8165730    -0.1662430    -0.5903910
  C       -2.5841030     0.6523970     0.4513900
  C       -0.9018550    -1.1471370     0.0763090
  C        0.4138040    -1.0149060     0.3209930
  C        1.2159030     0.1700770    -0.0266570
  H       -2.5251580    -0.7208810    -1.2155130
  H       -1.2597500     0.5079260    -1.2382380
  H       -3.2919980     1.3271690    -0.0377650
  H       -1.8881090     1.2530680     1.0427000
  H       -3.1450010     0.0036210     1.1307380
  H       -1.3463544    -2.1167958     0.3213035
  H        0.9531490    -1.8065430     0.8308200
  H        2.9905100     0.7616870    -0.0298800
units angstrom
no_reorient  #important for SAPT in psi4, default
symmetry c1  #important for SAPT in psi4, default
}

set PROPERTIES_ORIGIN ["COM"]
properties('MP2/aug-cc-pvtz', properties = ['dipole'])
--------------------------------------------------------------------------

    Molecular point group: c1
  Charge       = 0
  Multiplicity = 1
  Basis Set: AUG-CC-PVTZ
    Blend: AUG-CC-PVTZ
  Basis Set: (AUG-CC-PVTZ AUX)
    Blend: AUG-CC-PVTZ-JKFIT

    Orbital Energies [Eh]
    ---------------------

    Doubly Occupied:

       1A    -20.611373     2A    -20.544595     3A    -11.388253
       4A    -11.271301     5A    -11.243412     6A    -11.231489
       7A    -11.220917     8A     -1.458143     9A     -1.352625
      10A     -1.105407    11A     -1.019730    12A     -0.908978
      13A     -0.839751    14A     -0.751670    15A     -0.707928
      16A     -0.673897    17A     -0.646910    18A     -0.628235
      19A     -0.601529    20A     -0.582910    21A     -0.567389
      22A     -0.526459    23A     -0.503457    24A     -0.495437
      25A     -0.481721    26A     -0.444260    27A     -0.381025

  @DF-RHF Final Energy:  -343.85591705554515

   => Energetics <=

    Nuclear Repulsion Energy =            292.7775598631251910
    One-Electron Energy =               -1048.8893520339470342
    Two-Electron Energy =                 412.2558751152767513
    Total Energy =                       -343.8559170555451487
  Basis Set: (AUG-CC-PVTZ AUX)
    Blend: AUG-CC-PVTZ-RI
    Molecular point group: c1

    Geometry (in Angstrom), charge = 0, multiplicity = 1:

       Center              X                  Y                   Z               Mass
    ------------   -----------------  -----------------  -----------------  -----------------
         O            2.532914907969    -0.072100604730     0.203597532380    15.994914619570
         O            0.822838907969     1.249858395270    -0.431853467620    15.994914619570
         C           -1.816778092031    -0.165823604730    -0.589498467620    12.000000000000
         C           -2.584308092031     0.652816395270     0.452282532380    12.000000000000
         C           -0.902060092031    -1.146717604730     0.077201532380    12.000000000000
         C            0.413598907969    -1.014486604730     0.321885532380    12.000000000000
         C            1.215697907969     0.170496395270    -0.025764467620    12.000000000000
         H           -2.525363092031    -0.720461604730    -1.214620467620     1.007825032230
         H           -1.259955092031     0.508345395270    -1.237345467620     1.007825032230
         H           -3.292203092031     1.327588395270    -0.036872467620     1.007825032230
         H           -1.888314092031     1.253487395270     1.043592532380     1.007825032230
         H           -3.145206092031     0.004040395270     1.131630532380     1.007825032230
         H           -1.346559492031    -2.116376404730     0.322196032380     1.007825032230
         H            0.952943907969    -1.806123604730     0.831712532380     1.007825032230
         H            2.990304907969     0.762106395270    -0.028987467620     1.007825032230

  Basis Set: AUG-CC-PVTZ
    Blend: AUG-CC-PVTZ
  Basis Set: (AUG-CC-PVTZ AUX)
    Blend: AUG-CC-PVTZ-JKFIT
	 Reference Energy          =    -343.8559170555451487 [Eh]
	 Singles Energy            =      -0.0000000000000000 [Eh]
	 Same-Spin Energy          =      -0.3409521084113629 [Eh]
	 Opposite-Spin Energy      =      -1.0999604475817402 [Eh]
	 Correlation Energy        =      -1.4409125559931031 [Eh]
	 Total Energy              =    -345.2968296115382714 [Eh]

	 ================> DF-SCS-MP2 Energies <==================
	-----------------------------------------------------------
	 SCS Same-Spin Scale       =       0.3333333333333333 [-]
	 SCS Opposite-Spin Scale   =       1.2000000000000000 [-]
	 SCS Same-Spin Energy      =      -0.1136507028037876 [Eh]
	 SCS Opposite-Spin Energy  =      -1.3199525370980882 [Eh]
	 SCS Correlation Energy    =      -1.4336032399018759 [Eh]
	 SCS Total Energy          =    -345.2895202954470051 [Eh]
	-----------------------------------------------------------

  Dipole Moment: [D]
     X:    -0.4060      Y:    -1.1440      Z:     0.2894     Total:     1.2479

*** Psi4 exiting successfully. Buy a developer a beer!
