                               Psi4 1.3.2 release

  ==> Input File <==

--------------------------------------------------------------------------
#psi4
#
memory 32 gb

molecule  {
0 1
  O        2.5331200    -0.0725200     0.2027050
  O        0.8230440     1.2494390    -0.4327460
  C       -1.8165730    -0.1662430    -0.5903910
  C       -2.5841030     0.6523970     0.4513900
  C       -0.9018550    -1.1471370     0.0763090
  C        0.4138040    -1.0149060     0.3209930
  C        1.2159030     0.1700770    -0.0266570
  H       -2.5251580    -0.7208810    -1.2155130
  H       -1.2597500     0.5079260    -1.2382380
  H       -3.2919980     1.3271690    -0.0377650
  H       -1.8881090     1.2530680     1.0427000
  H       -3.1450010     0.0036210     1.1307380
  H       -1.3667210    -2.0751620     0.4099140
  H        0.9745033    -1.8477978     0.7422647
  H        2.9905100     0.7616870    -0.0298800
units angstrom
no_reorient  #important for SAPT in psi4, default
symmetry c1  #important for SAPT in psi4, default
}

set PROPERTIES_ORIGIN ["COM"]
properties('MP2/aug-cc-pvtz', properties = ['dipole'])
--------------------------------------------------------------------------

    Molecular point group: c1
  Charge       = 0
  Multiplicity = 1
  Basis Set: AUG-CC-PVTZ
    Blend: AUG-CC-PVTZ
  Basis Set: (AUG-CC-PVTZ AUX)
    Blend: AUG-CC-PVTZ-JKFIT

    Orbital Energies [Eh]
    ---------------------

    Doubly Occupied:

       1A    -20.611193     2A    -20.544360     3A    -11.388066
       4A    -11.271217     5A    -11.243520     6A    -11.231683
       7A    -11.221003     8A     -1.457961     9A     -1.352441
      10A     -1.105576    11A     -1.019665    12A     -0.908891
      13A     -0.839943    14A     -0.752386    15A     -0.707740
      16A     -0.673537    17A     -0.646857    18A     -0.627766
      19A     -0.601188    20A     -0.582951    21A     -0.566187
      22A     -0.528328    23A     -0.504032    24A     -0.495721
      25A     -0.481360    26A     -0.444044    27A     -0.380882

  @DF-RHF Final Energy:  -343.85631775149551

   => Energetics <=

    Nuclear Repulsion Energy =            292.7956783558191205
    One-Electron Energy =               -1048.9269951749251959
    Two-Electron Energy =                 412.2749990676106222
    Total Energy =                       -343.8563177514955100
  Basis Set: (AUG-CC-PVTZ AUX)
    Blend: AUG-CC-PVTZ-RI
    Molecular point group: c1

    Geometry (in Angstrom), charge = 0, multiplicity = 1:

       Center              X                  Y                   Z               Mass
    ------------   -----------------  -----------------  -----------------  -----------------
         O            2.532904958897    -0.072104422385     0.203596976352    15.994914619570
         O            0.822828958897     1.249854577615    -0.431854023648    15.994914619570
         C           -1.816788041103    -0.165827422385    -0.589499023648    12.000000000000
         C           -2.584318041103     0.652812577615     0.452281976352    12.000000000000
         C           -0.902070041103    -1.146721422385     0.077200976352    12.000000000000
         C            0.413588958897    -1.014490422385     0.321884976352    12.000000000000
         C            1.215687958897     0.170492577615    -0.025765023648    12.000000000000
         H           -2.525373041103    -0.720465422385    -1.214621023648     1.007825032230
         H           -1.259965041103     0.508341577615    -1.237346023648     1.007825032230
         H           -3.292213041103     1.327584577615    -0.036873023648     1.007825032230
         H           -1.888324041103     1.253483577615     1.043591976352     1.007825032230
         H           -3.145216041103     0.004036577615     1.131629976352     1.007825032230
         H           -1.366936041103    -2.074746422385     0.410805976352     1.007825032230
         H            0.974288258897    -1.847382222385     0.743156676352     1.007825032230
         H            2.990294958897     0.762102577615    -0.028988023648     1.007825032230

  Basis Set: AUG-CC-PVTZ
    Blend: AUG-CC-PVTZ
  Basis Set: (AUG-CC-PVTZ AUX)
    Blend: AUG-CC-PVTZ-JKFIT
	 Reference Energy          =    -343.8563177514955100 [Eh]
	 Singles Energy            =      -0.0000000000000000 [Eh]
	 Same-Spin Energy          =      -0.3409441746940453 [Eh]
	 Opposite-Spin Energy      =      -1.0999337912306166 [Eh]
	 Correlation Energy        =      -1.4408779659246620 [Eh]
	 Total Energy              =    -345.2971957174201521 [Eh]

	 ================> DF-SCS-MP2 Energies <==================
	-----------------------------------------------------------
	 SCS Same-Spin Scale       =       0.3333333333333333 [-]
	 SCS Opposite-Spin Scale   =       1.2000000000000000 [-]
	 SCS Same-Spin Energy      =      -0.1136480582313484 [Eh]
	 SCS Opposite-Spin Energy  =      -1.3199205494767399 [Eh]
	 SCS Correlation Energy    =      -1.4335686077080882 [Eh]
	 SCS Total Energy          =    -345.2898863592035923 [Eh]
	-----------------------------------------------------------

  Dipole Moment: [D]
     X:    -0.4195      Y:    -1.1544      Z:     0.2716     Total:     1.2579

*** Psi4 exiting successfully. Buy a developer a beer!
