                               Psi4 1.3.2 release

  ==> Input File <==

--------------------------------------------------------------------------
#psi4
#
memory 32 gb

molecule  {
0 1
  O        2.5331200    -0.0725200     0.2027050
  O        0.8230440     1.2494390    -0.4327460
  C       -1.8165730    -0.1662430    -0.5903910
  C       -2.5841030     0.6523970     0.4513900
  C       -0.9018550    -1.1471370     0.0763090
  C        0.4138040    -1.0149060     0.3209930
  C        1.2159030     0.1700770    -0.0266570
  H       -2.5251580    -0.7208810    -1.2155130
  H       -1.2597500     0.5079260    -1.2382380
  H       -3.2919980     1.3271690    -0.0377650
  H       -1.8881090     1.2530680     1.0427000
  H       -3.1450010     0.0036210     1.1307380
  H       -1.3667210    -2.0751620     0.4099140
  H        0.9958576    -1.8890526     0.6537094
  H        2.9905100     0.7616870    -0.0298800
units angstrom
no_reorient  #important for SAPT in psi4, default
symmetry c1  #important for SAPT in psi4, default
}

set PROPERTIES_ORIGIN ["COM"]
properties('MP2/aug-cc-pvtz', properties = ['dipole'])
--------------------------------------------------------------------------

    Molecular point group: c1
  Charge       = 0
  Multiplicity = 1
  Basis Set: AUG-CC-PVTZ
    Blend: AUG-CC-PVTZ
  Basis Set: (AUG-CC-PVTZ AUX)
    Blend: AUG-CC-PVTZ-JKFIT

    Orbital Energies [Eh]
    ---------------------

    Doubly Occupied:

       1A    -20.611040     2A    -20.544227     3A    -11.387918
       4A    -11.271778     5A    -11.244602     6A    -11.231936
       7A    -11.220960     8A     -1.457815     9A     -1.352318
      10A     -1.105611    11A     -1.019401    12A     -0.908817
      13A     -0.839887    14A     -0.752313    15A     -0.707110
      16A     -0.672127    17A     -0.646449    18A     -0.627539
      19A     -0.601124    20A     -0.581767    21A     -0.566107
      22A     -0.528976    23A     -0.504118    24A     -0.495886
      25A     -0.480973    26A     -0.443900    27A     -0.380311

  @DF-RHF Final Energy:  -343.85466001683307

   => Energetics <=

    Nuclear Repulsion Energy =            292.7388572291362721
    One-Electron Energy =               -1048.8170145190988478
    Two-Electron Energy =                 412.2234972731294533
    Total Energy =                       -343.8546600168330656
  Basis Set: (AUG-CC-PVTZ AUX)
    Blend: AUG-CC-PVTZ-RI
    Molecular point group: c1

    Geometry (in Angstrom), charge = 0, multiplicity = 1:

       Center              X                  Y                   Z               Mass
    ------------   -----------------  -----------------  -----------------  -----------------
         O            2.532689857693    -0.071688864059     0.204488991154    15.994914619570
         O            0.822613857693     1.250270135941    -0.430962008846    15.994914619570
         C           -1.817003142307    -0.165411864059    -0.588607008846    12.000000000000
         C           -2.584533142307     0.653228135941     0.453173991154    12.000000000000
         C           -0.902285142307    -1.146305864059     0.078092991154    12.000000000000
         C            0.413373857693    -1.014074864059     0.322776991154    12.000000000000
         C            1.215472857693     0.170908135941    -0.024873008846    12.000000000000
         H           -2.525588142307    -0.720049864059    -1.213729008846     1.007825032230
         H           -1.260180142307     0.508757135941    -1.236454008846     1.007825032230
         H           -3.292428142307     1.328000135941    -0.035981008846     1.007825032230
         H           -1.888539142307     1.253899135941     1.044483991154     1.007825032230
         H           -3.145431142307     0.004452135941     1.132521991154     1.007825032230
         H           -1.367151142307    -2.074330864059     0.411697991154     1.007825032230
         H            0.995427457693    -1.888221464059     0.655493391154     1.007825032230
         H            2.990079857693     0.762518135941    -0.028096008846     1.007825032230

  Basis Set: AUG-CC-PVTZ
    Blend: AUG-CC-PVTZ
  Basis Set: (AUG-CC-PVTZ AUX)
    Blend: AUG-CC-PVTZ-JKFIT
	 Reference Energy          =    -343.8546600168330656 [Eh]
	 Singles Energy            =      -0.0000000000000000 [Eh]
	 Same-Spin Energy          =      -0.3410068350382901 [Eh]
	 Opposite-Spin Energy      =      -1.1001043475752992 [Eh]
	 Correlation Energy        =      -1.4411111826135894 [Eh]
	 Total Energy              =    -345.2957711994466763 [Eh]

	 ================> DF-SCS-MP2 Energies <==================
	-----------------------------------------------------------
	 SCS Same-Spin Scale       =       0.3333333333333333 [-]
	 SCS Opposite-Spin Scale   =       1.2000000000000000 [-]
	 SCS Same-Spin Energy      =      -0.1136689450127634 [Eh]
	 SCS Opposite-Spin Energy  =      -1.3201252170903590 [Eh]
	 SCS Correlation Energy    =      -1.4337941621031223 [Eh]
	 SCS Total Energy          =    -345.2884541789362061 [Eh]
	-----------------------------------------------------------

  Dipole Moment: [D]
     X:    -0.4214      Y:    -1.1775      Z:     0.2047     Total:     1.2673

*** Psi4 exiting successfully. Buy a developer a beer!
