                               Psi4 1.3.2 release

  ==> Input File <==

--------------------------------------------------------------------------
#psi4
#
memory 32 gb

molecule  {
0 1
  O        2.5331200    -0.0725200     0.2027050
  O        0.8230440     1.2494390    -0.4327460
  C       -1.8165730    -0.1662430    -0.5903910
  C       -2.5841030     0.6523970     0.4513900
  C       -0.9018550    -1.1471370     0.0763090
  C        0.4043858    -0.9819347     0.4149302
  C        1.2159030     0.1700770    -0.0266570
  H       -2.5251580    -0.7208810    -1.2155130
  H       -1.2597500     0.5079260    -1.2382380
  H       -3.2919980     1.3271690    -0.0377650
  H       -1.8881090     1.2530680     1.0427000
  H       -3.1450010     0.0036210     1.1307380
  H       -1.3667210    -2.0751620     0.4099140
  H        0.9531490    -1.8065430     0.8308200
  H        2.9905100     0.7616870    -0.0298800
units angstrom
no_reorient  #important for SAPT in psi4, default
symmetry c1  #important for SAPT in psi4, default
}

set PROPERTIES_ORIGIN ["COM"]
properties('MP2/aug-cc-pvtz', properties = ['dipole'])
--------------------------------------------------------------------------

    Molecular point group: c1
  Charge       = 0
  Multiplicity = 1
  Basis Set: AUG-CC-PVTZ
    Blend: AUG-CC-PVTZ
  Basis Set: (AUG-CC-PVTZ AUX)
    Blend: AUG-CC-PVTZ-JKFIT

    Orbital Energies [Eh]
    ---------------------

    Doubly Occupied:

       1A    -20.610681     2A    -20.543935     3A    -11.387783
       4A    -11.274314     5A    -11.244078     6A    -11.232487
       7A    -11.221652     8A     -1.457444     9A     -1.351988
      10A     -1.103794    11A     -1.019175    12A     -0.907947
      13A     -0.839530    14A     -0.752433    15A     -0.707650
      16A     -0.675197    17A     -0.646526    18A     -0.627251
      19A     -0.599411    20A     -0.582924    21A     -0.565948
      22A     -0.528905    23A     -0.504589    24A     -0.496300
      25A     -0.480970    26A     -0.443997    27A     -0.378537

  @DF-RHF Final Energy:  -343.85380428873304

   => Energetics <=

    Nuclear Repulsion Energy =            292.6297061670386483
    One-Electron Energy =               -1048.5961368792902704
    Two-Electron Energy =                 412.1126264235185772
    Total Energy =                       -343.8538042887330448
  Basis Set: (AUG-CC-PVTZ AUX)
    Blend: AUG-CC-PVTZ-RI
    Molecular point group: c1

    Geometry (in Angstrom), charge = 0, multiplicity = 1:

       Center              X                  Y                   Z               Mass
    ------------   -----------------  -----------------  -----------------  -----------------
         O            2.534249651862    -0.076474463396     0.191438404550    15.994914619570
         O            0.824173651862     1.245484536604    -0.444012595450    15.994914619570
         C           -1.815443348138    -0.170197463396    -0.601657595450    12.000000000000
         C           -2.582973348138     0.648442536604     0.440123404550    12.000000000000
         C           -0.900725348138    -1.151091463396     0.065042404550    12.000000000000
         C            0.405515451862    -0.985889163396     0.403663604550    12.000000000000
         C            1.217032651862     0.166122536604    -0.037923595450    12.000000000000
         H           -2.524028348138    -0.724835463396    -1.226779595450     1.007825032230
         H           -1.258620348138     0.503971536604    -1.249504595450     1.007825032230
         H           -3.290868348138     1.323214536604    -0.049031595450     1.007825032230
         H           -1.886979348138     1.249113536604     1.031433404550     1.007825032230
         H           -3.143871348138    -0.000333463396     1.119471404550     1.007825032230
         H           -1.365591348138    -2.079116463396     0.398647404550     1.007825032230
         H            0.954278651862    -1.810497463396     0.819553404550     1.007825032230
         H            2.991639651862     0.757732536604    -0.041146595450     1.007825032230

  Basis Set: AUG-CC-PVTZ
    Blend: AUG-CC-PVTZ
  Basis Set: (AUG-CC-PVTZ AUX)
    Blend: AUG-CC-PVTZ-JKFIT
	 Reference Energy          =    -343.8538042887330448 [Eh]
	 Singles Energy            =      -0.0000000000000000 [Eh]
	 Same-Spin Energy          =      -0.3411438089979401 [Eh]
	 Opposite-Spin Energy      =      -1.1003748584380515 [Eh]
	 Correlation Energy        =      -1.4415186674359917 [Eh]
	 Total Energy              =    -345.2953229561690591 [Eh]

	 ================> DF-SCS-MP2 Energies <==================
	-----------------------------------------------------------
	 SCS Same-Spin Scale       =       0.3333333333333333 [-]
	 SCS Opposite-Spin Scale   =       1.2000000000000000 [-]
	 SCS Same-Spin Energy      =      -0.1137146029993134 [Eh]
	 SCS Opposite-Spin Energy  =      -1.3204498301256617 [Eh]
	 SCS Correlation Energy    =      -1.4341644331249750 [Eh]
	 SCS Total Energy          =    -345.2879687218580216 [Eh]
	-----------------------------------------------------------

  Dipole Moment: [D]
     X:    -0.4391      Y:    -1.1517      Z:     0.2707     Total:     1.2619

*** Psi4 exiting successfully. Buy a developer a beer!
