                               Psi4 1.3.2 release

  ==> Input File <==

--------------------------------------------------------------------------
#psi4
#
memory 32 gb

molecule  {
0 1
  O        2.5331200    -0.0725200     0.2027050
  O        0.8230440     1.2494390    -0.4327460
  C       -1.8165730    -0.1662430    -0.5903910
  C       -2.5841030     0.6523970     0.4513900
  C       -0.9018550    -1.1471370     0.0763090
  C        0.4138040    -1.0149060     0.3209930
  C        1.2159030     0.1700770    -0.0266570
  H       -2.5251580    -0.7208810    -1.2155130
  H       -1.2597500     0.5079260    -1.2382380
  H       -3.2919980     1.3271690    -0.0377650
  H       -1.8881090     1.2530680     1.0427000
  H       -3.1450010     0.0036210     1.1307380
  H       -1.3158046    -2.1792466     0.1883877
  H        0.9531490    -1.8065430     0.8308200
  H        2.9905100     0.7616870    -0.0298800
units angstrom
no_reorient  #important for SAPT in psi4, default
symmetry c1  #important for SAPT in psi4, default
}

set PROPERTIES_ORIGIN ["COM"]
properties('MP2/aug-cc-pvtz', properties = ['dipole'])
--------------------------------------------------------------------------

    Molecular point group: c1
  Charge       = 0
  Multiplicity = 1
  Basis Set: AUG-CC-PVTZ
    Blend: AUG-CC-PVTZ
  Basis Set: (AUG-CC-PVTZ AUX)
    Blend: AUG-CC-PVTZ-JKFIT

    Orbital Energies [Eh]
    ---------------------

    Doubly Occupied:

       1A    -20.611700     2A    -20.544923     3A    -11.388567
       4A    -11.273596     5A    -11.244198     6A    -11.231446
       7A    -11.220513     8A     -1.458456     9A     -1.352930
      10A     -1.104986    11A     -1.019812    12A     -0.908426
      13A     -0.839375    14A     -0.748944    15A     -0.708056
      16A     -0.674036    17A     -0.645685    18A     -0.628821
      19A     -0.601910    20A     -0.582340    21A     -0.567607
      22A     -0.524530    23A     -0.502174    24A     -0.495261
      25A     -0.481844    26A     -0.444402    27A     -0.380398

  @DF-RHF Final Energy:  -343.85214860043982

   => Energetics <=

    Nuclear Repulsion Energy =            292.6583025700118696
    One-Electron Energy =               -1048.6510380006679952
    Two-Electron Energy =                 412.1405868302163071
    Total Energy =                       -343.8521486004398184
  Basis Set: (AUG-CC-PVTZ AUX)
    Blend: AUG-CC-PVTZ-RI
    Molecular point group: c1

    Geometry (in Angstrom), charge = 0, multiplicity = 1:

       Center              X                  Y                   Z               Mass
    ------------   -----------------  -----------------  -----------------  -----------------
         O            2.532607180777    -0.071471539750     0.204936389129    15.994914619570
         O            0.822531180777     1.250487460250    -0.430514610871    15.994914619570
         C           -1.817085819223    -0.165194539750    -0.588159610871    12.000000000000
         C           -2.584615819223     0.653445460250     0.453621389129    12.000000000000
         C           -0.902367819223    -1.146088539750     0.078540389129    12.000000000000
         C            0.413291180777    -1.013857539750     0.323224389129    12.000000000000
         C            1.215390180777     0.171125460250    -0.024425610871    12.000000000000
         H           -2.525670819223    -0.719832539750    -1.213281610871     1.007825032230
         H           -1.260262819223     0.508974460250    -1.236006610871     1.007825032230
         H           -3.292510819223     1.328217460250    -0.035533610871     1.007825032230
         H           -1.888621819223     1.254116460250     1.044931389129     1.007825032230
         H           -3.145513819223     0.004669460250     1.132969389129     1.007825032230
         H           -1.316317419223    -2.178198139750     0.190619089129     1.007825032230
         H            0.952636180777    -1.805494539750     0.833051389129     1.007825032230
         H            2.989997180777     0.762735460250    -0.027648610871     1.007825032230

  Basis Set: AUG-CC-PVTZ
    Blend: AUG-CC-PVTZ
  Basis Set: (AUG-CC-PVTZ AUX)
    Blend: AUG-CC-PVTZ-JKFIT
	 Reference Energy          =    -343.8521486004398184 [Eh]
	 Singles Energy            =      -0.0000000000000000 [Eh]
	 Same-Spin Energy          =      -0.3411182972820221 [Eh]
	 Opposite-Spin Energy      =      -1.1004356616393645 [Eh]
	 Correlation Energy        =      -1.4415539589213866 [Eh]
	 Total Energy              =    -345.2937025593611793 [Eh]

	 ================> DF-SCS-MP2 Energies <==================
	-----------------------------------------------------------
	 SCS Same-Spin Scale       =       0.3333333333333333 [-]
	 SCS Opposite-Spin Scale   =       1.2000000000000000 [-]
	 SCS Same-Spin Energy      =      -0.1137060990940074 [Eh]
	 SCS Opposite-Spin Energy  =      -1.3205227939672373 [Eh]
	 SCS Correlation Energy    =      -1.4342288930612446 [Eh]
	 SCS Total Energy          =    -345.2863774935010497 [Eh]
	-----------------------------------------------------------

  Dipole Moment: [D]
     X:    -0.3592      Y:    -1.1579      Z:     0.2183     Total:     1.2318

*** Psi4 exiting successfully. Buy a developer a beer!
