                               Psi4 1.3.2 release

  ==> Input File <==

--------------------------------------------------------------------------
#psi4
#
memory 32 gb

molecule  {
0 1
  O        2.5331200    -0.0725200     0.2027050
  O        0.8230440     1.2494390    -0.4327460
  C       -1.8165730    -0.1662430    -0.5903910
  C       -2.5841030     0.6523970     0.4513900
  C       -0.9018550    -1.1471370     0.0763090
  C        0.3949677    -0.9489634     0.5088673
  C        1.2159030     0.1700770    -0.0266570
  H       -2.5251580    -0.7208810    -1.2155130
  H       -1.2597500     0.5079260    -1.2382380
  H       -3.2919980     1.3271690    -0.0377650
  H       -1.8881090     1.2530680     1.0427000
  H       -3.1450010     0.0036210     1.1307380
  H       -1.3667210    -2.0751620     0.4099140
  H        0.9531490    -1.8065430     0.8308200
  H        2.9905100     0.7616870    -0.0298800
units angstrom
no_reorient  #important for SAPT in psi4, default
symmetry c1  #important for SAPT in psi4, default
}

set PROPERTIES_ORIGIN ["COM"]
properties('MP2/aug-cc-pvtz', properties = ['dipole'])
--------------------------------------------------------------------------

    Molecular point group: c1
  Charge       = 0
  Multiplicity = 1
  Basis Set: AUG-CC-PVTZ
    Blend: AUG-CC-PVTZ
  Basis Set: (AUG-CC-PVTZ AUX)
    Blend: AUG-CC-PVTZ-JKFIT

    Orbital Energies [Eh]
    ---------------------

    Doubly Occupied:

       1A    -20.609712     2A    -20.543099     3A    -11.387534
       4A    -11.280272     5A    -11.246387     6A    -11.234056
       7A    -11.222713     8A     -1.456385     9A     -1.351103
      10A     -1.101691    11A     -1.017714    12A     -0.906349
      13A     -0.838388    14A     -0.752553    15A     -0.706118
      16A     -0.674551    17A     -0.645367    18A     -0.626458
      19A     -0.597357    20A     -0.581029    21A     -0.564344
      22A     -0.530231    23A     -0.505577    24A     -0.497039
      25A     -0.479985    26A     -0.442835    27A     -0.375693

  @DF-RHF Final Energy:  -343.84521602139023

   => Energetics <=

    Nuclear Repulsion Energy =            292.2332248088577558
    One-Electron Energy =               -1047.8077961185279037
    Two-Electron Energy =                 411.7293552882798622
    Total Energy =                       -343.8452160213902289
  Basis Set: (AUG-CC-PVTZ AUX)
    Blend: AUG-CC-PVTZ-RI
    Molecular point group: c1

    Geometry (in Angstrom), charge = 0, multiplicity = 1:

       Center              X                  Y                   Z               Mass
    ------------   -----------------  -----------------  -----------------  -----------------
         O            2.535379231629    -0.080428946081     0.180171859542    15.994914619570
         O            0.825303231629     1.241530053919    -0.455279140458    15.994914619570
         C           -1.814313768371    -0.174151946081    -0.612924140458    12.000000000000
         C           -2.581843768371     0.644488053919     0.428856859542    12.000000000000
         C           -0.899595768371    -1.155045946081     0.053775859542    12.000000000000
         C            0.397226931629    -0.956872346081     0.486334159542    12.000000000000
         C            1.218162231629     0.162168053919    -0.049190140458    12.000000000000
         H           -2.522898768371    -0.728789946081    -1.238046140458     1.007825032230
         H           -1.257490768371     0.500017053919    -1.260771140458     1.007825032230
         H           -3.289738768371     1.319260053919    -0.060298140458     1.007825032230
         H           -1.885849768371     1.245159053919     1.020166859542     1.007825032230
         H           -3.142741768371    -0.004287946081     1.108204859542     1.007825032230
         H           -1.364461768371    -2.083070946081     0.387380859542     1.007825032230
         H            0.955408231629    -1.814451946081     0.808286859542     1.007825032230
         H            2.992769231629     0.753778053919    -0.052413140458     1.007825032230

  Basis Set: AUG-CC-PVTZ
    Blend: AUG-CC-PVTZ
  Basis Set: (AUG-CC-PVTZ AUX)
    Blend: AUG-CC-PVTZ-JKFIT
	 Reference Energy          =    -343.8452160213902289 [Eh]
	 Singles Energy            =      -0.0000000000000000 [Eh]
	 Same-Spin Energy          =      -0.3415966276610604 [Eh]
	 Opposite-Spin Energy      =      -1.1015266277095093 [Eh]
	 Correlation Energy        =      -1.4431232553705695 [Eh]
	 Total Energy              =    -345.2883392767607802 [Eh]

	 ================> DF-SCS-MP2 Energies <==================
	-----------------------------------------------------------
	 SCS Same-Spin Scale       =       0.3333333333333333 [-]
	 SCS Opposite-Spin Scale   =       1.2000000000000000 [-]
	 SCS Same-Spin Energy      =      -0.1138655425536868 [Eh]
	 SCS Opposite-Spin Energy  =      -1.3218319532514111 [Eh]
	 SCS Correlation Energy    =      -1.4356974958050979 [Eh]
	 SCS Total Energy          =    -345.2809135171953017 [Eh]
	-----------------------------------------------------------

  Dipole Moment: [D]
     X:    -0.4841      Y:    -1.1648      Z:     0.1943     Total:     1.2762

*** Psi4 exiting successfully. Buy a developer a beer!
