                               Psi4 1.3.2 release

  ==> Input File <==

--------------------------------------------------------------------------
#psi4
#
memory 32 gb

molecule  {
0 1
  O        2.5331200    -0.0725200     0.2027050
  O        0.8230440     1.2494390    -0.4327460
  C       -1.8165730    -0.1662430    -0.5903910
  C       -2.5841030     0.6523970     0.4513900
  C       -0.9018550    -1.1471370     0.0763090
  C        0.4138040    -1.0149060     0.3209930
  C        1.2159030     0.1700770    -0.0266570
  H       -2.5251580    -0.7208810    -1.2155130
  H       -1.2597500     0.5079260    -1.2382380
  H       -3.2919980     1.3271690    -0.0377650
  H       -1.8881090     1.2530680     1.0427000
  H       -3.1450010     0.0036210     1.1307380
  H       -1.3565377    -2.0959789     0.3656087
  H        0.9531490    -1.8065430     0.8308200
  H        2.9905100     0.7616870    -0.0298800
units angstrom
no_reorient  #important for SAPT in psi4, default
symmetry c1  #important for SAPT in psi4, default
}

set PROPERTIES_ORIGIN ["COM"]
properties('MP2/aug-cc-pvtz', properties = ['dipole'])
--------------------------------------------------------------------------

    Molecular point group: c1
  Charge       = 0
  Multiplicity = 1
  Basis Set: AUG-CC-PVTZ
    Blend: AUG-CC-PVTZ
  Basis Set: (AUG-CC-PVTZ AUX)
    Blend: AUG-CC-PVTZ-JKFIT

    Orbital Energies [Eh]
    ---------------------

    Doubly Occupied:

       1A    -20.611314     2A    -20.544549     3A    -11.388217
       4A    -11.270988     5A    -11.243287     6A    -11.231521
       7A    -11.221046     8A     -1.458092     9A     -1.352580
      10A     -1.105489    11A     -1.019736    12A     -0.909003
      13A     -0.839879    14A     -0.752163    15A     -0.707889
      16A     -0.673906    17A     -0.647098    18A     -0.628073
      19A     -0.601376    20A     -0.583171    21A     -0.566925
      22A     -0.527076    23A     -0.503756    24A     -0.495491
      25A     -0.481718    26A     -0.444237    27A     -0.381085

  @DF-RHF Final Energy:  -343.85645438113175

   => Energetics <=

    Nuclear Repulsion Energy =            292.8011727488296856
    One-Electron Energy =               -1048.9359246004285069
    Two-Electron Energy =                 412.2782974704670664
    Total Energy =                       -343.8564543811317549
  Basis Set: (AUG-CC-PVTZ AUX)
    Blend: AUG-CC-PVTZ-RI
    Molecular point group: c1

    Geometry (in Angstrom), charge = 0, multiplicity = 1:

       Center              X                  Y                   Z               Mass
    ------------   -----------------  -----------------  -----------------  -----------------
         O            2.533017484035    -0.072310292721     0.203151247469    15.994914619570
         O            0.822941484035     1.249648707279    -0.432299752531    15.994914619570
         C           -1.816675515965    -0.166033292721    -0.589944752531    12.000000000000
         C           -2.584205515965     0.652606707279     0.451836247469    12.000000000000
         C           -0.901957515965    -1.146927292721     0.076755247469    12.000000000000
         C            0.413701484035    -1.014696292721     0.321439247469    12.000000000000
         C            1.215800484035     0.170286707279    -0.026210752531    12.000000000000
         H           -2.525260515965    -0.720671292721    -1.215066752531     1.007825032230
         H           -1.259852515965     0.508135707279    -1.237791752531     1.007825032230
         H           -3.292100515965     1.327378707279    -0.037318752531     1.007825032230
         H           -1.888211515965     1.253277707279     1.043146247469     1.007825032230
         H           -3.145103515965     0.003830707279     1.131184247469     1.007825032230
         H           -1.356640215965    -2.095769192721     0.366054947469     1.007825032230
         H            0.953046484035    -1.806333292721     0.831266247469     1.007825032230
         H            2.990407484035     0.761896707279    -0.029433752531     1.007825032230

  Basis Set: AUG-CC-PVTZ
    Blend: AUG-CC-PVTZ
  Basis Set: (AUG-CC-PVTZ AUX)
    Blend: AUG-CC-PVTZ-JKFIT
	 Reference Energy          =    -343.8564543811317549 [Eh]
	 Singles Energy            =      -0.0000000000000000 [Eh]
	 Same-Spin Energy          =      -0.3409318208282122 [Eh]
	 Opposite-Spin Energy      =      -1.0998962967882211 [Eh]
	 Correlation Energy        =      -1.4408281176164333 [Eh]
	 Total Energy              =    -345.2972824987481886 [Eh]

	 ================> DF-SCS-MP2 Energies <==================
	-----------------------------------------------------------
	 SCS Same-Spin Scale       =       0.3333333333333333 [-]
	 SCS Opposite-Spin Scale   =       1.2000000000000000 [-]
	 SCS Same-Spin Energy      =      -0.1136439402760707 [Eh]
	 SCS Opposite-Spin Energy  =      -1.3198755561458653 [Eh]
	 SCS Correlation Energy    =      -1.4335194964219360 [Eh]
	 SCS Total Energy          =    -345.2899738775536775 [Eh]
	-----------------------------------------------------------

  Dipole Moment: [D]
     X:    -0.4169      Y:    -1.1343      Z:     0.3122     Total:     1.2481

*** Psi4 exiting successfully. Buy a developer a beer!
