                               Psi4 1.3.2 release

  ==> Input File <==

--------------------------------------------------------------------------
#psi4
#
memory 32 gb

molecule  {
0 1
  O        2.5331200    -0.0725200     0.2027050
  O        0.8230440     1.2494390    -0.4327460
  C       -1.8165730    -0.1662430    -0.5903910
  C       -2.5841030     0.6523970     0.4513900
  C       -0.9018550    -1.1471370     0.0763090
  C        0.4138040    -1.0149060     0.3209930
  C        1.2159030     0.1700770    -0.0266570
  H       -2.5251580    -0.7208810    -1.2155130
  H       -1.2597500     0.5079260    -1.2382380
  H       -3.2919980     1.3271690    -0.0377650
  H       -1.8881090     1.2530680     1.0427000
  H       -3.1450010     0.0036210     1.1307380
  H       -1.3667210    -2.0751620     0.4099140
  H        0.9851804    -1.8684252     0.6979871
  H        2.9905100     0.7616870    -0.0298800
units angstrom
no_reorient  #important for SAPT in psi4, default
symmetry c1  #important for SAPT in psi4, default
}

set PROPERTIES_ORIGIN ["COM"]
properties('MP2/aug-cc-pvtz', properties = ['dipole'])
--------------------------------------------------------------------------

    Molecular point group: c1
  Charge       = 0
  Multiplicity = 1
  Basis Set: AUG-CC-PVTZ
    Blend: AUG-CC-PVTZ
  Basis Set: (AUG-CC-PVTZ AUX)
    Blend: AUG-CC-PVTZ-JKFIT

    Orbital Energies [Eh]
    ---------------------

    Doubly Occupied:

       1A    -20.611124     2A    -20.544288     3A    -11.387991
       4A    -11.271467     5A    -11.243964     6A    -11.231794
       7A    -11.220966     8A     -1.457892     9A     -1.352380
      10A     -1.105593    11A     -1.019553    12A     -0.908856
      13A     -0.839914    14A     -0.752353    15A     -0.707482
      16A     -0.672949    17A     -0.646666    18A     -0.627660
      19A     -0.601161    20A     -0.582447    21A     -0.566149
      22A     -0.528654    23A     -0.504069    24A     -0.495805
      25A     -0.481167    26A     -0.443967    27A     -0.380643

  @DF-RHF Final Energy:  -343.85566604298089

   => Energetics <=

    Nuclear Repulsion Energy =            292.7716634920402612
    One-Electron Energy =               -1048.8807536209960745
    Two-Electron Energy =                 412.2534240859749275
    Total Energy =                       -343.8556660429808858
  Basis Set: (AUG-CC-PVTZ AUX)
    Blend: AUG-CC-PVTZ-RI
    Molecular point group: c1

    Geometry (in Angstrom), charge = 0, multiplicity = 1:

       Center              X                  Y                   Z               Mass
    ------------   -----------------  -----------------  -----------------  -----------------
         O            2.532797408799    -0.071896643222     0.204042983250    15.994914619570
         O            0.822721408799     1.250062356778    -0.431408016750    15.994914619570
         C           -1.816895591201    -0.165619643222    -0.589053016750    12.000000000000
         C           -2.584425591201     0.653020356778     0.452727983250    12.000000000000
         C           -0.902177591201    -1.146513643222     0.077646983250    12.000000000000
         C            0.413481408799    -1.014282643222     0.322330983250    12.000000000000
         C            1.215580408799     0.170700356778    -0.025319016750    12.000000000000
         H           -2.525480591201    -0.720257643222    -1.214175016750     1.007825032230
         H           -1.260072591201     0.508549356778    -1.236900016750     1.007825032230
         H           -3.292320591201     1.327792356778    -0.036427016750     1.007825032230
         H           -1.888431591201     1.253691356778     1.044037983250     1.007825032230
         H           -3.145323591201     0.004244356778     1.132075983250     1.007825032230
         H           -1.367043591201    -2.074538643222     0.411251983250     1.007825032230
         H            0.984857808799    -1.867801843222     0.699325083250     1.007825032230
         H            2.990187408799     0.762310356778    -0.028542016750     1.007825032230

  Basis Set: AUG-CC-PVTZ
    Blend: AUG-CC-PVTZ
  Basis Set: (AUG-CC-PVTZ AUX)
    Blend: AUG-CC-PVTZ-JKFIT
	 Reference Energy          =    -343.8556660429808858 [Eh]
	 Singles Energy            =      -0.0000000000000000 [Eh]
	 Same-Spin Energy          =      -0.3409694929288095 [Eh]
	 Opposite-Spin Energy      =      -1.1000042958486844 [Eh]
	 Correlation Energy        =      -1.4409737887774940 [Eh]
	 Total Energy              =    -345.2966398317583980 [Eh]

	 ================> DF-SCS-MP2 Energies <==================
	-----------------------------------------------------------
	 SCS Same-Spin Scale       =       0.3333333333333333 [-]
	 SCS Opposite-Spin Scale   =       1.2000000000000000 [-]
	 SCS Same-Spin Energy      =      -0.1136564976429365 [Eh]
	 SCS Opposite-Spin Energy  =      -1.3200051550184213 [Eh]
	 SCS Correlation Energy    =      -1.4336616526613577 [Eh]
	 SCS Total Energy          =    -345.2893276956422710 [Eh]
	-----------------------------------------------------------

  Dipole Moment: [D]
     X:    -0.4195      Y:    -1.1671      Z:     0.2386     Total:     1.2629

*** Psi4 exiting successfully. Buy a developer a beer!
