                               Psi4 1.3.2 release

  ==> Input File <==

--------------------------------------------------------------------------
#psi4
#
memory 32 gb

molecule  {
0 1
  O        2.5331200    -0.0725200     0.2027050
  O        0.8230440     1.2494390    -0.4327460
  C       -1.8165730    -0.1662430    -0.5903910
  C       -2.5841030     0.6523970     0.4513900
  C       -0.9018550    -1.1471370     0.0763090
  C        0.4090949    -0.9984204     0.3679616
  C        1.2159030     0.1700770    -0.0266570
  H       -2.5251580    -0.7208810    -1.2155130
  H       -1.2597500     0.5079260    -1.2382380
  H       -3.2919980     1.3271690    -0.0377650
  H       -1.8881090     1.2530680     1.0427000
  H       -3.1450010     0.0036210     1.1307380
  H       -1.3667210    -2.0751620     0.4099140
  H        0.9531490    -1.8065430     0.8308200
  H        2.9905100     0.7616870    -0.0298800
units angstrom
no_reorient  #important for SAPT in psi4, default
symmetry c1  #important for SAPT in psi4, default
}

set PROPERTIES_ORIGIN ["COM"]
properties('MP2/aug-cc-pvtz', properties = ['dipole'])
--------------------------------------------------------------------------

    Molecular point group: c1
  Charge       = 0
  Multiplicity = 1
  Basis Set: AUG-CC-PVTZ
    Blend: AUG-CC-PVTZ
  Basis Set: (AUG-CC-PVTZ AUX)
    Blend: AUG-CC-PVTZ-JKFIT

    Orbital Energies [Eh]
    ---------------------

    Doubly Occupied:

       1A    -20.611029     2A    -20.544267     3A    -11.387970
       4A    -11.272280     5A    -11.243460     6A    -11.231942
       7A    -11.221339     8A     -1.457812     9A     -1.352315
      10A     -1.104724    11A     -1.019560    12A     -0.908544
      13A     -0.839844    14A     -0.752414    15A     -0.707912
      16A     -0.674797    17A     -0.646931    18A     -0.627609
      19A     -0.600384    20A     -0.583336    21A     -0.566242
      22A     -0.528276    23A     -0.504242    24A     -0.495931
      25A     -0.481380    26A     -0.444226    27A     -0.379858

  @DF-RHF Final Energy:  -343.85595555188524

   => Energetics <=

    Nuclear Repulsion Energy =            292.7498851119369192
    One-Electron Energy =               -1048.8344338365536714
    Two-Electron Energy =                 412.2285931727315074
    Total Energy =                       -343.8559555518852449
  Basis Set: (AUG-CC-PVTZ AUX)
    Blend: AUG-CC-PVTZ-RI
    Molecular point group: c1

    Geometry (in Angstrom), charge = 0, multiplicity = 1:

       Center              X                  Y                   Z               Mass
    ------------   -----------------  -----------------  -----------------  -----------------
         O            2.533684855982    -0.074497216057     0.197071683050    15.994914619570
         O            0.823608855982     1.247461783943    -0.438379316950    15.994914619570
         C           -1.816008144018    -0.168220216057    -0.596024316950    12.000000000000
         C           -2.583538144018     0.650419783943     0.445756683050    12.000000000000
         C           -0.901290144018    -1.149114216057     0.070675683050    12.000000000000
         C            0.409659755982    -1.000397616057     0.362328283050    12.000000000000
         C            1.216467855982     0.168099783943    -0.032290316950    12.000000000000
         H           -2.524593144018    -0.722858216057    -1.221146316950     1.007825032230
         H           -1.259185144018     0.505948783943    -1.243871316950     1.007825032230
         H           -3.291433144018     1.325191783943    -0.043398316950     1.007825032230
         H           -1.887544144018     1.251090783943     1.037066683050     1.007825032230
         H           -3.144436144018     0.001643783943     1.125104683050     1.007825032230
         H           -1.366156144018    -2.077139216057     0.404280683050     1.007825032230
         H            0.953713855982    -1.808520216057     0.825186683050     1.007825032230
         H            2.991074855982     0.759709783943    -0.035513316950     1.007825032230

  Basis Set: AUG-CC-PVTZ
    Blend: AUG-CC-PVTZ
  Basis Set: (AUG-CC-PVTZ AUX)
    Blend: AUG-CC-PVTZ-JKFIT
	 Reference Energy          =    -343.8559555518852449 [Eh]
	 Singles Energy            =      -0.0000000000000000 [Eh]
	 Same-Spin Energy          =      -0.3410068160806125 [Eh]
	 Opposite-Spin Energy      =      -1.1000527946358571 [Eh]
	 Correlation Energy        =      -1.4410596107164695 [Eh]
	 Total Energy              =    -345.2970151626017241 [Eh]

	 ================> DF-SCS-MP2 Energies <==================
	-----------------------------------------------------------
	 SCS Same-Spin Scale       =       0.3333333333333333 [-]
	 SCS Opposite-Spin Scale   =       1.2000000000000000 [-]
	 SCS Same-Spin Energy      =      -0.1136689386935375 [Eh]
	 SCS Opposite-Spin Energy  =      -1.3200633535630286 [Eh]
	 SCS Correlation Energy    =      -1.4337322922565661 [Eh]
	 SCS Total Energy          =    -345.2896878441418380 [Eh]
	-----------------------------------------------------------

  Dipole Moment: [D]
     X:    -0.4280      Y:    -1.1389      Z:     0.3041     Total:     1.2541

*** Psi4 exiting successfully. Buy a developer a beer!
