                               Psi4 1.3.2 release

  ==> Input File <==

--------------------------------------------------------------------------
#psi4
#
memory 32 gb

molecule  {
0 1
  O        2.5331200    -0.0725200     0.2027050
  O        0.8230440     1.2494390    -0.4327460
  C       -1.8165730    -0.1662430    -0.5903910
  C       -2.5841030     0.6523970     0.4513900
  C       -0.9018550    -1.1471370     0.0763090
  C        0.4138040    -1.0149060     0.3209930
  C        1.2159030     0.1700770    -0.0266570
  H       -2.5251580    -0.7208810    -1.2155130
  H       -1.2597500     0.5079260    -1.2382380
  H       -3.2919980     1.3271690    -0.0377650
  H       -1.8881090     1.2530680     1.0427000
  H       -3.1450010     0.0036210     1.1307380
  H       -1.3667210    -2.0751620     0.4099140
  H        1.0065347    -1.9096800     0.6094318
  H        2.9905100     0.7616870    -0.0298800
units angstrom
no_reorient  #important for SAPT in psi4, default
symmetry c1  #important for SAPT in psi4, default
}

set PROPERTIES_ORIGIN ["COM"]
properties('MP2/aug-cc-pvtz', properties = ['dipole'])
--------------------------------------------------------------------------

    Molecular point group: c1
  Charge       = 0
  Multiplicity = 1
  Basis Set: AUG-CC-PVTZ
    Blend: AUG-CC-PVTZ
  Basis Set: (AUG-CC-PVTZ AUX)
    Blend: AUG-CC-PVTZ-JKFIT

    Orbital Energies [Eh]
    ---------------------

    Doubly Occupied:

       1A    -20.610943     2A    -20.544179     3A    -11.387849
       4A    -11.272149     5A    -11.245428     6A    -11.232110
       7A    -11.220985     8A     -1.457731     9A     -1.352258
      10A     -1.105630    11A     -1.019214    12A     -0.908774
      13A     -0.839865    14A     -0.752270    15A     -0.706648
      16A     -0.671098    17A     -0.646201    18A     -0.627405
      19A     -0.601080    20A     -0.580912    21A     -0.566048
      22A     -0.529290    23A     -0.504178    24A     -0.495961
      25A     -0.480779    26A     -0.443841    27A     -0.379893

  @DF-RHF Final Energy:  -343.85325969237175

   => Energetics <=

    Nuclear Repulsion Energy =            292.6976511954742364
    One-Electron Energy =               -1048.7363837493078336
    Two-Electron Energy =                 412.1854728614618466
    Total Energy =                       -343.8532596923717506
  Basis Set: (AUG-CC-PVTZ AUX)
    Blend: AUG-CC-PVTZ-RI
    Molecular point group: c1

    Geometry (in Angstrom), charge = 0, multiplicity = 1:

       Center              X                  Y                   Z               Mass
    ------------   -----------------  -----------------  -----------------  -----------------
         O            2.532582307594    -0.071481084896     0.204934998052    15.994914619570
         O            0.822506307594     1.250477915104    -0.430516001948    15.994914619570
         C           -1.817110692406    -0.165204084896    -0.588161001948    12.000000000000
         C           -2.584640692406     0.653435915104     0.453619998052    12.000000000000
         C           -0.902392692406    -1.146098084896     0.078538998052    12.000000000000
         C            0.413266307594    -1.013867084896     0.323222998052    12.000000000000
         C            1.215365307594     0.171115915104    -0.024427001948    12.000000000000
         H           -2.525695692406    -0.719842084896    -1.213283001948     1.007825032230
         H           -1.260287692406     0.508964915104    -1.236008001948     1.007825032230
         H           -3.292535692406     1.328207915104    -0.035535001948     1.007825032230
         H           -1.888646692406     1.254106915104     1.044929998052     1.007825032230
         H           -3.145538692406     0.004659915104     1.132967998052     1.007825032230
         H           -1.367258692406    -2.074123084896     0.412143998052     1.007825032230
         H            1.005997007594    -1.908641084896     0.611661798052     1.007825032230
         H            2.989972307594     0.762725915104    -0.027650001948     1.007825032230

  Basis Set: AUG-CC-PVTZ
    Blend: AUG-CC-PVTZ
  Basis Set: (AUG-CC-PVTZ AUX)
    Blend: AUG-CC-PVTZ-JKFIT
	 Reference Energy          =    -343.8532596923717506 [Eh]
	 Singles Energy            =      -0.0000000000000000 [Eh]
	 Same-Spin Energy          =      -0.3410560638038983 [Eh]
	 Opposite-Spin Energy      =      -1.1002375661194614 [Eh]
	 Correlation Energy        =      -1.4412936299233596 [Eh]
	 Total Energy              =    -345.2945533222950871 [Eh]

	 ================> DF-SCS-MP2 Energies <==================
	-----------------------------------------------------------
	 SCS Same-Spin Scale       =       0.3333333333333333 [-]
	 SCS Opposite-Spin Scale   =       1.2000000000000000 [-]
	 SCS Same-Spin Energy      =      -0.1136853546012994 [Eh]
	 SCS Opposite-Spin Energy  =      -1.3202850793433536 [Eh]
	 SCS Correlation Energy    =      -1.4339704339446531 [Eh]
	 SCS Total Energy          =    -345.2872301263163877 [Eh]
	-----------------------------------------------------------

  Dipole Moment: [D]
     X:    -0.4250      Y:    -1.1855      Z:     0.1699     Total:     1.2708

*** Psi4 exiting successfully. Buy a developer a beer!
