                               Psi4 1.3.2 release

  ==> Input File <==

--------------------------------------------------------------------------
#psi4
#
memory 32 gb

molecule  {
0 1
  O        2.5331200    -0.0725200     0.2027050
  O        0.8230440     1.2494390    -0.4327460
  C       -1.8165730    -0.1662430    -0.5903910
  C       -2.5841030     0.6523970     0.4513900
  C       -0.9018550    -1.1471370     0.0763090
  C        0.4138040    -1.0149060     0.3209930
  C        1.2159030     0.1700770    -0.0266570
  H       -2.5251580    -0.7208810    -1.2155130
  H       -1.2597500     0.5079260    -1.2382380
  H       -3.2919980     1.3271690    -0.0377650
  H       -1.8881090     1.2530680     1.0427000
  H       -3.1450010     0.0036210     1.1307380
  H       -1.3667210    -2.0751620     0.4099140
  H        0.9638261    -1.8271704     0.7865424
  H        2.9905100     0.7616870    -0.0298800
units angstrom
no_reorient  #important for SAPT in psi4, default
symmetry c1  #important for SAPT in psi4, default
}

set PROPERTIES_ORIGIN ["COM"]
properties('MP2/aug-cc-pvtz', properties = ['dipole'])
--------------------------------------------------------------------------

    Molecular point group: c1
  Charge       = 0
  Multiplicity = 1
  Basis Set: AUG-CC-PVTZ
    Blend: AUG-CC-PVTZ
  Basis Set: (AUG-CC-PVTZ AUX)
    Blend: AUG-CC-PVTZ-JKFIT

    Orbital Energies [Eh]
    ---------------------

    Doubly Occupied:

       1A    -20.611245     2A    -20.544444     3A    -11.388141
       4A    -11.271031     5A    -11.243275     6A    -11.231605
       7A    -11.221071     8A     -1.458020     9A     -1.352503
      10A     -1.105558    11A     -1.019735    12A     -0.908919
      13A     -0.839973    14A     -0.752409    15A     -0.707866
      16A     -0.673872    17A     -0.647027    18A     -0.627856
      19A     -0.601205    20A     -0.583284    21A     -0.566226
      22A     -0.528000    23A     -0.504007    24A     -0.495635
      25A     -0.481550    26A     -0.444131    27A     -0.381025

  @DF-RHF Final Energy:  -343.85664665920257

   => Energetics <=

    Nuclear Repulsion Energy =            292.8106168246360994
    One-Electron Energy =               -1048.9553039489942421
    Two-Electron Energy =                 412.2880404651555750
    Total Energy =                       -343.8566466592025677
  Basis Set: (AUG-CC-PVTZ AUX)
    Blend: AUG-CC-PVTZ-RI
    Molecular point group: c1

    Geometry (in Angstrom), charge = 0, multiplicity = 1:

       Center              X                  Y                   Z               Mass
    ------------   -----------------  -----------------  -----------------  -----------------
         O            2.533012510003    -0.072312201548     0.203150968448    15.994914619570
         O            0.822936510003     1.249646798452    -0.432300031552    15.994914619570
         C           -1.816680489997    -0.166035201548    -0.589945031552    12.000000000000
         C           -2.584210489997     0.652604798452     0.451835968448    12.000000000000
         C           -0.901962489997    -1.146929201548     0.076754968448    12.000000000000
         C            0.413696510003    -1.014698201548     0.321438968448    12.000000000000
         C            1.215795510003     0.170284798452    -0.026211031552    12.000000000000
         H           -2.525265489997    -0.720673201548    -1.215067031552     1.007825032230
         H           -1.259857489997     0.508133798452    -1.237792031552     1.007825032230
         H           -3.292105489997     1.327376798452    -0.037319031552     1.007825032230
         H           -1.888216489997     1.253275798452     1.043145968448     1.007825032230
         H           -3.145108489997     0.003828798452     1.131183968448     1.007825032230
         H           -1.366828489997    -2.074954201548     0.410359968448     1.007825032230
         H            0.963718610003    -1.826962601548     0.786988368448     1.007825032230
         H            2.990402510003     0.761894798452    -0.029434031552     1.007825032230

  Basis Set: AUG-CC-PVTZ
    Blend: AUG-CC-PVTZ
  Basis Set: (AUG-CC-PVTZ AUX)
    Blend: AUG-CC-PVTZ-JKFIT
	 Reference Energy          =    -343.8566466592025677 [Eh]
	 Singles Energy            =      -0.0000000000000000 [Eh]
	 Same-Spin Energy          =      -0.3409309191601755 [Eh]
	 Opposite-Spin Energy      =      -1.0998910990878272 [Eh]
	 Correlation Energy        =      -1.4408220182480027 [Eh]
	 Total Energy              =    -345.2974686774505813 [Eh]

	 ================> DF-SCS-MP2 Energies <==================
	-----------------------------------------------------------
	 SCS Same-Spin Scale       =       0.3333333333333333 [-]
	 SCS Opposite-Spin Scale   =       1.2000000000000000 [-]
	 SCS Same-Spin Energy      =      -0.1136436397200585 [Eh]
	 SCS Opposite-Spin Energy  =      -1.3198693189053927 [Eh]
	 SCS Correlation Energy    =      -1.4335129586254511 [Eh]
	 SCS Total Energy          =    -345.2901596178280101 [Eh]
	-----------------------------------------------------------

  Dipole Moment: [D]
     X:    -0.4214      Y:    -1.1394      Z:     0.3036     Total:     1.2521

*** Psi4 exiting successfully. Buy a developer a beer!
