                               Psi4 1.3.2 release

  ==> Input File <==

--------------------------------------------------------------------------
#psi4
#
memory 32 gb

molecule  {
0 1
  O        2.5331200    -0.0725200     0.2027050
  O        0.8230440     1.2494390    -0.4327460
  C       -1.8165730    -0.1662430    -0.5903910
  C       -2.5841030     0.6523970     0.4513900
  C       -0.9018550    -1.1471370     0.0763090
  C        0.4138040    -1.0149060     0.3209930
  C        1.2159030     0.1700770    -0.0266570
  H       -2.5251580    -0.7208810    -1.2155130
  H       -1.2597500     0.5079260    -1.2382380
  H       -3.2919980     1.3271690    -0.0377650
  H       -1.8881090     1.2530680     1.0427000
  H       -3.1450010     0.0036210     1.1307380
  H       -1.3667210    -2.0751620     0.4099140
  H        1.0172118    -1.9303074     0.5651542
  H        2.9905100     0.7616870    -0.0298800
units angstrom
no_reorient  #important for SAPT in psi4, default
symmetry c1  #important for SAPT in psi4, default
}

set PROPERTIES_ORIGIN ["COM"]
properties('MP2/aug-cc-pvtz', properties = ['dipole'])
--------------------------------------------------------------------------

    Molecular point group: c1
  Charge       = 0
  Multiplicity = 1
  Basis Set: AUG-CC-PVTZ
    Blend: AUG-CC-PVTZ
  Basis Set: (AUG-CC-PVTZ AUX)
    Blend: AUG-CC-PVTZ-JKFIT

    Orbital Energies [Eh]
    ---------------------

    Doubly Occupied:

       1A    -20.610832     2A    -20.544145     3A    -11.387786
       4A    -11.272579     5A    -11.246432     6A    -11.232315
       7A    -11.221040     8A     -1.457640     9A     -1.352201
      10A     -1.105656    11A     -1.018999    12A     -0.908730
      13A     -0.839853    14A     -0.752228    15A     -0.706124
      16A     -0.669898    17A     -0.645918    18A     -0.627260
      19A     -0.601030    20A     -0.579884    21A     -0.565957
      22A     -0.529591    23A     -0.504246    24A     -0.496029
      25A     -0.480585    26A     -0.443785    27A     -0.379396

  @DF-RHF Final Energy:  -343.85142079593760

   => Energetics <=

    Nuclear Repulsion Energy =            292.6485261523960730
    One-Electron Energy =               -1048.6396156371004054
    Two-Electron Energy =                 412.1396686887667897
    Total Energy =                       -343.8514207959375995
  Basis Set: (AUG-CC-PVTZ AUX)
    Blend: AUG-CC-PVTZ-RI
    Molecular point group: c1

    Geometry (in Angstrom), charge = 0, multiplicity = 1:

       Center              X                  Y                   Z               Mass
    ------------   -----------------  -----------------  -----------------  -----------------
         O            2.532474757496    -0.071273305733     0.205381004949    15.994914619570
         O            0.822398757496     1.250685694267    -0.430069995051    15.994914619570
         C           -1.817218242504    -0.164996305733    -0.587714995051    12.000000000000
         C           -2.584748242504     0.653643694267     0.454066004949    12.000000000000
         C           -0.902500242504    -1.145890305733     0.078985004949    12.000000000000
         C            0.413158757496    -1.013659305733     0.323669004949    12.000000000000
         C            1.215257757496     0.171323694267    -0.023980995051    12.000000000000
         H           -2.525803242504    -0.719634305733    -1.212836995051     1.007825032230
         H           -1.260395242504     0.509172694267    -1.235561995051     1.007825032230
         H           -3.292643242504     1.328415694267    -0.035088995051     1.007825032230
         H           -1.888754242504     1.254314694267     1.045376004949     1.007825032230
         H           -3.145646242504     0.004867694267     1.133414004949     1.007825032230
         H           -1.367366242504    -2.073915305733     0.412590004949     1.007825032230
         H            1.016566557496    -1.929060705733     0.567830204949     1.007825032230
         H            2.989864757496     0.762933694267    -0.027203995051     1.007825032230

  Basis Set: AUG-CC-PVTZ
    Blend: AUG-CC-PVTZ
  Basis Set: (AUG-CC-PVTZ AUX)
    Blend: AUG-CC-PVTZ-JKFIT
	 Reference Energy          =    -343.8514207959375995 [Eh]
	 Singles Energy            =      -0.0000000000000000 [Eh]
	 Same-Spin Energy          =      -0.3411168894593621 [Eh]
	 Opposite-Spin Energy      =      -1.1004079249298111 [Eh]
	 Correlation Energy        =      -1.4415248143891732 [Eh]
	 Total Energy              =    -345.2929456103267967 [Eh]

	 ================> DF-SCS-MP2 Energies <==================
	-----------------------------------------------------------
	 SCS Same-Spin Scale       =       0.3333333333333333 [-]
	 SCS Opposite-Spin Scale   =       1.2000000000000000 [-]
	 SCS Same-Spin Energy      =      -0.1137056298197874 [Eh]
	 SCS Opposite-Spin Energy  =      -1.3204895099157732 [Eh]
	 SCS Correlation Energy    =      -1.4341951397355606 [Eh]
	 SCS Total Energy          =    -345.2856159356731496 [Eh]
	-----------------------------------------------------------

  Dipole Moment: [D]
     X:    -0.4304      Y:    -1.1911      Z:     0.1345     Total:     1.2736

*** Psi4 exiting successfully. Buy a developer a beer!
