                               Psi4 1.3.2 release

  ==> Input File <==

--------------------------------------------------------------------------
#psi4
#
memory 32 gb

molecule  {
0 1
  O        2.5331200    -0.0725200     0.2027050
  O        0.8230440     1.2494390    -0.4327460
  C       -1.8165730    -0.1662430    -0.5903910
  C       -2.5841030     0.6523970     0.4513900
  C       -0.9018550    -1.1471370     0.0763090
  C        0.3855495    -0.9159921     0.6028045
  C        1.2159030     0.1700770    -0.0266570
  H       -2.5251580    -0.7208810    -1.2155130
  H       -1.2597500     0.5079260    -1.2382380
  H       -3.2919980     1.3271690    -0.0377650
  H       -1.8881090     1.2530680     1.0427000
  H       -3.1450010     0.0036210     1.1307380
  H       -1.3667210    -2.0751620     0.4099140
  H        0.9531490    -1.8065430     0.8308200
  H        2.9905100     0.7616870    -0.0298800
units angstrom
no_reorient  #important for SAPT in psi4, default
symmetry c1  #important for SAPT in psi4, default
}

set PROPERTIES_ORIGIN ["COM"]
properties('MP2/aug-cc-pvtz', properties = ['dipole'])
--------------------------------------------------------------------------

    Molecular point group: c1
  Charge       = 0
  Multiplicity = 1
  Basis Set: AUG-CC-PVTZ
    Blend: AUG-CC-PVTZ
  Basis Set: (AUG-CC-PVTZ AUX)
    Blend: AUG-CC-PVTZ-JKFIT

    Orbital Energies [Eh]
    ---------------------

    Doubly Occupied:

       1A    -20.608424     2A    -20.542100     3A    -11.387367
       4A    -11.288484     5A    -11.249936     6A    -11.236247
       7A    -11.224355     8A     -1.454939     9A     -1.349952
      10A     -1.099526    11A     -1.015053    12A     -0.904586
      13A     -0.836534    14A     -0.752798    15A     -0.703520
      16A     -0.671991    17A     -0.643982    18A     -0.625599
      19A     -0.595830    20A     -0.577505    21A     -0.560851
      22A     -0.531582    23A     -0.506919    24A     -0.497779
      25A     -0.478804    26A     -0.440641    27A     -0.372870

  @DF-RHF Final Energy:  -343.83089681894859

   => Energetics <=

    Nuclear Repulsion Energy =            291.6415451854102230
    One-Electron Energy =               -1046.6285398023671860
    Two-Electron Energy =                 411.1560977980083749
    Total Energy =                       -343.8308968189485881
  Basis Set: (AUG-CC-PVTZ AUX)
    Blend: AUG-CC-PVTZ-RI
    Molecular point group: c1

    Geometry (in Angstrom), charge = 0, multiplicity = 1:

       Center              X                  Y                   Z               Mass
    ------------   -----------------  -----------------  -----------------  -----------------
         O            2.536508823390    -0.084383428765     0.168905302542    15.994914619570
         O            0.826432823390     1.237575571235    -0.466545697458    15.994914619570
         C           -1.813184176610    -0.178106428765    -0.624190697458    12.000000000000
         C           -2.580714176610     0.640533571235     0.417590302542    12.000000000000
         C           -0.898466176610    -1.159000428765     0.042509302542    12.000000000000
         C            0.388938323390    -0.927855528765     0.569004802542    12.000000000000
         C            1.219291823390     0.158213571235    -0.060456697458    12.000000000000
         H           -2.521769176610    -0.732744428765    -1.249312697458     1.007825032230
         H           -1.256361176610     0.496062571235    -1.272037697458     1.007825032230
         H           -3.288609176610     1.315305571235    -0.071564697458     1.007825032230
         H           -1.884720176610     1.241204571235     1.008900302542     1.007825032230
         H           -3.141612176610    -0.008242428765     1.096938302542     1.007825032230
         H           -1.363332176610    -2.087025428765     0.376114302542     1.007825032230
         H            0.956537823390    -1.818406428765     0.797020302542     1.007825032230
         H            2.993898823390     0.749823571235    -0.063679697458     1.007825032230

  Basis Set: AUG-CC-PVTZ
    Blend: AUG-CC-PVTZ
  Basis Set: (AUG-CC-PVTZ AUX)
    Blend: AUG-CC-PVTZ-JKFIT
	 Reference Energy          =    -343.8308968189485881 [Eh]
	 Singles Energy            =      -0.0000000000000000 [Eh]
	 Same-Spin Energy          =      -0.3422682354903017 [Eh]
	 Opposite-Spin Energy      =      -1.1033652323633474 [Eh]
	 Correlation Energy        =      -1.4456334678536491 [Eh]
	 Total Energy              =    -345.2765302868022559 [Eh]

	 ================> DF-SCS-MP2 Energies <==================
	-----------------------------------------------------------
	 SCS Same-Spin Scale       =       0.3333333333333333 [-]
	 SCS Opposite-Spin Scale   =       1.2000000000000000 [-]
	 SCS Same-Spin Energy      =      -0.1140894118301006 [Eh]
	 SCS Opposite-Spin Energy  =      -1.3240382788360168 [Eh]
	 SCS Correlation Energy    =      -1.4381276906661173 [Eh]
	 SCS Total Energy          =    -345.2690245096147237 [Eh]
	-----------------------------------------------------------

  Dipole Moment: [D]
     X:    -0.5550      Y:    -1.1603      Z:     0.1063     Total:     1.2906

*** Psi4 exiting successfully. Buy a developer a beer!
