                               Psi4 1.3.2 release

  ==> Input File <==

--------------------------------------------------------------------------
#psi4
#
memory 32 gb

molecule  {
0 1
  O        2.5331200    -0.0725200     0.2027050
  O        0.8230440     1.2494390    -0.4327460
  C       -1.8165730    -0.1662430    -0.5903910
  C       -2.5841030     0.6523970     0.4513900
  C       -0.9018550    -1.1471370     0.0763090
  C        0.4138040    -1.0149060     0.3209930
  C        1.2159030     0.1700770    -0.0266570
  H       -2.5251580    -0.7208810    -1.2155130
  H       -1.2597500     0.5079260    -1.2382380
  H       -3.2919980     1.3271690    -0.0377650
  H       -1.8881090     1.2530680     1.0427000
  H       -3.1450010     0.0036210     1.1307380
  H       -1.3056213    -2.2000635     0.1440824
  H        0.9531490    -1.8065430     0.8308200
  H        2.9905100     0.7616870    -0.0298800
units angstrom
no_reorient  #important for SAPT in psi4, default
symmetry c1  #important for SAPT in psi4, default
}

set PROPERTIES_ORIGIN ["COM"]
properties('MP2/aug-cc-pvtz', properties = ['dipole'])
--------------------------------------------------------------------------

    Molecular point group: c1
  Charge       = 0
  Multiplicity = 1
  Basis Set: AUG-CC-PVTZ
    Blend: AUG-CC-PVTZ
  Basis Set: (AUG-CC-PVTZ AUX)
    Blend: AUG-CC-PVTZ-JKFIT

    Orbital Energies [Eh]
    ---------------------

    Doubly Occupied:

       1A    -20.611859     2A    -20.545095     3A    -11.388739
       4A    -11.274786     5A    -11.244592     6A    -11.231454
       7A    -11.220378     8A     -1.458613     9A     -1.353086
      10A     -1.104804    11A     -1.019875    12A     -0.908110
      13A     -0.839269    14A     -0.747712    15A     -0.708100
      16A     -0.674137    17A     -0.645070    18A     -0.629043
      19A     -0.602011    20A     -0.582254    21A     -0.567278
      22A     -0.523882    23A     -0.501617    24A     -0.495179
      25A     -0.481922    26A     -0.444458    27A     -0.380050

  @DF-RHF Final Energy:  -343.85005277906720

   => Energetics <=

    Nuclear Repulsion Energy =            292.6037216473133640
    One-Electron Energy =               -1048.5408035031409781
    Two-Electron Energy =                 412.0870290767604160
    Total Energy =                       -343.8500527790671981
  Basis Set: (AUG-CC-PVTZ AUX)
    Blend: AUG-CC-PVTZ-RI
    Molecular point group: c1

    Geometry (in Angstrom), charge = 0, multiplicity = 1:

       Center              X                  Y                   Z               Mass
    ------------   -----------------  -----------------  -----------------  -----------------
         O            2.532504604711    -0.071261851759     0.205382675047    15.994914619570
         O            0.822428604711     1.250697148241    -0.430068324953    15.994914619570
         C           -1.817188395289    -0.164984851759    -0.587713324953    12.000000000000
         C           -2.584718395289     0.653655148241     0.454067675047    12.000000000000
         C           -0.902470395289    -1.145878851759     0.078986675047    12.000000000000
         C            0.413188604711    -1.013647851759     0.323670675047    12.000000000000
         C            1.215287604711     0.171335148241    -0.023979324953    12.000000000000
         H           -2.525773395289    -0.719622851759    -1.212835324953     1.007825032230
         H           -1.260365395289     0.509184148241    -1.235560324953     1.007825032230
         H           -3.292613395289     1.328427148241    -0.035087324953     1.007825032230
         H           -1.888724395289     1.254326148241     1.045377675047     1.007825032230
         H           -3.145616395289     0.004879148241     1.133415675047     1.007825032230
         H           -1.306236695289    -2.198805351759     0.146760075047     1.007825032230
         H            0.952533604711    -1.805284851759     0.833497675047     1.007825032230
         H            2.989894604711     0.762945148241    -0.027202324953     1.007825032230

  Basis Set: AUG-CC-PVTZ
    Blend: AUG-CC-PVTZ
  Basis Set: (AUG-CC-PVTZ AUX)
    Blend: AUG-CC-PVTZ-JKFIT
	 Reference Energy          =    -343.8500527790671981 [Eh]
	 Singles Energy            =      -0.0000000000000000 [Eh]
	 Same-Spin Energy          =      -0.3412070826221348 [Eh]
	 Opposite-Spin Energy      =      -1.1006920311982857 [Eh]
	 Correlation Energy        =      -1.4418991138204205 [Eh]
	 Total Energy              =    -345.2919518928875959 [Eh]

	 ================> DF-SCS-MP2 Energies <==================
	-----------------------------------------------------------
	 SCS Same-Spin Scale       =       0.3333333333333333 [-]
	 SCS Opposite-Spin Scale   =       1.2000000000000000 [-]
	 SCS Same-Spin Energy      =      -0.1137356942073783 [Eh]
	 SCS Opposite-Spin Energy  =      -1.3208304374379429 [Eh]
	 SCS Correlation Energy    =      -1.4345661316453211 [Eh]
	 SCS Total Energy          =    -345.2846189107125383 [Eh]
	-----------------------------------------------------------

  Dipole Moment: [D]
     X:    -0.3394      Y:    -1.1572      Z:     0.1940     Total:     1.2215

*** Psi4 exiting successfully. Buy a developer a beer!
