                               Psi4 1.3.2 release

  ==> Input File <==

--------------------------------------------------------------------------
#psi4
#
memory 32 gb

molecule  {
0 1
  O        2.5331200    -0.0725200     0.2027050
  O        0.8230440     1.2494390    -0.4327460
  C       -1.8165730    -0.1662430    -0.5903910
  C       -2.5841030     0.6523970     0.4513900
  C       -0.9018550    -1.1471370     0.0763090
  C        0.3902586    -0.9324778     0.5558359
  C        1.2159030     0.1700770    -0.0266570
  H       -2.5251580    -0.7208810    -1.2155130
  H       -1.2597500     0.5079260    -1.2382380
  H       -3.2919980     1.3271690    -0.0377650
  H       -1.8881090     1.2530680     1.0427000
  H       -3.1450010     0.0036210     1.1307380
  H       -1.3667210    -2.0751620     0.4099140
  H        0.9531490    -1.8065430     0.8308200
  H        2.9905100     0.7616870    -0.0298800
units angstrom
no_reorient  #important for SAPT in psi4, default
symmetry c1  #important for SAPT in psi4, default
}

set PROPERTIES_ORIGIN ["COM"]
properties('MP2/aug-cc-pvtz', properties = ['dipole'])
--------------------------------------------------------------------------

    Molecular point group: c1
  Charge       = 0
  Multiplicity = 1
  Basis Set: AUG-CC-PVTZ
    Blend: AUG-CC-PVTZ
  Basis Set: (AUG-CC-PVTZ AUX)
    Blend: AUG-CC-PVTZ-JKFIT

    Orbital Energies [Eh]
    ---------------------

    Doubly Occupied:

       1A    -20.609104     2A    -20.542614     3A    -11.387448
       4A    -11.284120     5A    -11.248021     6A    -11.235076
       7A    -11.223462     8A     -1.455706     9A     -1.350557
      10A     -1.100593    11A     -1.016557    12A     -0.905461
      13A     -0.837550    14A     -0.752659    15A     -0.704918
      16A     -0.673502    17A     -0.644684    18A     -0.626035
      19A     -0.596477    20A     -0.579479    21A     -0.562873
      22A     -0.530911    23A     -0.506208    24A     -0.497414
      25A     -0.479417    26A     -0.441876    27A     -0.374255

  @DF-RHF Final Energy:  -343.83877553195964

   => Energetics <=

    Nuclear Repulsion Energy =            291.9606146841511531
    One-Electron Energy =               -1047.2648230571332988
    Two-Electron Energy =                 411.4654328410225617
    Total Energy =                       -343.8387755319596408
  Basis Set: (AUG-CC-PVTZ AUX)
    Blend: AUG-CC-PVTZ-RI
    Molecular point group: c1

    Geometry (in Angstrom), charge = 0, multiplicity = 1:

       Center              X                  Y                   Z               Mass
    ------------   -----------------  -----------------  -----------------  -----------------
         O            2.535944027510    -0.082406181426     0.174538581042    15.994914619570
         O            0.825868027510     1.239552818574    -0.460912418958    15.994914619570
         C           -1.813748972490    -0.176129181426    -0.618557418958    12.000000000000
         C           -2.581278972490     0.642510818574     0.423223581042    12.000000000000
         C           -0.899030972490    -1.157023181426     0.048142581042    12.000000000000
         C            0.393082627510    -0.942363981426     0.527669481042    12.000000000000
         C            1.218727027510     0.160190818574    -0.054823418958    12.000000000000
         H           -2.522333972490    -0.730767181426    -1.243679418958     1.007825032230
         H           -1.256925972490     0.498039818574    -1.266404418958     1.007825032230
         H           -3.289173972490     1.317282818574    -0.065931418958     1.007825032230
         H           -1.885284972490     1.243181818574     1.014533581042     1.007825032230
         H           -3.142176972490    -0.006265181426     1.102571581042     1.007825032230
         H           -1.363896972490    -2.085048181426     0.381747581042     1.007825032230
         H            0.955973027510    -1.816429181426     0.802653581042     1.007825032230
         H            2.993334027510     0.751800818574    -0.058046418958     1.007825032230

  Basis Set: AUG-CC-PVTZ
    Blend: AUG-CC-PVTZ
  Basis Set: (AUG-CC-PVTZ AUX)
    Blend: AUG-CC-PVTZ-JKFIT
	 Reference Energy          =    -343.8387755319596408 [Eh]
	 Singles Energy            =      -0.0000000000000000 [Eh]
	 Same-Spin Energy          =      -0.3419073048304677 [Eh]
	 Opposite-Spin Energy      =      -1.1023656169005391 [Eh]
	 Correlation Energy        =      -1.4442729217310069 [Eh]
	 Total Energy              =    -345.2830484536906397 [Eh]

	 ================> DF-SCS-MP2 Energies <==================
	-----------------------------------------------------------
	 SCS Same-Spin Scale       =       0.3333333333333333 [-]
	 SCS Opposite-Spin Scale   =       1.2000000000000000 [-]
	 SCS Same-Spin Energy      =      -0.1139691016101559 [Eh]
	 SCS Opposite-Spin Energy  =      -1.3228387402806470 [Eh]
	 SCS Correlation Energy    =      -1.4368078418908028 [Eh]
	 SCS Total Energy          =    -345.2755833738504521 [Eh]
	-----------------------------------------------------------

  Dipole Moment: [D]
     X:    -0.5167      Y:    -1.1648      Z:     0.1515     Total:     1.2832

*** Psi4 exiting successfully. Buy a developer a beer!
