                               Psi4 1.3.2 release

  ==> Input File <==

--------------------------------------------------------------------------
#psi4
#
memory 32 gb

molecule  {
0 1
  O        2.5331200    -0.0725200     0.2027050
  O        0.8230440     1.2494390    -0.4327460
  C       -1.8165730    -0.1662430    -0.5903910
  C       -2.5841030     0.6523970     0.4513900
  C       -0.9018550    -1.1471370     0.0763090
  C        0.3996768    -0.9654491     0.4618988
  C        1.2159030     0.1700770    -0.0266570
  H       -2.5251580    -0.7208810    -1.2155130
  H       -1.2597500     0.5079260    -1.2382380
  H       -3.2919980     1.3271690    -0.0377650
  H       -1.8881090     1.2530680     1.0427000
  H       -3.1450010     0.0036210     1.1307380
  H       -1.3667210    -2.0751620     0.4099140
  H        0.9531490    -1.8065430     0.8308200
  H        2.9905100     0.7616870    -0.0298800
units angstrom
no_reorient  #important for SAPT in psi4, default
symmetry c1  #important for SAPT in psi4, default
}

set PROPERTIES_ORIGIN ["COM"]
properties('MP2/aug-cc-pvtz', properties = ['dipole'])
--------------------------------------------------------------------------

    Molecular point group: c1
  Charge       = 0
  Multiplicity = 1
  Basis Set: AUG-CC-PVTZ
    Blend: AUG-CC-PVTZ
  Basis Set: (AUG-CC-PVTZ AUX)
    Blend: AUG-CC-PVTZ-JKFIT

    Orbital Energies [Eh]
    ---------------------

    Doubly Occupied:

       1A    -20.610240     2A    -20.543543     3A    -11.387642
       4A    -11.276989     5A    -11.245062     6A    -11.233192
       7A    -11.222110     8A     -1.456967     9A     -1.351583
      10A     -1.102771    11A     -1.018572    12A     -0.907197
      13A     -0.839047    14A     -0.752479    15A     -0.707046
      16A     -0.675118    17A     -0.645993    18A     -0.626865
      19A     -0.598370    20A     -0.582168    21A     -0.565340
      22A     -0.529558    23A     -0.505035    24A     -0.496667
      25A     -0.480504    26A     -0.443537    27A     -0.377135

  @DF-RHF Final Energy:  -343.85022425836326

   => Energetics <=

    Nuclear Repulsion Energy =            292.4569402856920419
    One-Electron Energy =               -1048.2528689576370198
    Two-Electron Energy =                 411.9457044135816659
    Total Energy =                       -343.8502242583632551
  Basis Set: (AUG-CC-PVTZ AUX)
    Blend: AUG-CC-PVTZ-RI
    Molecular point group: c1

    Geometry (in Angstrom), charge = 0, multiplicity = 1:

       Center              X                  Y                   Z               Mass
    ------------   -----------------  -----------------  -----------------  -----------------
         O            2.534814435749    -0.078451698741     0.185805126049    15.994914619570
         O            0.824738435749     1.243507301259    -0.449645873951    15.994914619570
         C           -1.814878564251    -0.172174698741    -0.607290873951    12.000000000000
         C           -2.582408564251     0.646465301259     0.434490126049    12.000000000000
         C           -0.900160564251    -1.153068698741     0.059409126049    12.000000000000
         C            0.401371235749    -0.971380798741     0.444998926049    12.000000000000
         C            1.217597435749     0.164145301259    -0.043556873951    12.000000000000
         H           -2.523463564251    -0.726812698741    -1.232412873951     1.007825032230
         H           -1.258055564251     0.501994301259    -1.255137873951     1.007825032230
         H           -3.290303564251     1.321237301259    -0.054664873951     1.007825032230
         H           -1.886414564251     1.247136301259     1.025800126049     1.007825032230
         H           -3.143306564251    -0.002310698741     1.113838126049     1.007825032230
         H           -1.365026564251    -2.081093698741     0.393014126049     1.007825032230
         H            0.954843435749    -1.812474698741     0.813920126049     1.007825032230
         H            2.992204435749     0.755755301259    -0.046779873951     1.007825032230

  Basis Set: AUG-CC-PVTZ
    Blend: AUG-CC-PVTZ
  Basis Set: (AUG-CC-PVTZ AUX)
    Blend: AUG-CC-PVTZ-JKFIT
	 Reference Energy          =    -343.8502242583632551 [Eh]
	 Singles Energy            =      -0.0000000000000000 [Eh]
	 Same-Spin Energy          =      -0.3413409747460346 [Eh]
	 Opposite-Spin Energy      =      -1.1008618827035654 [Eh]
	 Correlation Energy        =      -1.4422028574496000 [Eh]
	 Total Energy              =    -345.2924271158128704 [Eh]

	 ================> DF-SCS-MP2 Energies <==================
	-----------------------------------------------------------
	 SCS Same-Spin Scale       =       0.3333333333333333 [-]
	 SCS Opposite-Spin Scale   =       1.2000000000000000 [-]
	 SCS Same-Spin Energy      =      -0.1137803249153449 [Eh]
	 SCS Opposite-Spin Energy  =      -1.3210342592442785 [Eh]
	 SCS Correlation Energy    =      -1.4348145841596234 [Eh]
	 SCS Total Energy          =    -345.2850388425228516 [Eh]
	-----------------------------------------------------------

  Dipole Moment: [D]
     X:    -0.4580      Y:    -1.1604      Z:     0.2340     Total:     1.2692

*** Psi4 exiting successfully. Buy a developer a beer!
