                               Psi4 1.3.2 release

  ==> Input File <==

--------------------------------------------------------------------------
#psi4
#
memory 32 gb

molecule  {
0 1
  O        2.5331200    -0.0725200     0.2027050
  O        0.8230440     1.2494390    -0.4327460
  C       -1.8165730    -0.1662430    -0.5903910
  C       -2.5841030     0.6523970     0.4513900
  C       -0.9018550    -1.1471370     0.0763090
  C        0.4138040    -1.0149060     0.3209930
  C        1.2159030     0.1700770    -0.0266570
  H       -2.5251580    -0.7208810    -1.2155130
  H       -1.2597500     0.5079260    -1.2382380
  H       -3.2919980     1.3271690    -0.0377650
  H       -1.8881090     1.2530680     1.0427000
  H       -3.1450010     0.0036210     1.1307380
  H       -1.3361711    -2.1376128     0.2769982
  H        0.9531490    -1.8065430     0.8308200
  H        2.9905100     0.7616870    -0.0298800
units angstrom
no_reorient  #important for SAPT in psi4, default
symmetry c1  #important for SAPT in psi4, default
}

set PROPERTIES_ORIGIN ["COM"]
properties('MP2/aug-cc-pvtz', properties = ['dipole'])
--------------------------------------------------------------------------

    Molecular point group: c1
  Charge       = 0
  Multiplicity = 1
  Basis Set: AUG-CC-PVTZ
    Blend: AUG-CC-PVTZ
  Basis Set: (AUG-CC-PVTZ AUX)
    Blend: AUG-CC-PVTZ-JKFIT

    Orbital Energies [Eh]
    ---------------------

    Doubly Occupied:

       1A    -20.611458     2A    -20.544673     3A    -11.388324
       4A    -11.271844     5A    -11.243606     6A    -11.231465
       7A    -11.220784     8A     -1.458220     9A     -1.352699
      10A     -1.105293    11A     -1.019740    12A     -0.908870
      13A     -0.839622    14A     -0.750954    15A     -0.707970
      16A     -0.673915    17A     -0.646610    18A     -0.628414
      19A     -0.601669    20A     -0.582676    21A     -0.567660
      22A     -0.525825    23A     -0.503094    24A     -0.495383
      25A     -0.481743    26A     -0.444298    27A     -0.380889

  @DF-RHF Final Energy:  -343.85504151220505

   => Energetics <=

    Nuclear Repulsion Energy =            292.7456610594397262
    One-Electron Energy =               -1048.8260075938455884
    Two-Electron Energy =                 412.2253050222008142
    Total Energy =                       -343.8550415122050481
  Basis Set: (AUG-CC-PVTZ AUX)
    Blend: AUG-CC-PVTZ-RI
    Molecular point group: c1

    Geometry (in Angstrom), charge = 0, multiplicity = 1:

       Center              X                  Y                   Z               Mass
    ------------   -----------------  -----------------  -----------------  -----------------
         O            2.532812331903    -0.071890915732     0.204043818299    15.994914619570
         O            0.822736331903     1.250068084268    -0.431407181701    15.994914619570
         C           -1.816880668097    -0.165613915732    -0.589052181701    12.000000000000
         C           -2.584410668097     0.653026084268     0.452728818299    12.000000000000
         C           -0.902162668097    -1.146507915732     0.077647818299    12.000000000000
         C            0.413496331903    -1.014276915732     0.322331818299    12.000000000000
         C            1.215595331903     0.170706084268    -0.025318181701    12.000000000000
         H           -2.525465668097    -0.720251915732    -1.214174181701     1.007825032230
         H           -1.260057668097     0.508555084268    -1.236899181701     1.007825032230
         H           -3.292305668097     1.327798084268    -0.036426181701     1.007825032230
         H           -1.888416668097     1.253697084268     1.044038818299     1.007825032230
         H           -3.145308668097     0.004250084268     1.132076818299     1.007825032230
         H           -1.336478768097    -2.136983715732     0.278337018299     1.007825032230
         H            0.952841331903    -1.805913915732     0.832158818299     1.007825032230
         H            2.990202331903     0.762316084268    -0.028541181701     1.007825032230

  Basis Set: AUG-CC-PVTZ
    Blend: AUG-CC-PVTZ
  Basis Set: (AUG-CC-PVTZ AUX)
    Blend: AUG-CC-PVTZ-JKFIT
	 Reference Energy          =    -343.8550415122050481 [Eh]
	 Singles Energy            =      -0.0000000000000000 [Eh]
	 Same-Spin Energy          =      -0.3409902397905924 [Eh]
	 Opposite-Spin Energy      =      -1.1000708827301553 [Eh]
	 Correlation Energy        =      -1.4410611225207477 [Eh]
	 Total Energy              =    -345.2961026347257985 [Eh]

	 ================> DF-SCS-MP2 Energies <==================
	-----------------------------------------------------------
	 SCS Same-Spin Scale       =       0.3333333333333333 [-]
	 SCS Opposite-Spin Scale   =       1.2000000000000000 [-]
	 SCS Same-Spin Energy      =      -0.1136634132635308 [Eh]
	 SCS Opposite-Spin Energy  =      -1.3200850592761864 [Eh]
	 SCS Correlation Energy    =      -1.4337484725397172 [Eh]
	 SCS Total Energy          =    -345.2887899847447670 [Eh]
	-----------------------------------------------------------

  Dipole Moment: [D]
     X:    -0.3927      Y:    -1.1512      Z:     0.2661     Total:     1.2451

*** Psi4 exiting successfully. Buy a developer a beer!
