                               Psi4 1.3.2 release

  ==> Input File <==

--------------------------------------------------------------------------
#psi4
#
memory 32 gb

molecule  {
0 1
  O        1.5280220    -0.7684950     0.0001570
  O        0.6145710     1.3078690     0.0000680
  C       -0.8109530    -0.6383160    -0.0001140
  C        0.4754770     0.0955910    -0.0004470
  C       -1.9669030     0.0367350     0.0001300
  H       -0.7663599    -1.7224380     0.1999000
  H       -2.9239270    -0.4730490     0.0003210
  H       -1.9656330     1.1220070     0.0001100
  H        2.3294960    -0.2055650     0.0004620
units angstrom
no_reorient  #important for SAPT in psi4, default
symmetry c1  #important for SAPT in psi4, default
}

set PROPERTIES_ORIGIN ["COM"]
properties('MP2/aug-cc-pvtz', properties = ['dipole'])
--------------------------------------------------------------------------

    Molecular point group: c1
  Charge       = 0
  Multiplicity = 1
  Basis Set: AUG-CC-PVTZ
    Blend: AUG-CC-PVTZ
  Basis Set: (AUG-CC-PVTZ AUX)
    Blend: AUG-CC-PVTZ-JKFIT

    Orbital Energies [Eh]
    ---------------------

    Doubly Occupied:

       1A    -20.618225     2A    -20.550116     3A    -11.394773
       4A    -11.269126     5A    -11.259670     6A     -1.460557
       7A     -1.356898     8A     -1.082335     9A     -0.906459
      10A     -0.770653    11A     -0.713556    12A     -0.698862
      13A     -0.631183    14A     -0.622683    15A     -0.598952
      16A     -0.550162    17A     -0.490695    18A     -0.459517
      19A     -0.399753

  @DF-RHF Final Energy:  -265.75547510257456

   => Energetics <=

    Nuclear Repulsion Energy =            161.6785310632419055
    One-Electron Energy =                -683.1996649371313879
    Two-Electron Energy =                 255.7656587713149747
    Total Energy =                       -265.7554751025745645
  Basis Set: (AUG-CC-PVTZ AUX)
    Blend: AUG-CC-PVTZ-RI
    Molecular point group: c1

    Geometry (in Angstrom), charge = 0, multiplicity = 1:

       Center              X                  Y                   Z               Mass
    ------------   -----------------  -----------------  -----------------  -----------------
         O            1.482346642586    -0.786077444496    -0.002630946666    15.994914619570
         O            0.568895642586     1.290286555504    -0.002719946666    15.994914619570
         C           -0.856628357414    -0.655898444496    -0.002901946666    12.000000000000
         C            0.429801642586     0.078008555504    -0.003234946666    12.000000000000
         C           -2.012578357414     0.019152555504    -0.002657946666    12.000000000000
         H           -0.812035257414    -1.740020444496     0.197112053334     1.007825032230
         H           -2.969602357414    -0.490631444496    -0.002466946666     1.007825032230
         H           -2.011308357414     1.104424555504    -0.002677946666     1.007825032230
         H            2.283820642586    -0.223147444496    -0.002325946666     1.007825032230

  Basis Set: AUG-CC-PVTZ
    Blend: AUG-CC-PVTZ
  Basis Set: (AUG-CC-PVTZ AUX)
    Blend: AUG-CC-PVTZ-JKFIT
	 Reference Energy          =    -265.7554751025745645 [Eh]
	 Singles Energy            =      -0.0000000000000000 [Eh]
	 Same-Spin Energy          =      -0.2546586057220215 [Eh]
	 Opposite-Spin Energy      =      -0.7917391187332656 [Eh]
	 Correlation Energy        =      -1.0463977244552871 [Eh]
	 Total Energy              =    -266.8018728270298539 [Eh]

	 ================> DF-SCS-MP2 Energies <==================
	-----------------------------------------------------------
	 SCS Same-Spin Scale       =       0.3333333333333333 [-]
	 SCS Opposite-Spin Scale   =       1.2000000000000000 [-]
	 SCS Same-Spin Energy      =      -0.0848862019073405 [Eh]
	 SCS Opposite-Spin Energy  =      -0.9500869424799188 [Eh]
	 SCS Correlation Energy    =      -1.0349731443872592 [Eh]
	 SCS Total Energy          =    -266.7904482469618301 [Eh]
	-----------------------------------------------------------

  Dipole Moment: [D]
     X:    -0.5925      Y:    -1.3566      Z:     0.1442     Total:     1.4874

*** Psi4 exiting successfully. Buy a developer a beer!
