                               Psi4 1.3.2 release

  ==> Input File <==

--------------------------------------------------------------------------
#psi4
#
memory 32 gb

molecule  {
0 1
  O        1.5280220    -0.7684950     0.0001570
  O        0.6145710     1.3078690     0.0000680
  C       -0.8109530    -0.6383160    -0.0001140
  C        0.4754770     0.0955910    -0.0004470
  C       -1.9669030     0.0367350     0.0001300
  H       -0.7664070    -1.7224440    -0.0001000
  H       -2.9239270    -0.4730490     0.0003210
  H       -1.9656330     1.1220070     0.0001100
  H        2.3294960    -0.2055650     0.0004620
units angstrom
no_reorient  #important for SAPT in psi4, default
symmetry c1  #important for SAPT in psi4, default
}

set PROPERTIES_ORIGIN ["COM"]
properties('MP2/aug-cc-pvtz', properties = ['dipole'])
--------------------------------------------------------------------------

    Molecular point group: c1
  Charge       = 0
  Multiplicity = 1
  Basis Set: AUG-CC-PVTZ
    Blend: AUG-CC-PVTZ
  Basis Set: (AUG-CC-PVTZ AUX)
    Blend: AUG-CC-PVTZ-JKFIT

    Orbital Energies [Eh]
    ---------------------

    Doubly Occupied:

       1A    -20.618322     2A    -20.550010     3A    -11.394761
       4A    -11.268573     5A    -11.258036     6A     -1.460607
       7A     -1.356876     8A     -1.082711     9A     -0.906579
      10A     -0.771799    11A     -0.715305    12A     -0.699444
      13A     -0.630735    14A     -0.623469    15A     -0.599713
      16A     -0.551401    17A     -0.490752    18A     -0.459473
      19A     -0.400477

  @DF-RHF Final Energy:  -265.75803108219839

   => Energetics <=

    Nuclear Repulsion Energy =            161.7484612730083029
    One-Electron Energy =                -683.3348963493589281
    Two-Electron Energy =                 255.8284039941522394
    Total Energy =                       -265.7580310821983858
  Basis Set: (AUG-CC-PVTZ AUX)
    Blend: AUG-CC-PVTZ-RI
    Molecular point group: c1

    Geometry (in Angstrom), charge = 0, multiplicity = 1:

       Center              X                  Y                   Z               Mass
    ------------   -----------------  -----------------  -----------------  -----------------
         O            1.482347301678    -0.786077360535     0.000167745999    15.994914619570
         O            0.568896301678     1.290286639465     0.000078745999    15.994914619570
         C           -0.856627698322    -0.655898360535    -0.000103254001    12.000000000000
         C            0.429802301678     0.078008639465    -0.000436254001    12.000000000000
         C           -2.012577698322     0.019152639465     0.000140745999    12.000000000000
         H           -0.812081698322    -1.740026360535    -0.000089254001     1.007825032230
         H           -2.969601698322    -0.490631360535     0.000331745999     1.007825032230
         H           -2.011307698322     1.104424639465     0.000120745999     1.007825032230
         H            2.283821301678    -0.223147360535     0.000472745999     1.007825032230

  Basis Set: AUG-CC-PVTZ
    Blend: AUG-CC-PVTZ
  Basis Set: (AUG-CC-PVTZ AUX)
    Blend: AUG-CC-PVTZ-JKFIT
	 Reference Energy          =    -265.7580310821983858 [Eh]
	 Singles Energy            =      -0.0000000000000000 [Eh]
	 Same-Spin Energy          =      -0.2545624908851358 [Eh]
	 Opposite-Spin Energy      =      -0.7914956021804413 [Eh]
	 Correlation Energy        =      -1.0460580930655772 [Eh]
	 Total Energy              =    -266.8040891752639823 [Eh]

	 ================> DF-SCS-MP2 Energies <==================
	-----------------------------------------------------------
	 SCS Same-Spin Scale       =       0.3333333333333333 [-]
	 SCS Opposite-Spin Scale   =       1.2000000000000000 [-]
	 SCS Same-Spin Energy      =      -0.0848541636283786 [Eh]
	 SCS Opposite-Spin Energy  =      -0.9497947226165295 [Eh]
	 SCS Correlation Energy    =      -1.0346488862449081 [Eh]
	 SCS Total Energy          =    -266.7926799684432808 [Eh]
	-----------------------------------------------------------

  Dipole Moment: [D]
     X:    -0.5904      Y:    -1.3774      Z:    -0.0001     Total:     1.4986

*** Psi4 exiting successfully. Buy a developer a beer!
