                               Psi4 1.3.2 release

  ==> Input File <==

--------------------------------------------------------------------------
#psi4
#
memory 32 gb

molecule  {
0 1
  O        1.5280220    -0.7684950     0.0001570
  O        0.6145710     1.3078690     0.0000680
  C       -0.8109530    -0.6383160    -0.0001140
  C        0.4754770     0.0955910    -0.0004470
  C       -1.9669030     0.0367350     0.0001300
  H       -0.7663717    -1.7224395     0.1499000
  H       -2.9239270    -0.4730490     0.0003210
  H       -1.9656330     1.1220070     0.0001100
  H        2.3294960    -0.2055650     0.0004620
units angstrom
no_reorient  #important for SAPT in psi4, default
symmetry c1  #important for SAPT in psi4, default
}

set PROPERTIES_ORIGIN ["COM"]
properties('MP2/aug-cc-pvtz', properties = ['dipole'])
--------------------------------------------------------------------------

    Molecular point group: c1
  Charge       = 0
  Multiplicity = 1
  Basis Set: AUG-CC-PVTZ
    Blend: AUG-CC-PVTZ
  Basis Set: (AUG-CC-PVTZ AUX)
    Blend: AUG-CC-PVTZ-JKFIT

    Orbital Energies [Eh]
    ---------------------

    Doubly Occupied:

       1A    -20.618266     2A    -20.550069     3A    -11.394766
       4A    -11.268884     5A    -11.258959     6A     -1.460578
       7A     -1.356888     8A     -1.082494     9A     -0.906508
      10A     -0.771131    11A     -0.714295    12A     -0.699126
      13A     -0.631004    14A     -0.623002    15A     -0.599283
      16A     -0.550716    17A     -0.490719    18A     -0.459499
      19A     -0.400064

  @DF-RHF Final Energy:  -265.75662946187009

   => Energetics <=

    Nuclear Repulsion Energy =            161.7088107569907720
    One-Electron Energy =                -683.2583794429057207
    Two-Electron Energy =                 255.7929392240448010
    Total Energy =                       -265.7566294618700908
  Basis Set: (AUG-CC-PVTZ AUX)
    Blend: AUG-CC-PVTZ-RI
    Molecular point group: c1

    Geometry (in Angstrom), charge = 0, multiplicity = 1:

       Center              X                  Y                   Z               Mass
    ------------   -----------------  -----------------  -----------------  -----------------
         O            1.482346807709    -0.786077423506    -0.001931273500    15.994914619570
         O            0.568895807709     1.290286576494    -0.002020273500    15.994914619570
         C           -0.856628192291    -0.655898423506    -0.002202273500    12.000000000000
         C            0.429801807709     0.078008576494    -0.002535273500    12.000000000000
         C           -2.012578192291     0.019152576494    -0.001958273500    12.000000000000
         H           -0.812046892291    -1.740021923506     0.147811726500     1.007825032230
         H           -2.969602192291    -0.490631423506    -0.001767273500     1.007825032230
         H           -2.011308192291     1.104424576494    -0.001978273500     1.007825032230
         H            2.283820807709    -0.223147423506    -0.001626273500     1.007825032230

  Basis Set: AUG-CC-PVTZ
    Blend: AUG-CC-PVTZ
  Basis Set: (AUG-CC-PVTZ AUX)
    Blend: AUG-CC-PVTZ-JKFIT
	 Reference Energy          =    -265.7566294618700908 [Eh]
	 Singles Energy            =      -0.0000000000000000 [Eh]
	 Same-Spin Energy          =      -0.2546169058984505 [Eh]
	 Opposite-Spin Energy      =      -0.7916277771354846 [Eh]
	 Correlation Energy        =      -1.0462446830339351 [Eh]
	 Total Energy              =    -266.8028741449040240 [Eh]

	 ================> DF-SCS-MP2 Energies <==================
	-----------------------------------------------------------
	 SCS Same-Spin Scale       =       0.3333333333333333 [-]
	 SCS Opposite-Spin Scale   =       1.2000000000000000 [-]
	 SCS Same-Spin Energy      =      -0.0848723019661502 [Eh]
	 SCS Opposite-Spin Energy  =      -0.9499533325625815 [Eh]
	 SCS Correlation Energy    =      -1.0348256345287317 [Eh]
	 SCS Total Energy          =    -266.7914550963988063 [Eh]
	-----------------------------------------------------------

  Dipole Moment: [D]
     X:    -0.5916      Y:    -1.3657      Z:     0.1085     Total:     1.4922

*** Psi4 exiting successfully. Buy a developer a beer!
