                               Psi4 1.3.2 release

  ==> Input File <==

--------------------------------------------------------------------------
#psi4
#
memory 32 gb

molecule  {
0 1
  O        1.5280220    -0.7684950     0.0001570
  O        0.6145710     1.3078690     0.0000680
  C       -0.8109646    -0.6383168     0.0998860
  C        0.4754770     0.0955910    -0.0004470
  C       -1.9669030     0.0367350     0.0001300
  H       -0.7664070    -1.7224440    -0.0001000
  H       -2.9239270    -0.4730490     0.0003210
  H       -1.9656330     1.1220070     0.0001100
  H        2.3294960    -0.2055650     0.0004620
units angstrom
no_reorient  #important for SAPT in psi4, default
symmetry c1  #important for SAPT in psi4, default
}

set PROPERTIES_ORIGIN ["COM"]
properties('MP2/aug-cc-pvtz', properties = ['dipole'])
--------------------------------------------------------------------------

    Molecular point group: c1
  Charge       = 0
  Multiplicity = 1
  Basis Set: AUG-CC-PVTZ
    Blend: AUG-CC-PVTZ
  Basis Set: (AUG-CC-PVTZ AUX)
    Blend: AUG-CC-PVTZ-JKFIT

    Orbital Energies [Eh]
    ---------------------

    Doubly Occupied:

       1A    -20.618157     2A    -20.549908     3A    -11.394912
       4A    -11.270009     5A    -11.258967     6A     -1.460415
       7A     -1.356747     8A     -1.081826     9A     -0.905779
      10A     -0.771711    11A     -0.714315    12A     -0.698989
      13A     -0.630754    14A     -0.623021    15A     -0.598381
      16A     -0.550853    17A     -0.490611    18A     -0.458950
      19A     -0.400140

  @DF-RHF Final Energy:  -265.75530356415277

   => Energetics <=

    Nuclear Repulsion Energy =            161.6446370966686175
    One-Electron Energy =                -683.1309918147953795
    Two-Electron Energy =                 255.7310511539740503
    Total Energy =                       -265.7553035641527686
  Basis Set: (AUG-CC-PVTZ AUX)
    Blend: AUG-CC-PVTZ-RI
    Molecular point group: c1

    Geometry (in Angstrom), charge = 0, multiplicity = 1:

       Center              X                  Y                   Z               Mass
    ------------   -----------------  -----------------  -----------------  -----------------
         O            1.482349234444    -0.786077227241    -0.016494031046    15.994914619570
         O            0.568898234444     1.290286772759    -0.016583031046    15.994914619570
         C           -0.856637365556    -0.655899027241     0.083234968954    12.000000000000
         C            0.429804234444     0.078008772759    -0.017098031046    12.000000000000
         C           -2.012575765556     0.019152772759    -0.016521031046    12.000000000000
         H           -0.812079765556    -1.740026227241    -0.016751031046     1.007825032230
         H           -2.969599765556    -0.490631227241    -0.016330031046     1.007825032230
         H           -2.011305765556     1.104424772759    -0.016541031046     1.007825032230
         H            2.283823234444    -0.223147227241    -0.016189031046     1.007825032230

  Basis Set: AUG-CC-PVTZ
    Blend: AUG-CC-PVTZ
  Basis Set: (AUG-CC-PVTZ AUX)
    Blend: AUG-CC-PVTZ-JKFIT
	 Reference Energy          =    -265.7553035641527686 [Eh]
	 Singles Energy            =      -0.0000000000000000 [Eh]
	 Same-Spin Energy          =      -0.2546811812662659 [Eh]
	 Opposite-Spin Energy      =      -0.7918130636876011 [Eh]
	 Correlation Energy        =      -1.0464942449538670 [Eh]
	 Total Energy              =    -266.8017978091066311 [Eh]

	 ================> DF-SCS-MP2 Energies <==================
	-----------------------------------------------------------
	 SCS Same-Spin Scale       =       0.3333333333333333 [-]
	 SCS Opposite-Spin Scale   =       1.2000000000000000 [-]
	 SCS Same-Spin Energy      =      -0.0848937270887553 [Eh]
	 SCS Opposite-Spin Energy  =      -0.9501756764251212 [Eh]
	 SCS Correlation Energy    =      -1.0350694035138766 [Eh]
	 SCS Total Energy          =    -266.7903729676666558 [Eh]
	-----------------------------------------------------------

  Dipole Moment: [D]
     X:    -0.5989      Y:    -1.3655      Z:    -0.0725     Total:     1.4928

*** Psi4 exiting successfully. Buy a developer a beer!
