                               Psi4 1.3.2 release

  ==> Input File <==

--------------------------------------------------------------------------
#psi4
#
memory 32 gb

molecule  {
0 1
  O        1.5280220    -0.7684950     0.0001570
  O        0.6145710     1.3078690     0.0000680
  C       -0.8109763    -0.6383177     0.1998860
  C        0.4754770     0.0955910    -0.0004470
  C       -1.9669030     0.0367350     0.0001300
  H       -0.7664070    -1.7224440    -0.0001000
  H       -2.9239270    -0.4730490     0.0003210
  H       -1.9656330     1.1220070     0.0001100
  H        2.3294960    -0.2055650     0.0004620
units angstrom
no_reorient  #important for SAPT in psi4, default
symmetry c1  #important for SAPT in psi4, default
}

set PROPERTIES_ORIGIN ["COM"]
properties('MP2/aug-cc-pvtz', properties = ['dipole'])
--------------------------------------------------------------------------

    Molecular point group: c1
  Charge       = 0
  Multiplicity = 1
  Basis Set: AUG-CC-PVTZ
    Blend: AUG-CC-PVTZ
  Basis Set: (AUG-CC-PVTZ AUX)
    Blend: AUG-CC-PVTZ-JKFIT

    Orbital Energies [Eh]
    ---------------------

    Doubly Occupied:

       1A    -20.617696     2A    -20.549638     3A    -11.395351
       4A    -11.274302     5A    -11.261730     6A     -1.459871
       7A     -1.356388     8A     -1.079184     9A     -0.903509
      10A     -0.771515    11A     -0.711700    12A     -0.697519
      13A     -0.630739    14A     -0.622008    15A     -0.594282
      16A     -0.549149    17A     -0.490220    18A     -0.457381
      19A     -0.399202

  @DF-RHF Final Energy:  -265.74700593781120

   => Energetics <=

    Nuclear Repulsion Energy =            161.3374770668446274
    One-Electron Energy =                -682.5261971938135730
    Two-Electron Energy =                 255.4417141891578069
    Total Energy =                       -265.7470059378111955
  Basis Set: (AUG-CC-PVTZ AUX)
    Blend: AUG-CC-PVTZ-RI
    Molecular point group: c1

    Geometry (in Angstrom), charge = 0, multiplicity = 1:

       Center              X                  Y                   Z               Mass
    ------------   -----------------  -----------------  -----------------  -----------------
         O            1.482351183872    -0.786077077285    -0.033155808090    15.994914619570
         O            0.568900183872     1.290286922715    -0.033244808090    15.994914619570
         C           -0.856647116128    -0.655899777285     0.166573191910    12.000000000000
         C            0.429806183872     0.078008922715    -0.033759808090    12.000000000000
         C           -2.012573816128     0.019152922715    -0.033182808090    12.000000000000
         H           -0.812077816128    -1.740026077285    -0.033412808090     1.007825032230
         H           -2.969597816128    -0.490631077285    -0.032991808090     1.007825032230
         H           -2.011303816128     1.104424922715    -0.033202808090     1.007825032230
         H            2.283825183872    -0.223147077285    -0.032850808090     1.007825032230

  Basis Set: AUG-CC-PVTZ
    Blend: AUG-CC-PVTZ
  Basis Set: (AUG-CC-PVTZ AUX)
    Blend: AUG-CC-PVTZ-JKFIT
	 Reference Energy          =    -265.7470059378111955 [Eh]
	 Singles Energy            =      -0.0000000000000000 [Eh]
	 Same-Spin Energy          =      -0.2550282477746815 [Eh]
	 Opposite-Spin Energy      =      -0.7929034925246394 [Eh]
	 Correlation Energy        =      -1.0479317402993209 [Eh]
	 Total Energy              =    -266.7949376781105002 [Eh]

	 ================> DF-SCS-MP2 Energies <==================
	-----------------------------------------------------------
	 SCS Same-Spin Scale       =       0.3333333333333333 [-]
	 SCS Opposite-Spin Scale   =       1.2000000000000000 [-]
	 SCS Same-Spin Energy      =      -0.0850094159248938 [Eh]
	 SCS Opposite-Spin Energy  =      -0.9514841910295673 [Eh]
	 SCS Correlation Energy    =      -1.0364936069544610 [Eh]
	 SCS Total Energy          =    -266.7834995447656752 [Eh]
	-----------------------------------------------------------

  Dipole Moment: [D]
     X:    -0.6230      Y:    -1.3309      Z:    -0.1468     Total:     1.4768

*** Psi4 exiting successfully. Buy a developer a beer!
