                               Psi4 1.3.2 release

  ==> Input File <==

--------------------------------------------------------------------------
#psi4
#
memory 32 gb

molecule  {
0 1
  O        1.5280220    -0.7684950     0.0001570
  O        0.6145710     1.3078690     0.0000680
  C       -0.8109704    -0.6383172     0.1498860
  C        0.4754770     0.0955910    -0.0004470
  C       -1.9669030     0.0367350     0.0001300
  H       -0.7664070    -1.7224440    -0.0001000
  H       -2.9239270    -0.4730490     0.0003210
  H       -1.9656330     1.1220070     0.0001100
  H        2.3294960    -0.2055650     0.0004620
units angstrom
no_reorient  #important for SAPT in psi4, default
symmetry c1  #important for SAPT in psi4, default
}

set PROPERTIES_ORIGIN ["COM"]
properties('MP2/aug-cc-pvtz', properties = ['dipole'])
--------------------------------------------------------------------------

    Molecular point group: c1
  Charge       = 0
  Multiplicity = 1
  Basis Set: AUG-CC-PVTZ
    Blend: AUG-CC-PVTZ
  Basis Set: (AUG-CC-PVTZ AUX)
    Blend: AUG-CC-PVTZ-JKFIT

    Orbital Energies [Eh]
    ---------------------

    Doubly Occupied:

       1A    -20.617961     2A    -20.549789     3A    -11.395098
       4A    -11.271806     5A    -11.260128     6A     -1.460184
       7A     -1.356593     8A     -1.080725     9A     -0.904813
      10A     -0.771620    11A     -0.713164    12A     -0.698397
      13A     -0.630759    14A     -0.622546    15A     -0.596692
      16A     -0.550157    17A     -0.490443    18A     -0.458299
      19A     -0.399735

  @DF-RHF Final Energy:  -265.75186855225365

   => Energetics <=

    Nuclear Repulsion Energy =            161.5158618826032182
    One-Electron Energy =                -682.8776462943441175
    Two-Electron Energy =                 255.6099158594872449
    Total Energy =                       -265.7518685522536543
  Basis Set: (AUG-CC-PVTZ AUX)
    Blend: AUG-CC-PVTZ-RI
    Molecular point group: c1

    Geometry (in Angstrom), charge = 0, multiplicity = 1:

       Center              X                  Y                   Z               Mass
    ------------   -----------------  -----------------  -----------------  -----------------
         O            1.482350200827    -0.786077160594    -0.024824919568    15.994914619570
         O            0.568899200827     1.290286839406    -0.024913919568    15.994914619570
         C           -0.856642199173    -0.655899360594     0.124904080432    12.000000000000
         C            0.429805200827     0.078008839406    -0.025428919568    12.000000000000
         C           -2.012574799173     0.019152839406    -0.024851919568    12.000000000000
         H           -0.812078799173    -1.740026160594    -0.025081919568     1.007825032230
         H           -2.969598799173    -0.490631160594    -0.024660919568     1.007825032230
         H           -2.011304799173     1.104424839406    -0.024871919568     1.007825032230
         H            2.283824200827    -0.223147160594    -0.024519919568     1.007825032230

  Basis Set: AUG-CC-PVTZ
    Blend: AUG-CC-PVTZ
  Basis Set: (AUG-CC-PVTZ AUX)
    Blend: AUG-CC-PVTZ-JKFIT
	 Reference Energy          =    -265.7518685522536543 [Eh]
	 Singles Energy            =      -0.0000000000000000 [Eh]
	 Same-Spin Energy          =      -0.2548266000481046 [Eh]
	 Opposite-Spin Energy      =      -0.7922574406231417 [Eh]
	 Correlation Energy        =      -1.0470840406712463 [Eh]
	 Total Energy              =    -266.7989525929248771 [Eh]

	 ================> DF-SCS-MP2 Energies <==================
	-----------------------------------------------------------
	 SCS Same-Spin Scale       =       0.3333333333333333 [-]
	 SCS Opposite-Spin Scale   =       1.2000000000000000 [-]
	 SCS Same-Spin Energy      =      -0.0849422000160349 [Eh]
	 SCS Opposite-Spin Energy  =      -0.9507089287477700 [Eh]
	 SCS Correlation Energy    =      -1.0356511287638048 [Eh]
	 SCS Total Energy          =    -266.7875196810174430 [Eh]
	-----------------------------------------------------------

  Dipole Moment: [D]
     X:    -0.6093      Y:    -1.3510      Z:    -0.1094     Total:     1.4860

*** Psi4 exiting successfully. Buy a developer a beer!
