                               Psi4 1.3.2 release

  ==> Input File <==

--------------------------------------------------------------------------
#psi4
#
memory 32 gb

molecule  {
0 1
  O        1.5280220    -0.7684950     0.0001570
  O        0.6145710     1.3078690     0.0000680
  C       -0.8109530    -0.6383160    -0.0001140
  C        0.4754770     0.0955910    -0.0004470
  C       -1.9669030     0.0367350     0.0001300
  H       -0.7663481    -1.7224365     0.2499000
  H       -2.9239270    -0.4730490     0.0003210
  H       -1.9656330     1.1220070     0.0001100
  H        2.3294960    -0.2055650     0.0004620
units angstrom
no_reorient  #important for SAPT in psi4, default
symmetry c1  #important for SAPT in psi4, default
}

set PROPERTIES_ORIGIN ["COM"]
properties('MP2/aug-cc-pvtz', properties = ['dipole'])
--------------------------------------------------------------------------

    Molecular point group: c1
  Charge       = 0
  Multiplicity = 1
  Basis Set: AUG-CC-PVTZ
    Blend: AUG-CC-PVTZ
  Basis Set: (AUG-CC-PVTZ AUX)
    Blend: AUG-CC-PVTZ-JKFIT

    Orbital Energies [Eh]
    ---------------------

    Doubly Occupied:

       1A    -20.618173     2A    -20.550178     3A    -11.394787
       4A    -11.269438     5A    -11.260572     6A     -1.460532
       7A     -1.356914     8A     -1.082143     9A     -0.906402
      10A     -0.770086    11A     -0.712668    12A     -0.698498
      13A     -0.631380    14A     -0.622320    15A     -0.598530
      16A     -0.549424    17A     -0.490666    18A     -0.459537
      19A     -0.399363

  @DF-RHF Final Energy:  -265.75391627947499

   => Energetics <=

    Nuclear Repulsion Energy =            161.6403137455673971
    One-Electron Energy =                -683.1252426454504985
    Two-Electron Energy =                 255.7310126204081087
    Total Energy =                       -265.7539162794749927
  Basis Set: (AUG-CC-PVTZ AUX)
    Blend: AUG-CC-PVTZ-RI
    Molecular point group: c1

    Geometry (in Angstrom), charge = 0, multiplicity = 1:

       Center              X                  Y                   Z               Mass
    ------------   -----------------  -----------------  -----------------  -----------------
         O            1.482346477463    -0.786077465486    -0.003330619832    15.994914619570
         O            0.568895477463     1.290286534514    -0.003419619832    15.994914619570
         C           -0.856628522537    -0.655898465486    -0.003601619832    12.000000000000
         C            0.429801477463     0.078008534514    -0.003934619832    12.000000000000
         C           -2.012578522537     0.019152534514    -0.003357619832    12.000000000000
         H           -0.812023622537    -1.740018965486     0.246412380168     1.007825032230
         H           -2.969602522537    -0.490631465486    -0.003166619832     1.007825032230
         H           -2.011308522537     1.104424534514    -0.003377619832     1.007825032230
         H            2.283820477463    -0.223147465486    -0.003025619832     1.007825032230

  Basis Set: AUG-CC-PVTZ
    Blend: AUG-CC-PVTZ
  Basis Set: (AUG-CC-PVTZ AUX)
    Blend: AUG-CC-PVTZ-JKFIT
	 Reference Energy          =    -265.7539162794749927 [Eh]
	 Singles Energy            =      -0.0000000000000000 [Eh]
	 Same-Spin Energy          =      -0.2547115314494944 [Eh]
	 Opposite-Spin Energy      =      -0.7918889643308051 [Eh]
	 Correlation Energy        =      -1.0466004957802995 [Eh]
	 Total Energy              =    -266.8005167752552893 [Eh]

	 ================> DF-SCS-MP2 Energies <==================
	-----------------------------------------------------------
	 SCS Same-Spin Scale       =       0.3333333333333333 [-]
	 SCS Opposite-Spin Scale   =       1.2000000000000000 [-]
	 SCS Same-Spin Energy      =      -0.0849038438164981 [Eh]
	 SCS Opposite-Spin Energy  =      -0.9502667571969661 [Eh]
	 SCS Correlation Energy    =      -1.0351706010134643 [Eh]
	 SCS Total Energy          =    -266.7890868804884690 [Eh]
	-----------------------------------------------------------

  Dipole Moment: [D]
     X:    -0.5937      Y:    -1.3451      Z:     0.1795     Total:     1.4812

*** Psi4 exiting successfully. Buy a developer a beer!
