                               Psi4 1.3.2 release

  ==> Input File <==

--------------------------------------------------------------------------
#psi4
#
memory 32 gb

molecule  {
0 1
  O        1.5280220    -0.7684950     0.0001570
  O        0.6145710     1.3078690     0.0000680
  C       -0.8109821    -0.6383181     0.2498860
  C        0.4754770     0.0955910    -0.0004470
  C       -1.9669030     0.0367350     0.0001300
  H       -0.7664070    -1.7224440    -0.0001000
  H       -2.9239270    -0.4730490     0.0003210
  H       -1.9656330     1.1220070     0.0001100
  H        2.3294960    -0.2055650     0.0004620
units angstrom
no_reorient  #important for SAPT in psi4, default
symmetry c1  #important for SAPT in psi4, default
}

set PROPERTIES_ORIGIN ["COM"]
properties('MP2/aug-cc-pvtz', properties = ['dipole'])
--------------------------------------------------------------------------

    Molecular point group: c1
  Charge       = 0
  Multiplicity = 1
  Basis Set: AUG-CC-PVTZ
    Blend: AUG-CC-PVTZ
  Basis Set: (AUG-CC-PVTZ AUX)
    Blend: AUG-CC-PVTZ-JKFIT

    Orbital Energies [Eh]
    ---------------------

    Doubly Occupied:

       1A    -20.617371     2A    -20.549465     3A    -11.395664
       4A    -11.277468     5A    -11.263745     6A     -1.459484
       7A     -1.356140     8A     -1.077205     9A     -0.901908
      10A     -0.771408    11A     -0.710062    12A     -0.696307
      13A     -0.630684    14A     -0.621498    15A     -0.591127
      16A     -0.547793    17A     -0.489951    18A     -0.456186
      19A     -0.398573

  @DF-RHF Final Energy:  -265.74067101495069

   => Energetics <=

    Nuclear Repulsion Energy =            161.1113209463167095
    One-Electron Energy =                -682.0799099037237738
    Two-Electron Energy =                 255.2279179424563438
    Total Energy =                       -265.7406710149507489
  Basis Set: (AUG-CC-PVTZ AUX)
    Blend: AUG-CC-PVTZ-RI
    Molecular point group: c1

    Geometry (in Angstrom), charge = 0, multiplicity = 1:

       Center              X                  Y                   Z               Mass
    ------------   -----------------  -----------------  -----------------  -----------------
         O            1.482352150255    -0.786077010638    -0.041486696612    15.994914619570
         O            0.568901150255     1.290286989362    -0.041575696612    15.994914619570
         C           -0.856651949745    -0.655900110638     0.208242303388    12.000000000000
         C            0.429807150255     0.078008989362    -0.042090696612    12.000000000000
         C           -2.012572849745     0.019152989362    -0.041513696612    12.000000000000
         H           -0.812076849745    -1.740026010638    -0.041743696612     1.007825032230
         H           -2.969596849745    -0.490631010638    -0.041322696612     1.007825032230
         H           -2.011302849745     1.104424989362    -0.041533696612     1.007825032230
         H            2.283826150255    -0.223147010638    -0.041181696612     1.007825032230

  Basis Set: AUG-CC-PVTZ
    Blend: AUG-CC-PVTZ
  Basis Set: (AUG-CC-PVTZ AUX)
    Blend: AUG-CC-PVTZ-JKFIT
	 Reference Energy          =    -265.7406710149506921 [Eh]
	 Singles Energy            =      -0.0000000000000000 [Eh]
	 Same-Spin Energy          =      -0.2552855455363944 [Eh]
	 Opposite-Spin Energy      =      -0.7937426753283280 [Eh]
	 Correlation Energy        =      -1.0490282208647224 [Eh]
	 Total Energy              =    -266.7896992358154193 [Eh]

	 ================> DF-SCS-MP2 Energies <==================
	-----------------------------------------------------------
	 SCS Same-Spin Scale       =       0.3333333333333333 [-]
	 SCS Opposite-Spin Scale   =       1.2000000000000000 [-]
	 SCS Same-Spin Energy      =      -0.0850951818454648 [Eh]
	 SCS Opposite-Spin Energy  =      -0.9524912103939935 [Eh]
	 SCS Correlation Energy    =      -1.0375863922394584 [Eh]
	 SCS Total Energy          =    -266.7782574071901536 [Eh]
	-----------------------------------------------------------

  Dipole Moment: [D]
     X:    -0.6395      Y:    -1.3054      Z:    -0.1848     Total:     1.4653

*** Psi4 exiting successfully. Buy a developer a beer!
