                               Psi4 1.3.2 release

  ==> Input File <==

--------------------------------------------------------------------------
#psi4
#
memory 32 gb

molecule  {
0 1
  O        1.5280220    -0.7684950     0.0001570
  O        0.6145710     1.3078690     0.0000680
  C       -0.8109530    -0.6383160    -0.0001140
  C        0.4754770     0.0955910    -0.0004470
  C       -1.9669030     0.0367350     0.0001300
  H       -0.7663952    -1.7224425     0.0499000
  H       -2.9239270    -0.4730490     0.0003210
  H       -1.9656330     1.1220070     0.0001100
  H        2.3294960    -0.2055650     0.0004620
units angstrom
no_reorient  #important for SAPT in psi4, default
symmetry c1  #important for SAPT in psi4, default
}

set PROPERTIES_ORIGIN ["COM"]
properties('MP2/aug-cc-pvtz', properties = ['dipole'])
--------------------------------------------------------------------------

    Molecular point group: c1
  Charge       = 0
  Multiplicity = 1
  Basis Set: AUG-CC-PVTZ
    Blend: AUG-CC-PVTZ
  Basis Set: (AUG-CC-PVTZ AUX)
    Blend: AUG-CC-PVTZ-JKFIT

    Orbital Energies [Eh]
    ---------------------

    Doubly Occupied:

       1A    -20.618316     2A    -20.550016     3A    -11.394761
       4A    -11.268607     5A    -11.258139     6A     -1.460604
       7A     -1.356877     8A     -1.082686     9A     -0.906571
      10A     -0.771722    11A     -0.715189    12A     -0.699410
      13A     -0.630768    14A     -0.623414    15A     -0.599665
      16A     -0.551327    17A     -0.490748    18A     -0.459477
      19A     -0.400430

  @DF-RHF Final Energy:  -265.75788017074916

   => Energetics <=

    Nuclear Repulsion Energy =            161.7440241409211126
    One-Electron Energy =                -683.3263551650757108
    Two-Electron Energy =                 255.8244508534054944
    Total Energy =                       -265.7578801707491607
  Basis Set: (AUG-CC-PVTZ AUX)
    Blend: AUG-CC-PVTZ-RI
    Molecular point group: c1

    Geometry (in Angstrom), charge = 0, multiplicity = 1:

       Center              X                  Y                   Z               Mass
    ------------   -----------------  -----------------  -----------------  -----------------
         O            1.482347136555    -0.786077381526    -0.000531927167    15.994914619570
         O            0.568896136555     1.290286618474    -0.000620927167    15.994914619570
         C           -0.856627863445    -0.655898381526    -0.000802927167    12.000000000000
         C            0.429802136555     0.078008618474    -0.001135927167    12.000000000000
         C           -2.012577863445     0.019152618474    -0.000558927167    12.000000000000
         H           -0.812070063445    -1.740024881526     0.049211072833     1.007825032230
         H           -2.969601863445    -0.490631381526    -0.000367927167     1.007825032230
         H           -2.011307863445     1.104424618474    -0.000578927167     1.007825032230
         H            2.283821136555    -0.223147381526    -0.000226927167     1.007825032230

  Basis Set: AUG-CC-PVTZ
    Blend: AUG-CC-PVTZ
  Basis Set: (AUG-CC-PVTZ AUX)
    Blend: AUG-CC-PVTZ-JKFIT
	 Reference Energy          =    -265.7578801707491607 [Eh]
	 Singles Energy            =      -0.0000000000000000 [Eh]
	 Same-Spin Energy          =      -0.2545685742216691 [Eh]
	 Opposite-Spin Energy      =      -0.7915093980727954 [Eh]
	 Correlation Energy        =      -1.0460779722944644 [Eh]
	 Total Energy              =    -266.8039581430436442 [Eh]

	 ================> DF-SCS-MP2 Energies <==================
	-----------------------------------------------------------
	 SCS Same-Spin Scale       =       0.3333333333333333 [-]
	 SCS Opposite-Spin Scale   =       1.2000000000000000 [-]
	 SCS Same-Spin Energy      =      -0.0848561914072230 [Eh]
	 SCS Opposite-Spin Energy  =      -0.9498112776873544 [Eh]
	 SCS Correlation Energy    =      -1.0346674690945774 [Eh]
	 SCS Total Energy          =    -266.7925476398437468 [Eh]
	-----------------------------------------------------------

  Dipole Moment: [D]
     X:    -0.5905      Y:    -1.3761      Z:     0.0362     Total:     1.4979

*** Psi4 exiting successfully. Buy a developer a beer!
