                               Psi4 1.3.2 release

  ==> Input File <==

--------------------------------------------------------------------------
#psi4
#
memory 32 gb

molecule  {
0 1
  O        1.5280220    -0.7684950     0.0001570
  O        0.6145710     1.3078690     0.0000680
  C       -0.8109879    -0.6383185     0.2998860
  C        0.4754770     0.0955910    -0.0004470
  C       -1.9669030     0.0367350     0.0001300
  H       -0.7664070    -1.7224440    -0.0001000
  H       -2.9239270    -0.4730490     0.0003210
  H       -1.9656330     1.1220070     0.0001100
  H        2.3294960    -0.2055650     0.0004620
units angstrom
no_reorient  #important for SAPT in psi4, default
symmetry c1  #important for SAPT in psi4, default
}

set PROPERTIES_ORIGIN ["COM"]
properties('MP2/aug-cc-pvtz', properties = ['dipole'])
--------------------------------------------------------------------------

    Molecular point group: c1
  Charge       = 0
  Multiplicity = 1
  Basis Set: AUG-CC-PVTZ
    Blend: AUG-CC-PVTZ
  Basis Set: (AUG-CC-PVTZ AUX)
    Blend: AUG-CC-PVTZ-JKFIT

    Orbital Energies [Eh]
    ---------------------

    Doubly Occupied:

       1A    -20.616992     2A    -20.549285     3A    -11.396027
       4A    -11.281270     5A    -11.266143     6A     -1.459030
       7A     -1.355856     8A     -1.074790     9A     -0.900059
      10A     -0.771309    11A     -0.708399    12A     -0.694716
      13A     -0.630585    14A     -0.621093    15A     -0.587227
      16A     -0.546046    17A     -0.489645    18A     -0.454701
      19A     -0.397889

  @DF-RHF Final Energy:  -265.73281939310431

   => Energetics <=

    Nuclear Repulsion Energy =            160.8396471265114371
    One-Electron Energy =                -681.5428078390000337
    Two-Electron Energy =                 254.9703413193843176
    Total Energy =                       -265.7328193931043074
  Basis Set: (AUG-CC-PVTZ AUX)
    Blend: AUG-CC-PVTZ-RI
    Molecular point group: c1

    Geometry (in Angstrom), charge = 0, multiplicity = 1:

       Center              X                  Y                   Z               Mass
    ------------   -----------------  -----------------  -----------------  -----------------
         O            1.482353116638    -0.786076943991    -0.049817585134    15.994914619570
         O            0.568902116638     1.290287056009    -0.049906585134    15.994914619570
         C           -0.856656783362    -0.655900443991     0.249911414866    12.000000000000
         C            0.429808116638     0.078009056009    -0.050421585134    12.000000000000
         C           -2.012571883362     0.019153056009    -0.049844585134    12.000000000000
         H           -0.812075883362    -1.740025943991    -0.050074585134     1.007825032230
         H           -2.969595883362    -0.490630943991    -0.049653585134     1.007825032230
         H           -2.011301883362     1.104425056009    -0.049864585134     1.007825032230
         H            2.283827116638    -0.223146943991    -0.049512585134     1.007825032230

  Basis Set: AUG-CC-PVTZ
    Blend: AUG-CC-PVTZ
  Basis Set: (AUG-CC-PVTZ AUX)
    Blend: AUG-CC-PVTZ-JKFIT
	 Reference Energy          =    -265.7328193931043074 [Eh]
	 Singles Energy            =      -0.0000000000000000 [Eh]
	 Same-Spin Energy          =      -0.2555974960764337 [Eh]
	 Opposite-Spin Energy      =      -0.7947647735184478 [Eh]
	 Correlation Energy        =      -1.0503622695948813 [Eh]
	 Total Energy              =    -266.7831816626991781 [Eh]

	 ================> DF-SCS-MP2 Energies <==================
	-----------------------------------------------------------
	 SCS Same-Spin Scale       =       0.3333333333333333 [-]
	 SCS Opposite-Spin Scale   =       1.2000000000000000 [-]
	 SCS Same-Spin Energy      =      -0.0851991653588112 [Eh]
	 SCS Opposite-Spin Energy  =      -0.9537177282221373 [Eh]
	 SCS Correlation Energy    =      -1.0389168935809485 [Eh]
	 SCS Total Energy          =    -266.7717362866852682 [Eh]
	-----------------------------------------------------------

  Dipole Moment: [D]
     X:    -0.6576      Y:    -1.2749      Z:    -0.2233     Total:     1.4518

*** Psi4 exiting successfully. Buy a developer a beer!
