                               Psi4 1.3.2 release

  ==> Input File <==

--------------------------------------------------------------------------
#psi4
#
memory 32 gb

molecule  {
0 1
  O        1.5280220    -0.7684950     0.0001570
  O        0.6145710     1.3078690     0.0000680
  C       -0.8109588    -0.6383164     0.0498860
  C        0.4754770     0.0955910    -0.0004470
  C       -1.9669030     0.0367350     0.0001300
  H       -0.7664070    -1.7224440    -0.0001000
  H       -2.9239270    -0.4730490     0.0003210
  H       -1.9656330     1.1220070     0.0001100
  H        2.3294960    -0.2055650     0.0004620
units angstrom
no_reorient  #important for SAPT in psi4, default
symmetry c1  #important for SAPT in psi4, default
}

set PROPERTIES_ORIGIN ["COM"]
properties('MP2/aug-cc-pvtz', properties = ['dipole'])
--------------------------------------------------------------------------

    Molecular point group: c1
  Charge       = 0
  Multiplicity = 1
  Basis Set: AUG-CC-PVTZ
    Blend: AUG-CC-PVTZ
  Basis Set: (AUG-CC-PVTZ AUX)
    Blend: AUG-CC-PVTZ-JKFIT

    Orbital Energies [Eh]
    ---------------------

    Doubly Occupied:

       1A    -20.618280     2A    -20.549984     3A    -11.394799
       4A    -11.268930     5A    -11.258267     6A     -1.460558
       7A     -1.356843     8A     -1.082489     9A     -0.906375
      10A     -0.771775    11A     -0.715051    12A     -0.699331
      13A     -0.630741    14A     -0.623351    15A     -0.599381
      16A     -0.551263    17A     -0.490716    18A     -0.459341
      19A     -0.400392

  @DF-RHF Final Energy:  -265.75734896367987

   => Energetics <=

    Nuclear Repulsion Energy =            161.7224477900075215
    One-Electron Energy =                -683.2838566946063565
    Two-Electron Energy =                 255.8040599409189042
    Total Energy =                       -265.7573489636798740
  Basis Set: (AUG-CC-PVTZ AUX)
    Blend: AUG-CC-PVTZ-RI
    Molecular point group: c1

    Geometry (in Angstrom), charge = 0, multiplicity = 1:

       Center              X                  Y                   Z               Mass
    ------------   -----------------  -----------------  -----------------  -----------------
         O            1.482348268061    -0.786077293888    -0.008163142523    15.994914619570
         O            0.568897268061     1.290286706112    -0.008252142523    15.994914619570
         C           -0.856632531939    -0.655898693888     0.041565857477    12.000000000000
         C            0.429803268061     0.078008706112    -0.008767142523    12.000000000000
         C           -2.012576731939     0.019152706112    -0.008190142523    12.000000000000
         H           -0.812080731939    -1.740026293888    -0.008420142523     1.007825032230
         H           -2.969600731939    -0.490631293888    -0.007999142523     1.007825032230
         H           -2.011306731939     1.104424706112    -0.008210142523     1.007825032230
         H            2.283822268061    -0.223147293888    -0.007858142523     1.007825032230

  Basis Set: AUG-CC-PVTZ
    Blend: AUG-CC-PVTZ
  Basis Set: (AUG-CC-PVTZ AUX)
    Blend: AUG-CC-PVTZ-JKFIT
	 Reference Energy          =    -265.7573489636798740 [Eh]
	 Singles Energy            =      -0.0000000000000000 [Eh]
	 Same-Spin Energy          =      -0.2545926176124702 [Eh]
	 Opposite-Spin Energy      =      -0.7915683587163922 [Eh]
	 Correlation Energy        =      -1.0461609763288624 [Eh]
	 Total Energy              =    -266.8035099400087233 [Eh]

	 ================> DF-SCS-MP2 Energies <==================
	-----------------------------------------------------------
	 SCS Same-Spin Scale       =       0.3333333333333333 [-]
	 SCS Opposite-Spin Scale   =       1.2000000000000000 [-]
	 SCS Same-Spin Energy      =      -0.0848642058708234 [Eh]
	 SCS Opposite-Spin Energy  =      -0.9498820304596706 [Eh]
	 SCS Correlation Energy    =      -1.0347462363304940 [Eh]
	 SCS Total Energy          =    -266.7920952000103512 [Eh]
	-----------------------------------------------------------

  Dipole Moment: [D]
     X:    -0.5925      Y:    -1.3744      Z:    -0.0361     Total:     1.4971

*** Psi4 exiting successfully. Buy a developer a beer!
