                               Psi4 1.3.2 release

  ==> Input File <==

--------------------------------------------------------------------------
#psi4
#
memory 32 gb

molecule  {
0 1
  O        1.5280220    -0.7684950     0.0001570
  O        0.6145710     1.3078690     0.0000680
  C       -0.8109530    -0.6383160    -0.0001140
  C        0.4754770     0.0955910    -0.0004470
  C       -1.9669030     0.0367350     0.0001300
  H       -0.7663834    -1.7224410     0.0999000
  H       -2.9239270    -0.4730490     0.0003210
  H       -1.9656330     1.1220070     0.0001100
  H        2.3294960    -0.2055650     0.0004620
units angstrom
no_reorient  #important for SAPT in psi4, default
symmetry c1  #important for SAPT in psi4, default
}

set PROPERTIES_ORIGIN ["COM"]
properties('MP2/aug-cc-pvtz', properties = ['dipole'])
--------------------------------------------------------------------------

    Molecular point group: c1
  Charge       = 0
  Multiplicity = 1
  Basis Set: AUG-CC-PVTZ
    Blend: AUG-CC-PVTZ
  Basis Set: (AUG-CC-PVTZ AUX)
    Blend: AUG-CC-PVTZ-JKFIT

    Orbital Energies [Eh]
    ---------------------

    Doubly Occupied:

       1A    -20.618297     2A    -20.550036     3A    -11.394763
       4A    -11.268710     5A    -11.258447     6A     -1.460594
       7A     -1.356881     8A     -1.082613     9A     -0.906547
      10A     -0.771494    11A     -0.714848    12A     -0.699306
      13A     -0.630861    14A     -0.623252    15A     -0.599521
      16A     -0.551100    17A     -0.490737    18A     -0.459485
      19A     -0.400291

  @DF-RHF Final Energy:  -265.75742014455392

   => Energetics <=

    Nuclear Repulsion Energy =            161.7307439973376688
    One-Electron Energy =                -683.3007603753908370
    Two-Electron Energy =                 255.8125962334993062
    Total Energy =                       -265.7574201445538620
  Basis Set: (AUG-CC-PVTZ AUX)
    Blend: AUG-CC-PVTZ-RI
    Molecular point group: c1

    Geometry (in Angstrom), charge = 0, multiplicity = 1:

       Center              X                  Y                   Z               Mass
    ------------   -----------------  -----------------  -----------------  -----------------
         O            1.482346971432    -0.786077402516    -0.001231600334    15.994914619570
         O            0.568895971432     1.290286597484    -0.001320600334    15.994914619570
         C           -0.856628028568    -0.655898402516    -0.001502600334    12.000000000000
         C            0.429801971432     0.078008597484    -0.001835600334    12.000000000000
         C           -2.012578028568     0.019152597484    -0.001258600334    12.000000000000
         H           -0.812058428568    -1.740023402516     0.098511399666     1.007825032230
         H           -2.969602028568    -0.490631402516    -0.001067600334     1.007825032230
         H           -2.011308028568     1.104424597484    -0.001278600334     1.007825032230
         H            2.283820971432    -0.223147402516    -0.000926600334     1.007825032230

  Basis Set: AUG-CC-PVTZ
    Blend: AUG-CC-PVTZ
  Basis Set: (AUG-CC-PVTZ AUX)
    Blend: AUG-CC-PVTZ-JKFIT
	 Reference Energy          =    -265.7574201445539188 [Eh]
	 Singles Energy            =      -0.0000000000000000 [Eh]
	 Same-Spin Energy          =      -0.2545867909364050 [Eh]
	 Opposite-Spin Energy      =      -0.7915523379623646 [Eh]
	 Correlation Energy        =      -1.0461391288987696 [Eh]
	 Total Energy              =    -266.8035592734526631 [Eh]

	 ================> DF-SCS-MP2 Energies <==================
	-----------------------------------------------------------
	 SCS Same-Spin Scale       =       0.3333333333333333 [-]
	 SCS Opposite-Spin Scale   =       1.2000000000000000 [-]
	 SCS Same-Spin Energy      =      -0.0848622636454683 [Eh]
	 SCS Opposite-Spin Energy  =      -0.9498628055548375 [Eh]
	 SCS Correlation Energy    =      -1.0347250692003058 [Eh]
	 SCS Total Energy          =    -266.7921452137542246 [Eh]
	-----------------------------------------------------------

  Dipole Moment: [D]
     X:    -0.5909      Y:    -1.3722      Z:     0.0725     Total:     1.4957

*** Psi4 exiting successfully. Buy a developer a beer!
