                               Psi4 1.3.2 release

  ==> Input File <==

--------------------------------------------------------------------------
#psi4
#
memory 32 gb

molecule  {
0 1
  O        1.5280220    -0.7684950     0.0001570
  O        0.6145710     1.3078690     0.0000680
  C       -0.8109530    -0.6383160    -0.0001140
  C        0.4754770     0.0955910    -0.0004470
  C       -1.9669030     0.0367350     0.0001300
  H       -0.7663363    -1.7224350     0.2999000
  H       -2.9239270    -0.4730490     0.0003210
  H       -1.9656330     1.1220070     0.0001100
  H        2.3294960    -0.2055650     0.0004620
units angstrom
no_reorient  #important for SAPT in psi4, default
symmetry c1  #important for SAPT in psi4, default
}

set PROPERTIES_ORIGIN ["COM"]
properties('MP2/aug-cc-pvtz', properties = ['dipole'])
--------------------------------------------------------------------------

    Molecular point group: c1
  Charge       = 0
  Multiplicity = 1
  Basis Set: AUG-CC-PVTZ
    Blend: AUG-CC-PVTZ
  Basis Set: (AUG-CC-PVTZ AUX)
    Blend: AUG-CC-PVTZ-JKFIT

    Orbital Energies [Eh]
    ---------------------

    Doubly Occupied:

       1A    -20.618112     2A    -20.550255     3A    -11.394808
       4A    -11.269818     5A    -11.261654     6A     -1.460505
       7A     -1.356935     8A     -1.081924     9A     -0.906341
      10A     -0.769458    11A     -0.711679    12A     -0.698016
      13A     -0.631585    14A     -0.621935    15A     -0.598021
      16A     -0.548481    17A     -0.490633    18A     -0.459556
      19A     -0.398902

  @DF-RHF Final Energy:  -265.75190877599277

   => Energetics <=

    Nuclear Repulsion Energy =            161.5946521115959627
    One-Electron Energy =                -683.0358873274612961
    Two-Electron Energy =                 255.6893264398725876
    Total Energy =                       -265.7519087759927743
  Basis Set: (AUG-CC-PVTZ AUX)
    Blend: AUG-CC-PVTZ-RI
    Molecular point group: c1

    Geometry (in Angstrom), charge = 0, multiplicity = 1:

       Center              X                  Y                   Z               Mass
    ------------   -----------------  -----------------  -----------------  -----------------
         O            1.482346312340    -0.786077486477    -0.004030292998    15.994914619570
         O            0.568895312340     1.290286513523    -0.004119292998    15.994914619570
         C           -0.856628687660    -0.655898486477    -0.004301292998    12.000000000000
         C            0.429801312340     0.078008513523    -0.004634292998    12.000000000000
         C           -2.012578687660     0.019152513523    -0.004057292998    12.000000000000
         H           -0.812011987660    -1.740017486477     0.295712707002     1.007825032230
         H           -2.969602687660    -0.490631486477    -0.003866292998     1.007825032230
         H           -2.011308687660     1.104424513523    -0.004077292998     1.007825032230
         H            2.283820312340    -0.223147486477    -0.003725292998     1.007825032230

  Basis Set: AUG-CC-PVTZ
    Blend: AUG-CC-PVTZ
  Basis Set: (AUG-CC-PVTZ AUX)
    Blend: AUG-CC-PVTZ-JKFIT
	 Reference Energy          =    -265.7519087759927743 [Eh]
	 Singles Energy            =      -0.0000000000000000 [Eh]
	 Same-Spin Energy          =      -0.2547752781576674 [Eh]
	 Opposite-Spin Energy      =      -0.7920790955404898 [Eh]
	 Correlation Energy        =      -1.0468543736981573 [Eh]
	 Total Energy              =    -266.7987631496909557 [Eh]

	 ================> DF-SCS-MP2 Energies <==================
	-----------------------------------------------------------
	 SCS Same-Spin Scale       =       0.3333333333333333 [-]
	 SCS Opposite-Spin Scale   =       1.2000000000000000 [-]
	 SCS Same-Spin Energy      =      -0.0849250927192225 [Eh]
	 SCS Opposite-Spin Energy  =      -0.9504949146485877 [Eh]
	 SCS Correlation Energy    =      -1.0354200073678101 [Eh]
	 SCS Total Energy          =    -266.7873287833605787 [Eh]
	-----------------------------------------------------------

  Dipole Moment: [D]
     X:    -0.5950      Y:    -1.3312      Z:     0.2142     Total:     1.4738

*** Psi4 exiting successfully. Buy a developer a beer!
