                               Psi4 1.4a2.dev612

  ==> Input File <==

--------------------------------------------------------------------------
#psi4
#
memory 32 gb

molecule  {
0 1
  O       -1.9756670     1.6664010     0.1857370
  O        1.6511300    -1.1930600    -0.6768240
  O       -3.2820610    -0.0444860    -0.5140140
  N        0.2152580     0.2772540     0.2951010
  C       -0.9464590    -0.4858680    -0.1100250
  C       -1.2010820    -1.6869190     0.8036840
  C        2.5941300     0.7851170     0.3678910
  C        1.4652130    -0.1360080    -0.0663740
  C       -2.1892550     0.3702600    -0.1810000
  C        3.9493650     0.2879730    -0.1118860
  H       -0.7666830    -0.8628490    -1.1247510
  H        0.0824233     1.1501849     0.7866139
  H       -1.3680630    -1.3508140     1.8303240
  H       -2.0758160    -2.2433210     0.4601180
  H       -0.3237180    -2.3338760     0.7750620
  H        2.3897550     1.7945520    -0.0146150
  H        2.5759940     0.8629050     1.4619760
  H        4.1547340    -0.7097650     0.2816620
  H        3.9712690     0.2233490    -1.2012200
  H        4.7420490     0.9661550     0.2171920
  H       -2.8492950     2.1039740     0.1058080
units angstrom
no_reorient  #important for SAPT in psi4, default
symmetry c1  #important for SAPT in psi4, default
}

set PROPERTIES_ORIGIN ["COM"]
properties('MP2/aug-cc-pvtz', properties = ['dipole'])
--------------------------------------------------------------------------

    Molecular point group: c1
  Charge       = 0
  Multiplicity = 1
  Basis Set: AUG-CC-PVTZ
    Blend: AUG-CC-PVTZ
  Basis Set: (AUG-CC-PVTZ AUX)
    Blend: AUG-CC-PVTZ-JKFIT

    Orbital Energies [Eh]
    ---------------------

    Doubly Occupied:

       1A    -20.635034     2A    -20.563335     3A    -20.524365
       4A    -15.592551     5A    -11.404157     6A    -11.356294
       7A    -11.296596     8A    -11.247548     9A    -11.227050
      10A    -11.219501    11A     -1.477577    12A     -1.380553
      13A     -1.372898    14A     -1.245445    15A     -1.074939
      16A     -1.035700    17A     -0.927517    18A     -0.885439
      19A     -0.817044    20A     -0.792886    21A     -0.730276
      22A     -0.714447    23A     -0.682515    24A     -0.664194
      25A     -0.641355    26A     -0.633256    27A     -0.609800
      28A     -0.601381    29A     -0.583578    30A     -0.546435
      31A     -0.543607    32A     -0.524334    33A     -0.520809
      34A     -0.519073    35A     -0.497053    36A     -0.488048
      37A     -0.467805    38A     -0.428820    39A     -0.399699

  @DF-RHF Final Energy:  -512.88599756138456

   => Energetics <=

    Nuclear Repulsion Energy =            548.1654619155680166
    One-Electron Energy =               -1788.3570870889545859
    Two-Electron Energy =                 727.3056276120018993
    Total Energy =                       -512.8859975613845563
  Basis Set: (AUG-CC-PVTZ AUX)
    Blend: AUG-CC-PVTZ-RI
    Molecular point group: c1

    Geometry (in Angstrom), charge = 0, multiplicity = 1:

       Center              X                  Y                   Z               Mass
    ------------   -----------------  -----------------  -----------------  -----------------
         O           -1.975701866695     1.666718519921     0.185120309736    15.994914619570
         O            1.651095133305    -1.192742480079    -0.677440690264    15.994914619570
         O           -3.282095866695    -0.044168480079    -0.514630690264    15.994914619570
         N            0.215223133305     0.277571519921     0.294484309736    14.003074004430
         C           -0.946493866695    -0.485550480079    -0.110641690264    12.000000000000
         C           -1.201116866695    -1.686601480079     0.803067309736    12.000000000000
         C            2.594095133305     0.785434519921     0.367274309736    12.000000000000
         C            1.465178133305    -0.135690480079    -0.066990690264    12.000000000000
         C           -2.189289866695     0.370577519921    -0.181616690264    12.000000000000
         C            3.949330133305     0.288290519921    -0.112502690264    12.000000000000
         H           -0.766717866695    -0.862531480079    -1.125367690264     1.007825032230
         H            0.082388433305     1.150502419921     0.785997209736     1.007825032230
         H           -1.368097866695    -1.350496480079     1.829707309736     1.007825032230
         H           -2.075850866695    -2.243003480079     0.459501309736     1.007825032230
         H           -0.323752866695    -2.333558480079     0.774445309736     1.007825032230
         H            2.389720133305     1.794869519921    -0.015231690264     1.007825032230
         H            2.575959133305     0.863222519921     1.461359309736     1.007825032230
         H            4.154699133305    -0.709447480079     0.281045309736     1.007825032230
         H            3.971234133305     0.223666519921    -1.201836690264     1.007825032230
         H            4.742014133305     0.966472519921     0.216575309736     1.007825032230
         H           -2.849329866695     2.104291519921     0.105191309736     1.007825032230

  Basis Set: AUG-CC-PVTZ
    Blend: AUG-CC-PVTZ
  Basis Set: (AUG-CC-PVTZ AUX)
    Blend: AUG-CC-PVTZ-JKFIT
	 Reference Energy          =    -512.8859975613845563 [Eh]
	 Singles Energy            =      -0.0000000000000000 [Eh]
	 Same-Spin Energy          =      -0.5113232332132369 [Eh]
	 Opposite-Spin Energy      =      -1.6148691570463458 [Eh]
	 Correlation Energy        =      -2.1261923902595825 [Eh]
	 Total Energy              =    -515.0121899516441317 [Eh]

	 ================> DF-SCS-MP2 Energies <==================
	-----------------------------------------------------------
	 SCS Same-Spin Scale       =       0.3333333333333333 [-]
	 SCS Opposite-Spin Scale   =       1.2000000000000000 [-]
	 SCS Same-Spin Energy      =      -0.1704410777377456 [Eh]
	 SCS Opposite-Spin Energy  =      -1.9378429884556150 [Eh]
	 SCS Correlation Energy    =      -2.1082840661933604 [Eh]
	 SCS Total Energy          =    -514.9942816275779478 [Eh]
	-----------------------------------------------------------

  Dipole Moment: [D]
     X:    -0.0276      Y:     3.2615      Z:     2.0709     Total:     3.8635

*** Psi4 exiting successfully. Buy a developer a beer!
