                               Psi4 1.4a2.dev612

  ==> Input File <==

--------------------------------------------------------------------------
#psi4
#
memory 32 gb

molecule  {
0 1
  O       -1.9756670     1.6664010     0.1857370
  O        1.6511300    -1.1930600    -0.6768240
  O       -3.2820610    -0.0444860    -0.5140140
  N        0.2152580     0.2772540     0.2951010
  C       -0.9464590    -0.4858680    -0.1100250
  C       -1.2010820    -1.6869190     0.8036840
  C        2.5743430     0.9088098     0.1515381
  C        1.4652130    -0.1360080    -0.0663740
  C       -2.1892550     0.3702600    -0.1810000
  C        3.9493650     0.2879730    -0.1118860
  H       -0.7666830    -0.8628490    -1.1247510
  H        0.0773990     1.1958980     0.6978160
  H       -1.3680630    -1.3508140     1.8303240
  H       -2.0758160    -2.2433210     0.4601180
  H       -0.3237180    -2.3338760     0.7750620
  H        2.3897550     1.7945520    -0.0146150
  H        2.5759940     0.8629050     1.4619760
  H        4.1547340    -0.7097650     0.2816620
  H        3.9712690     0.2233490    -1.2012200
  H        4.7420490     0.9661550     0.2171920
  H       -2.8492950     2.1039740     0.1058080
units angstrom
no_reorient  #important for SAPT in psi4, default
symmetry c1  #important for SAPT in psi4, default
}

set PROPERTIES_ORIGIN ["COM"]
properties('MP2/aug-cc-pvtz', properties = ['dipole'])
--------------------------------------------------------------------------

    Molecular point group: c1
  Charge       = 0
  Multiplicity = 1
  Basis Set: AUG-CC-PVTZ
    Blend: AUG-CC-PVTZ
  Basis Set: (AUG-CC-PVTZ AUX)
    Blend: AUG-CC-PVTZ-JKFIT

    Orbital Energies [Eh]
    ---------------------

    Doubly Occupied:

       1A    -20.636130     2A    -20.564024     3A    -20.525974
       4A    -15.591980     5A    -11.405052     6A    -11.361402
       7A    -11.296623     8A    -11.255845     9A    -11.226418
      10A    -11.224437    11A     -1.478607    12A     -1.381689
      13A     -1.373735    14A     -1.245462    15A     -1.075789
      16A     -1.037165    17A     -0.927531    18A     -0.890156
      19A     -0.818129    20A     -0.799045    21A     -0.740319
      22A     -0.715024    23A     -0.693363    24A     -0.667631
      25A     -0.636060    26A     -0.628539    27A     -0.610975
      28A     -0.597415    29A     -0.580358    30A     -0.562878
      31A     -0.545013    32A     -0.542893    33A     -0.523728
      34A     -0.511998    35A     -0.492754    36A     -0.468635
      37A     -0.452018    38A     -0.424273    39A     -0.399349

  @DF-RHF Final Energy:  -512.82257405422115

   => Energetics <=

    Nuclear Repulsion Energy =            547.9387036676605476
    One-Electron Energy =               -1787.7057224945499456
    Two-Electron Energy =                 726.9444447726682483
    Total Energy =                       -512.8225740542211497
  Basis Set: (AUG-CC-PVTZ AUX)
    Blend: AUG-CC-PVTZ-RI
    Molecular point group: c1

    Geometry (in Angstrom), charge = 0, multiplicity = 1:

       Center              X                  Y                   Z               Mass
    ------------   -----------------  -----------------  -----------------  -----------------
         O           -1.974030252251     1.656169520562     0.203633134386    15.994914619570
         O            1.652766747749    -1.203291479438    -0.658927865614    15.994914619570
         O           -3.280424252251    -0.054717479438    -0.496117865614    15.994914619570
         N            0.216894747749     0.267022520562     0.312997134386    14.003074004430
         C           -0.944822252251    -0.496099479438    -0.092128865614    12.000000000000
         C           -1.199445252251    -1.697150479438     0.821580134386    12.000000000000
         C            2.575979747749     0.898578320562     0.169434234386    12.000000000000
         C            1.466849747749    -0.146239479438    -0.048477865614    12.000000000000
         C           -2.187618252251     0.360028520562    -0.163103865614    12.000000000000
         C            3.951001747749     0.277741520562    -0.093989865614    12.000000000000
         H           -0.765046252251    -0.873080479438    -1.106854865614     1.007825032230
         H            0.079035747749     1.185666520562     0.715712134386     1.007825032230
         H           -1.366426252251    -1.361045479438     1.848220134386     1.007825032230
         H           -2.074179252251    -2.253552479438     0.478014134386     1.007825032230
         H           -0.322081252251    -2.344107479438     0.792958134386     1.007825032230
         H            2.391391747749     1.784320520562     0.003281134386     1.007825032230
         H            2.577630747749     0.852673520562     1.479872134386     1.007825032230
         H            4.156370747749    -0.719996479438     0.299558134386     1.007825032230
         H            3.972905747749     0.213117520562    -1.183323865614     1.007825032230
         H            4.743685747749     0.955923520562     0.235088134386     1.007825032230
         H           -2.847658252251     2.093742520562     0.123704134386     1.007825032230

  Basis Set: AUG-CC-PVTZ
    Blend: AUG-CC-PVTZ
  Basis Set: (AUG-CC-PVTZ AUX)
    Blend: AUG-CC-PVTZ-JKFIT
	 Reference Energy          =    -512.8225740542211497 [Eh]
	 Singles Energy            =      -0.0000000000000000 [Eh]
	 Same-Spin Energy          =      -0.5122621428352968 [Eh]
	 Opposite-Spin Energy      =      -1.6180096554193444 [Eh]
	 Correlation Energy        =      -2.1302717982546411 [Eh]
	 Total Energy              =    -514.9528458524757752 [Eh]

	 ================> DF-SCS-MP2 Energies <==================
	-----------------------------------------------------------
	 SCS Same-Spin Scale       =       0.3333333333333333 [-]
	 SCS Opposite-Spin Scale   =       1.2000000000000000 [-]
	 SCS Same-Spin Energy      =      -0.1707540476117656 [Eh]
	 SCS Opposite-Spin Energy  =      -1.9416115865032131 [Eh]
	 SCS Correlation Energy    =      -2.1123656341149788 [Eh]
	 SCS Total Energy          =    -514.9349396883361578 [Eh]
	-----------------------------------------------------------

  Dipole Moment: [D]
     X:    -0.0116      Y:     3.3295      Z:     1.7921     Total:     3.7812

*** Psi4 exiting successfully. Buy a developer a beer!
