                               Psi4 1.4a2.dev612

  ==> Input File <==

--------------------------------------------------------------------------
#psi4
#
memory 32 gb

molecule  {
0 1
  O       -1.9756670     1.6664010     0.1857370
  O        1.6511300    -1.1930600    -0.6768240
  O       -3.2820610    -0.0444860    -0.5140140
  N        0.2152580     0.2772540     0.2951010
  C       -0.9880434    -0.5318824     0.0801155
  C       -1.2010820    -1.6869190     0.8036840
  C        2.5941300     0.7851170     0.3678910
  C        1.4652130    -0.1360080    -0.0663740
  C       -2.1892550     0.3702600    -0.1810000
  C        3.9493650     0.2879730    -0.1118860
  H       -0.7666830    -0.8628490    -1.1247510
  H        0.0773990     1.1958980     0.6978160
  H       -1.3680630    -1.3508140     1.8303240
  H       -2.0758160    -2.2433210     0.4601180
  H       -0.3237180    -2.3338760     0.7750620
  H        2.3897550     1.7945520    -0.0146150
  H        2.5759940     0.8629050     1.4619760
  H        4.1547340    -0.7097650     0.2816620
  H        3.9712690     0.2233490    -1.2012200
  H        4.7420490     0.9661550     0.2171920
  H       -2.8492950     2.1039740     0.1058080
units angstrom
no_reorient  #important for SAPT in psi4, default
symmetry c1  #important for SAPT in psi4, default
}

set PROPERTIES_ORIGIN ["COM"]
properties('MP2/aug-cc-pvtz', properties = ['dipole'])
--------------------------------------------------------------------------

    Molecular point group: c1
  Charge       = 0
  Multiplicity = 1
  Basis Set: AUG-CC-PVTZ
    Blend: AUG-CC-PVTZ
  Basis Set: (AUG-CC-PVTZ AUX)
    Blend: AUG-CC-PVTZ-JKFIT

    Orbital Energies [Eh]
    ---------------------

    Doubly Occupied:

       1A    -20.635789     2A    -20.563095     3A    -20.524542
       4A    -15.593498     5A    -11.407134     6A    -11.356746
       7A    -11.306710     8A    -11.247904     9A    -11.222152
      10A    -11.219534    11A     -1.478058    12A     -1.379483
      13A     -1.373172    14A     -1.243917    15A     -1.091109
      16A     -1.046785    17A     -0.935698    18A     -0.884848
      19A     -0.801914    20A     -0.790705    21A     -0.732044
      22A     -0.713920    23A     -0.685159    24A     -0.663873
      25A     -0.641562    26A     -0.632726    27A     -0.614779
      28A     -0.608467    29A     -0.594313    30A     -0.555546
      31A     -0.546205    32A     -0.525543    33A     -0.519523
      34A     -0.505851    35A     -0.497676    36A     -0.480418
      37A     -0.449132    38A     -0.428660    39A     -0.397493

  @DF-RHF Final Energy:  -512.84434545694216

   => Energetics <=

    Nuclear Repulsion Energy =            548.5699867128304277
    One-Electron Energy =               -1789.0373026156669312
    Two-Electron Energy =                 727.6229704458944525
    Total Energy =                       -512.8443454569421647
  Basis Set: (AUG-CC-PVTZ AUX)
    Blend: AUG-CC-PVTZ-RI
    Molecular point group: c1

    Geometry (in Angstrom), charge = 0, multiplicity = 1:

       Center              X                  Y                   Z               Mass
    ------------   -----------------  -----------------  -----------------  -----------------
         O           -1.972227248319     1.670207100687     0.170009436201    15.994914619570
         O            1.654569751681    -1.189253899313    -0.692551563799    15.994914619570
         O           -3.278621248319    -0.040679899313    -0.529741563799    15.994914619570
         N            0.218697751681     0.281060100687     0.279373436201    14.003074004430
         C           -0.984603648319    -0.528076299313     0.064387936201    12.000000000000
         C           -1.197642248319    -1.683112899313     0.787956436201    12.000000000000
         C            2.597569751681     0.788923100687     0.352163436201    12.000000000000
         C            1.468652751681    -0.132201899313    -0.082101563799    12.000000000000
         C           -2.185815248319     0.374066100687    -0.196727563799    12.000000000000
         C            3.952804751681     0.291779100687    -0.127613563799    12.000000000000
         H           -0.763243248319    -0.859042899313    -1.140478563799     1.007825032230
         H            0.080838751681     1.199704100687     0.682088436201     1.007825032230
         H           -1.364623248319    -1.347007899313     1.814596436201     1.007825032230
         H           -2.072376248319    -2.239514899313     0.444390436201     1.007825032230
         H           -0.320278248319    -2.330069899313     0.759334436201     1.007825032230
         H            2.393194751681     1.798358100687    -0.030342563799     1.007825032230
         H            2.579433751681     0.866711100687     1.446248436201     1.007825032230
         H            4.158173751681    -0.705958899313     0.265934436201     1.007825032230
         H            3.974708751681     0.227155100687    -1.216947563799     1.007825032230
         H            4.745488751681     0.969961100687     0.201464436201     1.007825032230
         H           -2.845855248319     2.107780100687     0.090080436201     1.007825032230

  Basis Set: AUG-CC-PVTZ
    Blend: AUG-CC-PVTZ
  Basis Set: (AUG-CC-PVTZ AUX)
    Blend: AUG-CC-PVTZ-JKFIT
	 Reference Energy          =    -512.8443454569421647 [Eh]
	 Singles Energy            =      -0.0000000000000000 [Eh]
	 Same-Spin Energy          =      -0.5137729701445838 [Eh]
	 Opposite-Spin Energy      =      -1.6188198931210520 [Eh]
	 Correlation Energy        =      -2.1325928632656357 [Eh]
	 Total Energy              =    -514.9769383202077506 [Eh]

	 ================> DF-SCS-MP2 Energies <==================
	-----------------------------------------------------------
	 SCS Same-Spin Scale       =       0.3333333333333333 [-]
	 SCS Opposite-Spin Scale   =       1.2000000000000000 [-]
	 SCS Same-Spin Energy      =      -0.1712576567148613 [Eh]
	 SCS Opposite-Spin Energy  =      -1.9425838717452624 [Eh]
	 SCS Correlation Energy    =      -2.1138415284601235 [Eh]
	 SCS Total Energy          =    -514.9581869854023353 [Eh]
	-----------------------------------------------------------

  Dipole Moment: [D]
     X:    -0.0734      Y:     3.1555      Z:     2.1965     Total:     3.8454

*** Psi4 exiting successfully. Buy a developer a beer!
