                               Psi4 1.4a2.dev612

  ==> Input File <==

--------------------------------------------------------------------------
#psi4
#
memory 32 gb

molecule  {
0 1
  O       -1.9756670     1.6664010     0.1857370
  O        1.6511300    -1.1930600    -0.6768240
  O       -3.2820610    -0.0444860    -0.5140140
  N        0.2152580     0.2772540     0.2951010
  C       -0.9464590    -0.4858680    -0.1100250
  C       -1.2010820    -1.6869190     0.8036840
  C        2.5862152     0.8345941     0.2813498
  C        1.4652130    -0.1360080    -0.0663740
  C       -2.1892550     0.3702600    -0.1810000
  C        3.9493650     0.2879730    -0.1118860
  H       -0.7666830    -0.8628490    -1.1247510
  H        0.0773990     1.1958980     0.6978160
  H       -1.3680630    -1.3508140     1.8303240
  H       -2.0758160    -2.2433210     0.4601180
  H       -0.3237180    -2.3338760     0.7750620
  H        2.3897550     1.7945520    -0.0146150
  H        2.5759940     0.8629050     1.4619760
  H        4.1547340    -0.7097650     0.2816620
  H        3.9712690     0.2233490    -1.2012200
  H        4.7420490     0.9661550     0.2171920
  H       -2.8492950     2.1039740     0.1058080
units angstrom
no_reorient  #important for SAPT in psi4, default
symmetry c1  #important for SAPT in psi4, default
}

set PROPERTIES_ORIGIN ["COM"]
properties('MP2/aug-cc-pvtz', properties = ['dipole'])
--------------------------------------------------------------------------

    Molecular point group: c1
  Charge       = 0
  Multiplicity = 1
  Basis Set: AUG-CC-PVTZ
    Blend: AUG-CC-PVTZ
  Basis Set: (AUG-CC-PVTZ AUX)
    Blend: AUG-CC-PVTZ-JKFIT

    Orbital Energies [Eh]
    ---------------------

    Doubly Occupied:

       1A    -20.636069     2A    -20.563893     3A    -20.524762
       4A    -15.592238     5A    -11.404884     6A    -11.357033
       7A    -11.296487     8A    -11.249089     9A    -11.226684
      10A    -11.220243    11A     -1.478526    12A     -1.380805
      13A     -1.373630    14A     -1.245340    15A     -1.075216
      16A     -1.036114    17A     -0.927675    18A     -0.886164
      19A     -0.816886    20A     -0.793393    21A     -0.732251
      22A     -0.714716    23A     -0.686386    24A     -0.665311
      25A     -0.639306    26A     -0.633744    27A     -0.610486
      28A     -0.599967    29A     -0.581602    30A     -0.549266
      31A     -0.544890    32A     -0.531169    33A     -0.522803
      34A     -0.516465    35A     -0.494324    36A     -0.479643
      37A     -0.467923    38A     -0.428229    39A     -0.400196

  @DF-RHF Final Energy:  -512.87581339327676

   => Energetics <=

    Nuclear Repulsion Energy =            548.1839055201960491
    One-Electron Energy =               -1788.3518173426275553
    Two-Electron Energy =                 727.2920984291547484
    Total Energy =                       -512.8758133932767578
  Basis Set: (AUG-CC-PVTZ AUX)
    Blend: AUG-CC-PVTZ-RI
    Molecular point group: c1

    Geometry (in Angstrom), charge = 0, multiplicity = 1:

       Center              X                  Y                   Z               Mass
    ------------   -----------------  -----------------  -----------------  -----------------
         O           -1.975012278699     1.662308381113     0.192895569098    15.994914619570
         O            1.651784721301    -1.197152618887    -0.669665430902    15.994914619570
         O           -3.281406278699    -0.048578618887    -0.506855430902    15.994914619570
         N            0.215912721301     0.273161381113     0.302259569098    14.003074004430
         C           -0.945804278699    -0.489960618887    -0.102866430902    12.000000000000
         C           -1.200427278699    -1.691011618887     0.810842569098    12.000000000000
         C            2.586869921301     0.830501481113     0.288508369098    12.000000000000
         C            1.465867721301    -0.140100618887    -0.059215430902    12.000000000000
         C           -2.188600278699     0.366167381113    -0.173841430902    12.000000000000
         C            3.950019721301     0.283880381113    -0.104727430902    12.000000000000
         H           -0.766028278699    -0.866941618887    -1.117592430902     1.007825032230
         H            0.078053721301     1.191805381113     0.704974569098     1.007825032230
         H           -1.367408278699    -1.354906618887     1.837482569098     1.007825032230
         H           -2.075161278699    -2.247413618887     0.467276569098     1.007825032230
         H           -0.323063278699    -2.337968618887     0.782220569098     1.007825032230
         H            2.390409721301     1.790459381113    -0.007456430902     1.007825032230
         H            2.576648721301     0.858812381113     1.469134569098     1.007825032230
         H            4.155388721301    -0.713857618887     0.288820569098     1.007825032230
         H            3.971923721301     0.219256381113    -1.194061430902     1.007825032230
         H            4.742703721301     0.962062381113     0.224350569098     1.007825032230
         H           -2.848640278699     2.099881381113     0.112966569098     1.007825032230

  Basis Set: AUG-CC-PVTZ
    Blend: AUG-CC-PVTZ
  Basis Set: (AUG-CC-PVTZ AUX)
    Blend: AUG-CC-PVTZ-JKFIT
	 Reference Energy          =    -512.8758133932767578 [Eh]
	 Singles Energy            =      -0.0000000000000000 [Eh]
	 Same-Spin Energy          =      -0.5115265611481363 [Eh]
	 Opposite-Spin Energy      =      -1.6154140570231625 [Eh]
	 Correlation Energy        =      -2.1269406181712989 [Eh]
	 Total Energy              =    -515.0027540114480189 [Eh]

	 ================> DF-SCS-MP2 Energies <==================
	-----------------------------------------------------------
	 SCS Same-Spin Scale       =       0.3333333333333333 [-]
	 SCS Opposite-Spin Scale   =       1.2000000000000000 [-]
	 SCS Same-Spin Energy      =      -0.1705088537160454 [Eh]
	 SCS Opposite-Spin Energy  =      -1.9384968684277950 [Eh]
	 SCS Correlation Energy    =      -2.1090057221438405 [Eh]
	 SCS Total Energy          =    -514.9848191154205779 [Eh]
	-----------------------------------------------------------

  Dipole Moment: [D]
     X:    -0.0379      Y:     3.3407      Z:     1.9037     Total:     3.8452

*** Psi4 exiting successfully. Buy a developer a beer!
