                               Psi4 1.4a2.dev612

  ==> Input File <==

--------------------------------------------------------------------------
#psi4
#
memory 32 gb

molecule  {
0 1
  O       -1.9756670     1.6664010     0.1857370
  O        1.6511300    -1.1930600    -0.6768240
  O       -3.2820610    -0.0444860    -0.5140140
  N        0.2152580     0.2772540     0.2951010
  C       -0.9464590    -0.4858680    -0.1100250
  C       -1.2010820    -1.6869190     0.8036840
  C        2.5941300     0.7851170     0.3678910
  C        1.4652130    -0.1360080    -0.0663740
  C       -2.1892550     0.3702600    -0.1810000
  C        3.9493650     0.2879730    -0.1118860
  H       -0.7666830    -0.8628490    -1.1247510
  H        0.0799112     1.1730414     0.7422149
  H       -1.3680630    -1.3508140     1.8303240
  H       -2.0758160    -2.2433210     0.4601180
  H       -0.3237180    -2.3338760     0.7750620
  H        2.3897550     1.7945520    -0.0146150
  H        2.5759940     0.8629050     1.4619760
  H        4.1547340    -0.7097650     0.2816620
  H        3.9712690     0.2233490    -1.2012200
  H        4.7420490     0.9661550     0.2171920
  H       -2.8492950     2.1039740     0.1058080
units angstrom
no_reorient  #important for SAPT in psi4, default
symmetry c1  #important for SAPT in psi4, default
}

set PROPERTIES_ORIGIN ["COM"]
properties('MP2/aug-cc-pvtz', properties = ['dipole'])
--------------------------------------------------------------------------

    Molecular point group: c1
  Charge       = 0
  Multiplicity = 1
  Basis Set: AUG-CC-PVTZ
    Blend: AUG-CC-PVTZ
  Basis Set: (AUG-CC-PVTZ AUX)
    Blend: AUG-CC-PVTZ-JKFIT

    Orbital Energies [Eh]
    ---------------------

    Doubly Occupied:

       1A    -20.635527     2A    -20.563577     3A    -20.524438
       4A    -15.592383     5A    -11.404476     6A    -11.356219
       7A    -11.296529     8A    -11.247557     9A    -11.226967
      10A    -11.219504    11A     -1.478024    12A     -1.380593
      13A     -1.373234    14A     -1.245507    15A     -1.074939
      16A     -1.035712    17A     -0.927654    18A     -0.885437
      19A     -0.816982    20A     -0.792804    21A     -0.730618
      22A     -0.714565    23A     -0.682714    24A     -0.664926
      25A     -0.641287    26A     -0.633344    27A     -0.610081
      28A     -0.602063    29A     -0.582269    30A     -0.546492
      31A     -0.543767    32A     -0.524236    33A     -0.520687
      34A     -0.519127    35A     -0.497305    36A     -0.488126
      37A     -0.467843    38A     -0.428786    39A     -0.399962

  @DF-RHF Final Energy:  -512.88605846373025

   => Energetics <=

    Nuclear Repulsion Energy =            548.1884382120205146
    One-Electron Energy =               -1788.3964775322019705
    Two-Electron Energy =                 727.3219808564510913
    Total Energy =                       -512.8860584637302509
  Basis Set: (AUG-CC-PVTZ AUX)
    Blend: AUG-CC-PVTZ-RI
    Molecular point group: c1

    Geometry (in Angstrom), charge = 0, multiplicity = 1:

       Center              X                  Y                   Z               Mass
    ------------   -----------------  -----------------  -----------------  -----------------
         O           -1.975684415193     1.666559736336     0.185428748578    15.994914619570
         O            1.651112584807    -1.192901263664    -0.677132251422    15.994914619570
         O           -3.282078415193    -0.044327263664    -0.514322251422    15.994914619570
         N            0.215240584807     0.277412736336     0.294792748578    14.003074004430
         C           -0.946476415193    -0.485709263664    -0.110333251422    12.000000000000
         C           -1.201099415193    -1.686760263664     0.803375748578    12.000000000000
         C            2.594112584807     0.785275736336     0.367582748578    12.000000000000
         C            1.465195584807    -0.135849263664    -0.066682251422    12.000000000000
         C           -2.189272415193     0.370418736336    -0.181308251422    12.000000000000
         C            3.949347584807     0.288131736336    -0.112194251422    12.000000000000
         H           -0.766700415193    -0.862690263664    -1.125059251422     1.007825032230
         H            0.079893784807     1.173200136336     0.741906648578     1.007825032230
         H           -1.368080415193    -1.350655263664     1.830015748578     1.007825032230
         H           -2.075833415193    -2.243162263664     0.459809748578     1.007825032230
         H           -0.323735415193    -2.333717263664     0.774753748578     1.007825032230
         H            2.389737584807     1.794710736336    -0.014923251422     1.007825032230
         H            2.575976584807     0.863063736336     1.461667748578     1.007825032230
         H            4.154716584807    -0.709606263664     0.281353748578     1.007825032230
         H            3.971251584807     0.223507736336    -1.201528251422     1.007825032230
         H            4.742031584807     0.966313736336     0.216883748578     1.007825032230
         H           -2.849312415193     2.104132736336     0.105499748578     1.007825032230

  Basis Set: AUG-CC-PVTZ
    Blend: AUG-CC-PVTZ
  Basis Set: (AUG-CC-PVTZ AUX)
    Blend: AUG-CC-PVTZ-JKFIT
	 Reference Energy          =    -512.8860584637302509 [Eh]
	 Singles Energy            =      -0.0000000000000000 [Eh]
	 Same-Spin Energy          =      -0.5113385700760015 [Eh]
	 Opposite-Spin Energy      =      -1.6148940228078632 [Eh]
	 Correlation Energy        =      -2.1262325928838646 [Eh]
	 Total Energy              =    -515.0122910566141172 [Eh]

	 ================> DF-SCS-MP2 Energies <==================
	-----------------------------------------------------------
	 SCS Same-Spin Scale       =       0.3333333333333333 [-]
	 SCS Opposite-Spin Scale   =       1.2000000000000000 [-]
	 SCS Same-Spin Energy      =      -0.1704461900253338 [Eh]
	 SCS Opposite-Spin Energy  =      -1.9378728273694357 [Eh]
	 SCS Correlation Energy    =      -2.1083190173947695 [Eh]
	 SCS Total Energy          =    -514.9943774811250705 [Eh]
	-----------------------------------------------------------

  Dipole Moment: [D]
     X:    -0.0371      Y:     3.2896      Z:     2.0163     Total:     3.8585

*** Psi4 exiting successfully. Buy a developer a beer!
