                               Psi4 1.4a2.dev612

  ==> Input File <==

--------------------------------------------------------------------------
#psi4
#
memory 32 gb

molecule  {
0 1
  O       -1.9756670     1.6664010     0.1857370
  O        1.6511300    -1.1930600    -0.6768240
  O       -3.2820610    -0.0444860    -0.5140140
  N        0.2152580     0.2772540     0.2951010
  C       -0.9672512    -0.5088752    -0.0149547
  C       -1.2010820    -1.6869190     0.8036840
  C        2.5941300     0.7851170     0.3678910
  C        1.4652130    -0.1360080    -0.0663740
  C       -2.1892550     0.3702600    -0.1810000
  C        3.9493650     0.2879730    -0.1118860
  H       -0.7666830    -0.8628490    -1.1247510
  H        0.0773990     1.1958980     0.6978160
  H       -1.3680630    -1.3508140     1.8303240
  H       -2.0758160    -2.2433210     0.4601180
  H       -0.3237180    -2.3338760     0.7750620
  H        2.3897550     1.7945520    -0.0146150
  H        2.5759940     0.8629050     1.4619760
  H        4.1547340    -0.7097650     0.2816620
  H        3.9712690     0.2233490    -1.2012200
  H        4.7420490     0.9661550     0.2171920
  H       -2.8492950     2.1039740     0.1058080
units angstrom
no_reorient  #important for SAPT in psi4, default
symmetry c1  #important for SAPT in psi4, default
}

set PROPERTIES_ORIGIN ["COM"]
properties('MP2/aug-cc-pvtz', properties = ['dipole'])
--------------------------------------------------------------------------

    Molecular point group: c1
  Charge       = 0
  Multiplicity = 1
  Basis Set: AUG-CC-PVTZ
    Blend: AUG-CC-PVTZ
  Basis Set: (AUG-CC-PVTZ AUX)
    Blend: AUG-CC-PVTZ-JKFIT

    Orbital Energies [Eh]
    ---------------------

    Doubly Occupied:

       1A    -20.635942     2A    -20.563705     3A    -20.524483
       4A    -15.592612     5A    -11.405456     6A    -11.356480
       7A    -11.300689     8A    -11.247741     9A    -11.224217
      10A    -11.219526    11A     -1.478377    12A     -1.380075
      13A     -1.373507    14A     -1.244966    15A     -1.080757
      16A     -1.041507    17A     -0.932350    18A     -0.885349
      19A     -0.808090    20A     -0.792145    21A     -0.731862
      22A     -0.714375    23A     -0.683676    24A     -0.663994
      25A     -0.641352    26A     -0.632104    27A     -0.610230
      28A     -0.604487    29A     -0.587618    30A     -0.551734
      31A     -0.545670    32A     -0.525433    33A     -0.519545
      34A     -0.511239    35A     -0.497719    36A     -0.485121
      37A     -0.461798    38A     -0.428652    39A     -0.401187

  @DF-RHF Final Energy:  -512.87480119226154

   => Energetics <=

    Nuclear Repulsion Energy =            548.4416122554368940
    One-Electron Energy =               -1788.8612927870478870
    Two-Electron Energy =                 727.5448793393494498
    Total Energy =                       -512.8748011922615433
  Basis Set: (AUG-CC-PVTZ AUX)
    Blend: AUG-CC-PVTZ-RI
    Molecular point group: c1

    Geometry (in Angstrom), charge = 0, multiplicity = 1:

       Center              X                  Y                   Z               Mass
    ------------   -----------------  -----------------  -----------------  -----------------
         O           -1.973947105658     1.668304026371     0.177873307327    15.994914619570
         O            1.652849894342    -1.191156973629    -0.684687692673    15.994914619570
         O           -3.280341105658    -0.042582973629    -0.521877692673    15.994914619570
         N            0.216977894342     0.279157026371     0.287237307327    14.003074004430
         C           -0.965531305658    -0.506972173629    -0.022818392673    12.000000000000
         C           -1.199362105658    -1.685015973629     0.795820307327    12.000000000000
         C            2.595849894342     0.787020026371     0.360027307327    12.000000000000
         C            1.466932894342    -0.134104973629    -0.074237692673    12.000000000000
         C           -2.187535105658     0.372163026371    -0.188863692673    12.000000000000
         C            3.951084894342     0.289876026371    -0.119749692673    12.000000000000
         H           -0.764963105658    -0.860945973629    -1.132614692673     1.007825032230
         H            0.079118894342     1.197801026371     0.689952307327     1.007825032230
         H           -1.366343105658    -1.348910973629     1.822460307327     1.007825032230
         H           -2.074096105658    -2.241417973629     0.452254307327     1.007825032230
         H           -0.321998105658    -2.331972973629     0.767198307327     1.007825032230
         H            2.391474894342     1.796455026371    -0.022478692673     1.007825032230
         H            2.577713894342     0.864808026371     1.454112307327     1.007825032230
         H            4.156453894342    -0.707861973629     0.273798307327     1.007825032230
         H            3.972988894342     0.225252026371    -1.209083692673     1.007825032230
         H            4.743768894342     0.968058026371     0.209328307327     1.007825032230
         H           -2.847575105658     2.105877026371     0.097944307327     1.007825032230

  Basis Set: AUG-CC-PVTZ
    Blend: AUG-CC-PVTZ
  Basis Set: (AUG-CC-PVTZ AUX)
    Blend: AUG-CC-PVTZ-JKFIT
	 Reference Energy          =    -512.8748011922615433 [Eh]
	 Singles Energy            =      -0.0000000000000000 [Eh]
	 Same-Spin Energy          =      -0.5122761826364977 [Eh]
	 Opposite-Spin Energy      =      -1.6162999700831460 [Eh]
	 Correlation Energy        =      -2.1285761527196438 [Eh]
	 Total Energy              =    -515.0033773449812315 [Eh]

	 ================> DF-SCS-MP2 Energies <==================
	-----------------------------------------------------------
	 SCS Same-Spin Scale       =       0.3333333333333333 [-]
	 SCS Opposite-Spin Scale   =       1.2000000000000000 [-]
	 SCS Same-Spin Energy      =      -0.1707587275454992 [Eh]
	 SCS Opposite-Spin Energy  =      -1.9395599640997752 [Eh]
	 SCS Correlation Energy    =      -2.1103186916452743 [Eh]
	 SCS Total Energy          =    -514.9851198839068047 [Eh]
	-----------------------------------------------------------

  Dipole Moment: [D]
     X:    -0.0631      Y:     3.2462      Z:     2.0640     Total:     3.8473

*** Psi4 exiting successfully. Buy a developer a beer!
