                               Psi4 1.4a2.dev612

  ==> Input File <==

--------------------------------------------------------------------------
#psi4
#
memory 32 gb

molecule  {
0 1
  O       -1.9756670     1.6664010     0.1857370
  O        1.6511300    -1.1930600    -0.6768240
  O       -3.2820610    -0.0444860    -0.5140140
  N        0.2152580     0.2772540     0.2951010
  C       -0.9464590    -0.4858680    -0.1100250
  C       -1.2010820    -1.6869190     0.8036840
  C        2.5703856     0.9335483     0.1082675
  C        1.4652130    -0.1360080    -0.0663740
  C       -2.1892550     0.3702600    -0.1810000
  C        3.9493650     0.2879730    -0.1118860
  H       -0.7666830    -0.8628490    -1.1247510
  H        0.0773990     1.1958980     0.6978160
  H       -1.3680630    -1.3508140     1.8303240
  H       -2.0758160    -2.2433210     0.4601180
  H       -0.3237180    -2.3338760     0.7750620
  H        2.3897550     1.7945520    -0.0146150
  H        2.5759940     0.8629050     1.4619760
  H        4.1547340    -0.7097650     0.2816620
  H        3.9712690     0.2233490    -1.2012200
  H        4.7420490     0.9661550     0.2171920
  H       -2.8492950     2.1039740     0.1058080
units angstrom
no_reorient  #important for SAPT in psi4, default
symmetry c1  #important for SAPT in psi4, default
}

set PROPERTIES_ORIGIN ["COM"]
properties('MP2/aug-cc-pvtz', properties = ['dipole'])
--------------------------------------------------------------------------

    Molecular point group: c1
  Charge       = 0
  Multiplicity = 1
  Basis Set: AUG-CC-PVTZ
    Blend: AUG-CC-PVTZ
  Basis Set: (AUG-CC-PVTZ AUX)
    Blend: AUG-CC-PVTZ-JKFIT

    Orbital Energies [Eh]
    ---------------------

    Doubly Occupied:

       1A    -20.636131     2A    -20.564062     3A    -20.526603
       4A    -15.591877     5A    -11.405102     6A    -11.363574
       7A    -11.296673     8A    -11.259226     9A    -11.226559
      10A    -11.226339    11A     -1.478618    12A     -1.382134
      13A     -1.373761    14A     -1.245527    15A     -1.076026
      16A     -1.037612    17A     -0.927495    18A     -0.892528
      19A     -0.819000    20A     -0.801627    21A     -0.743481
      22A     -0.715110    23A     -0.694949    24A     -0.668237
      25A     -0.635982    26A     -0.625903    27A     -0.611214
      28A     -0.597421    29A     -0.579028    30A     -0.568372
      31A     -0.545007    32A     -0.544681    33A     -0.523961
      34A     -0.510372    35A     -0.492543    36A     -0.468654
      37A     -0.444655    38A     -0.421086    39A     -0.398470

  @DF-RHF Final Energy:  -512.79493988747402

   => Energetics <=

    Nuclear Repulsion Energy =            547.7968672793522273
    One-Electron Energy =               -1787.3444161665338470
    Two-Electron Energy =                 726.7526089997076042
    Total Energy =                       -512.7949398874740154
  Basis Set: (AUG-CC-PVTZ AUX)
    Blend: AUG-CC-PVTZ-RI
    Molecular point group: c1

    Geometry (in Angstrom), charge = 0, multiplicity = 1:

       Center              X                  Y                   Z               Mass
    ------------   -----------------  -----------------  -----------------  -----------------
         O           -1.973702910102     1.654123239227     0.207212325572    15.994914619570
         O            1.653094089898    -1.205337760773    -0.655348674428    15.994914619570
         O           -3.280096910102    -0.056763760773    -0.492538674428    15.994914619570
         N            0.217222089898     0.264976239227     0.316576325572    14.003074004430
         C           -0.944494910102    -0.498145760773    -0.088549674428    12.000000000000
         C           -1.199117910102    -1.699196760773     0.825159325572    12.000000000000
         C            2.572349689898     0.921270539227     0.129742825572    12.000000000000
         C            1.467177089898    -0.148285760773    -0.044898674428    12.000000000000
         C           -2.187290910102     0.357982239227    -0.159524674428    12.000000000000
         C            3.951329089898     0.275695239227    -0.090410674428    12.000000000000
         H           -0.764718910102    -0.875126760773    -1.103275674428     1.007825032230
         H            0.079363089898     1.183620239227     0.719291325572     1.007825032230
         H           -1.366098910102    -1.363091760773     1.851799325572     1.007825032230
         H           -2.073851910102    -2.255598760773     0.481593325572     1.007825032230
         H           -0.321753910102    -2.346153760773     0.796537325572     1.007825032230
         H            2.391719089898     1.782274239227     0.006860325572     1.007825032230
         H            2.577958089898     0.850627239227     1.483451325572     1.007825032230
         H            4.156698089898    -0.722042760773     0.303137325572     1.007825032230
         H            3.973233089898     0.211071239227    -1.179744674428     1.007825032230
         H            4.744013089898     0.953877239227     0.238667325572     1.007825032230
         H           -2.847330910102     2.091696239227     0.127283325572     1.007825032230

  Basis Set: AUG-CC-PVTZ
    Blend: AUG-CC-PVTZ
  Basis Set: (AUG-CC-PVTZ AUX)
    Blend: AUG-CC-PVTZ-JKFIT
	 Reference Energy          =    -512.7949398874740154 [Eh]
	 Singles Energy            =      -0.0000000000000000 [Eh]
	 Same-Spin Energy          =      -0.5126499458953572 [Eh]
	 Opposite-Spin Energy      =      -1.6194093395232434 [Eh]
	 Correlation Energy        =      -2.1320592854186007 [Eh]
	 Total Energy              =    -514.9269991728925788 [Eh]

	 ================> DF-SCS-MP2 Energies <==================
	-----------------------------------------------------------
	 SCS Same-Spin Scale       =       0.3333333333333333 [-]
	 SCS Opposite-Spin Scale   =       1.2000000000000000 [-]
	 SCS Same-Spin Energy      =      -0.1708833152984524 [Eh]
	 SCS Opposite-Spin Energy  =      -1.9432912074278921 [Eh]
	 SCS Correlation Energy    =      -2.1141745227263447 [Eh]
	 SCS Total Energy          =    -514.9091144102003454 [Eh]
	-----------------------------------------------------------

  Dipole Moment: [D]
     X:     0.0004      Y:     3.3150      Z:     1.7536     Total:     3.7503

*** Psi4 exiting successfully. Buy a developer a beer!
