                               Psi4 1.4a2.dev612

  ==> Input File <==

--------------------------------------------------------------------------
#psi4
#
memory 32 gb

molecule  {
0 1
  O       -1.9756670     1.6664010     0.1857370
  O        1.6511300    -1.1930600    -0.6768240
  O       -3.2820610    -0.0444860    -0.5140140
  N        0.2152580     0.2772540     0.2951010
  C       -0.9984395    -0.5433860     0.1276506
  C       -1.2010820    -1.6869190     0.8036840
  C        2.5941300     0.7851170     0.3678910
  C        1.4652130    -0.1360080    -0.0663740
  C       -2.1892550     0.3702600    -0.1810000
  C        3.9493650     0.2879730    -0.1118860
  H       -0.7666830    -0.8628490    -1.1247510
  H        0.0773990     1.1958980     0.6978160
  H       -1.3680630    -1.3508140     1.8303240
  H       -2.0758160    -2.2433210     0.4601180
  H       -0.3237180    -2.3338760     0.7750620
  H        2.3897550     1.7945520    -0.0146150
  H        2.5759940     0.8629050     1.4619760
  H        4.1547340    -0.7097650     0.2816620
  H        3.9712690     0.2233490    -1.2012200
  H        4.7420490     0.9661550     0.2171920
  H       -2.8492950     2.1039740     0.1058080
units angstrom
no_reorient  #important for SAPT in psi4, default
symmetry c1  #important for SAPT in psi4, default
}

set PROPERTIES_ORIGIN ["COM"]
properties('MP2/aug-cc-pvtz', properties = ['dipole'])
--------------------------------------------------------------------------

    Molecular point group: c1
  Charge       = 0
  Multiplicity = 1
  Basis Set: AUG-CC-PVTZ
    Blend: AUG-CC-PVTZ
  Basis Set: (AUG-CC-PVTZ AUX)
    Blend: AUG-CC-PVTZ-JKFIT

    Orbital Energies [Eh]
    ---------------------

    Doubly Occupied:

       1A    -20.635665     2A    -20.562588     3A    -20.524624
       4A    -15.594137     5A    -11.408313     6A    -11.356834
       7A    -11.310343     8A    -11.247970     9A    -11.221470
      10A    -11.219527    11A     -1.477796    12A     -1.379183
      13A     -1.372884    14A     -1.243238    15A     -1.098478
      16A     -1.048825    17A     -0.936683    18A     -0.884434
      19A     -0.799840    20A     -0.789273    21A     -0.731924
      22A     -0.713598    23A     -0.686241    24A     -0.664336
      25A     -0.641663    26A     -0.634214    27A     -0.619155
      28A     -0.610366    29A     -0.596568    30A     -0.556283
      31A     -0.546565    32A     -0.525213    33A     -0.519513
      34A     -0.504517    35A     -0.497601    36A     -0.478271
      37A     -0.441755    38A     -0.428668    39A     -0.392965

  @DF-RHF Final Energy:  -512.82194222725946

   => Energetics <=

    Nuclear Repulsion Energy =            548.5929292858404551
    One-Electron Energy =               -1789.0267024888464675
    Two-Electron Energy =                 727.6118309757465568
    Total Energy =                       -512.8219422272594556
  Basis Set: (AUG-CC-PVTZ AUX)
    Blend: AUG-CC-PVTZ-RI
    Molecular point group: c1

    Geometry (in Angstrom), charge = 0, multiplicity = 1:

       Center              X                  Y                   Z               Mass
    ------------   -----------------  -----------------  -----------------  -----------------
         O           -1.971367319649     1.671158637844     0.166077500638    15.994914619570
         O            1.655429680351    -1.188302362156    -0.696483499362    15.994914619570
         O           -3.277761319649    -0.039728362156    -0.533673499362    15.994914619570
         N            0.219557680351     0.282011637844     0.275441500638    14.003074004430
         C           -0.994139819649    -0.538628362156     0.107991100638    12.000000000000
         C           -1.196782319649    -1.682161362156     0.784024500638    12.000000000000
         C            2.598429680351     0.789874637844     0.348231500638    12.000000000000
         C            1.469512680351    -0.131250362156    -0.086033499362    12.000000000000
         C           -2.184955319649     0.375017637844    -0.200659499362    12.000000000000
         C            3.953664680351     0.292730637844    -0.131545499362    12.000000000000
         H           -0.762383319649    -0.858091362156    -1.144410499362     1.007825032230
         H            0.081698680351     1.200655637844     0.678156500638     1.007825032230
         H           -1.363763319649    -1.346056362156     1.810664500638     1.007825032230
         H           -2.071516319649    -2.238563362156     0.440458500638     1.007825032230
         H           -0.319418319649    -2.329118362156     0.755402500638     1.007825032230
         H            2.394054680351     1.799309637844    -0.034274499362     1.007825032230
         H            2.580293680351     0.867662637844     1.442316500638     1.007825032230
         H            4.159033680351    -0.705007362156     0.262002500638     1.007825032230
         H            3.975568680351     0.228106637844    -1.220879499362     1.007825032230
         H            4.746348680351     0.970912637844     0.197532500638     1.007825032230
         H           -2.844995319649     2.108731637844     0.086148500638     1.007825032230

  Basis Set: AUG-CC-PVTZ
    Blend: AUG-CC-PVTZ
  Basis Set: (AUG-CC-PVTZ AUX)
    Blend: AUG-CC-PVTZ-JKFIT
	 Reference Energy          =    -512.8219422272594556 [Eh]
	 Singles Energy            =      -0.0000000000000000 [Eh]
	 Same-Spin Energy          =      -0.5147552786534145 [Eh]
	 Opposite-Spin Energy      =      -1.6205210317844416 [Eh]
	 Correlation Energy        =      -2.1352763104378560 [Eh]
	 Total Energy              =    -514.9572185376972584 [Eh]

	 ================> DF-SCS-MP2 Energies <==================
	-----------------------------------------------------------
	 SCS Same-Spin Scale       =       0.3333333333333333 [-]
	 SCS Opposite-Spin Scale   =       1.2000000000000000 [-]
	 SCS Same-Spin Energy      =      -0.1715850928844715 [Eh]
	 SCS Opposite-Spin Energy  =      -1.9446252381413298 [Eh]
	 SCS Correlation Energy    =      -2.1162103310258011 [Eh]
	 SCS Total Energy          =    -514.9381525582853101 [Eh]
	-----------------------------------------------------------

  Dipole Moment: [D]
     X:    -0.0764      Y:     3.0999      Z:     2.2768     Total:     3.8470

*** Psi4 exiting successfully. Buy a developer a beer!
