                               Psi4 1.4a2.dev612

  ==> Input File <==

--------------------------------------------------------------------------
#psi4
#
memory 32 gb

molecule  {
0 1
  O       -1.9756670     1.6664010     0.1857370
  O        1.6511300    -1.1930600    -0.6768240
  O       -3.2820610    -0.0444860    -0.5140140
  N        0.2152580     0.2772540     0.2951010
  C       -1.0088356    -0.5548896     0.1751858
  C       -1.2010820    -1.6869190     0.8036840
  C        2.5941300     0.7851170     0.3678910
  C        1.4652130    -0.1360080    -0.0663740
  C       -2.1892550     0.3702600    -0.1810000
  C        3.9493650     0.2879730    -0.1118860
  H       -0.7666830    -0.8628490    -1.1247510
  H        0.0773990     1.1958980     0.6978160
  H       -1.3680630    -1.3508140     1.8303240
  H       -2.0758160    -2.2433210     0.4601180
  H       -0.3237180    -2.3338760     0.7750620
  H        2.3897550     1.7945520    -0.0146150
  H        2.5759940     0.8629050     1.4619760
  H        4.1547340    -0.7097650     0.2816620
  H        3.9712690     0.2233490    -1.2012200
  H        4.7420490     0.9661550     0.2171920
  H       -2.8492950     2.1039740     0.1058080
units angstrom
no_reorient  #important for SAPT in psi4, default
symmetry c1  #important for SAPT in psi4, default
}

set PROPERTIES_ORIGIN ["COM"]
properties('MP2/aug-cc-pvtz', properties = ['dipole'])
--------------------------------------------------------------------------

    Molecular point group: c1
  Charge       = 0
  Multiplicity = 1
  Basis Set: AUG-CC-PVTZ
    Blend: AUG-CC-PVTZ
  Basis Set: (AUG-CC-PVTZ AUX)
    Blend: AUG-CC-PVTZ-JKFIT

    Orbital Energies [Eh]
    ---------------------

    Doubly Occupied:

       1A    -20.635502     2A    -20.561939     3A    -20.524733
       4A    -15.594875     5A    -11.409694     6A    -11.356879
       7A    -11.314366     8A    -11.248019     9A    -11.221116
      10A    -11.219508    11A     -1.477458    12A     -1.378876
      13A     -1.372507    14A     -1.242543    15A     -1.107348
      16A     -1.050396    17A     -0.937125    18A     -0.883915
      19A     -0.798370    20A     -0.787390    21A     -0.731735
      22A     -0.713211    23A     -0.687680    24A     -0.665176
      25A     -0.641759    26A     -0.637071    27A     -0.623341
      28A     -0.612201    29A     -0.598335    30A     -0.556506
      31A     -0.546935    32A     -0.524668    33A     -0.519494
      34A     -0.503643    35A     -0.497504    36A     -0.476225
      37A     -0.435268    38A     -0.428575    39A     -0.386042

  @DF-RHF Final Energy:  -512.79473431297197

   => Energetics <=

    Nuclear Repulsion Energy =            548.5895959413743412
    One-Electron Energy =               -1788.9528029515870458
    Two-Electron Energy =                 727.5684726972406224
    Total Energy =                       -512.7947343129719684
  Basis Set: (AUG-CC-PVTZ AUX)
    Blend: AUG-CC-PVTZ-RI
    Molecular point group: c1

    Geometry (in Angstrom), charge = 0, multiplicity = 1:

       Center              X                  Y                   Z               Mass
    ------------   -----------------  -----------------  -----------------  -----------------
         O           -1.970507390979     1.672110175002     0.162145556804    15.994914619570
         O            1.656289609021    -1.187350824998    -0.700415443196    15.994914619570
         O           -3.276901390979    -0.038776824998    -0.537605443196    15.994914619570
         N            0.220417609021     0.282963175002     0.271509556804    14.003074004430
         C           -1.003675990979    -0.549180424998     0.151594356804    12.000000000000
         C           -1.195922390979    -1.681209824998     0.780092556804    12.000000000000
         C            2.599289609021     0.790826175002     0.344299556804    12.000000000000
         C            1.470372609021    -0.130298824998    -0.089965443196    12.000000000000
         C           -2.184095390979     0.375969175002    -0.204591443196    12.000000000000
         C            3.954524609021     0.293682175002    -0.135477443196    12.000000000000
         H           -0.761523390979    -0.857139824998    -1.148342443196     1.007825032230
         H            0.082558609021     1.201607175002     0.674224556804     1.007825032230
         H           -1.362903390979    -1.345104824998     1.806732556804     1.007825032230
         H           -2.070656390979    -2.237611824998     0.436526556804     1.007825032230
         H           -0.318558390979    -2.328166824998     0.751470556804     1.007825032230
         H            2.394914609021     1.800261175002    -0.038206443196     1.007825032230
         H            2.581153609021     0.868614175002     1.438384556804     1.007825032230
         H            4.159893609021    -0.704055824998     0.258070556804     1.007825032230
         H            3.976428609021     0.229058175002    -1.224811443196     1.007825032230
         H            4.747208609021     0.971864175002     0.193600556804     1.007825032230
         H           -2.844135390979     2.109683175002     0.082216556804     1.007825032230

  Basis Set: AUG-CC-PVTZ
    Blend: AUG-CC-PVTZ
  Basis Set: (AUG-CC-PVTZ AUX)
    Blend: AUG-CC-PVTZ-JKFIT
	 Reference Energy          =    -512.7947343129719684 [Eh]
	 Singles Energy            =      -0.0000000000000000 [Eh]
	 Same-Spin Energy          =      -0.5158970398550944 [Eh]
	 Opposite-Spin Energy      =      -1.6225206104656384 [Eh]
	 Correlation Energy        =      -2.1384176503207328 [Eh]
	 Total Energy              =    -514.9331519632927439 [Eh]

	 ================> DF-SCS-MP2 Energies <==================
	-----------------------------------------------------------
	 SCS Same-Spin Scale       =       0.3333333333333333 [-]
	 SCS Opposite-Spin Scale   =       1.2000000000000000 [-]
	 SCS Same-Spin Energy      =      -0.1719656799516981 [Eh]
	 SCS Opposite-Spin Energy  =      -1.9470247325587660 [Eh]
	 SCS Correlation Energy    =      -2.1189904125104642 [Eh]
	 SCS Total Energy          =    -514.9137247254824388 [Eh]
	-----------------------------------------------------------

  Dipole Moment: [D]
     X:    -0.0785      Y:     3.0360      Z:     2.3686     Total:     3.8514

*** Psi4 exiting successfully. Buy a developer a beer!
