                               Psi4 1.4a2.dev612

  ==> Input File <==

--------------------------------------------------------------------------
#psi4
#
memory 32 gb

molecule  {
0 1
  O       -1.9756670     1.6664010     0.1857370
  O        1.6511300    -1.1930600    -0.6768240
  O       -3.2820610    -0.0444860    -0.5140140
  N        0.2152580     0.2772540     0.2951010
  C       -0.9776473    -0.5203788     0.0325804
  C       -1.2010820    -1.6869190     0.8036840
  C        2.5941300     0.7851170     0.3678910
  C        1.4652130    -0.1360080    -0.0663740
  C       -2.1892550     0.3702600    -0.1810000
  C        3.9493650     0.2879730    -0.1118860
  H       -0.7666830    -0.8628490    -1.1247510
  H        0.0773990     1.1958980     0.6978160
  H       -1.3680630    -1.3508140     1.8303240
  H       -2.0758160    -2.2433210     0.4601180
  H       -0.3237180    -2.3338760     0.7750620
  H        2.3897550     1.7945520    -0.0146150
  H        2.5759940     0.8629050     1.4619760
  H        4.1547340    -0.7097650     0.2816620
  H        3.9712690     0.2233490    -1.2012200
  H        4.7420490     0.9661550     0.2171920
  H       -2.8492950     2.1039740     0.1058080
units angstrom
no_reorient  #important for SAPT in psi4, default
symmetry c1  #important for SAPT in psi4, default
}

set PROPERTIES_ORIGIN ["COM"]
properties('MP2/aug-cc-pvtz', properties = ['dipole'])
--------------------------------------------------------------------------

    Molecular point group: c1
  Charge       = 0
  Multiplicity = 1
  Basis Set: AUG-CC-PVTZ
    Blend: AUG-CC-PVTZ
  Basis Set: (AUG-CC-PVTZ AUX)
    Blend: AUG-CC-PVTZ-JKFIT

    Orbital Energies [Eh]
    ---------------------

    Doubly Occupied:

       1A    -20.635881     2A    -20.563466     3A    -20.524493
       4A    -15.592982     5A    -11.406177     6A    -11.356625
       7A    -11.303486     8A    -11.247826     9A    -11.223087
      10A    -11.219532    11A     -1.478251    12A     -1.379780
      13A     -1.373378    14A     -1.244509    15A     -1.085247
      16A     -1.044306    17A     -0.934228    18A     -0.885154
      19A     -0.804675    20A     -0.791635    21A     -0.732038
      22A     -0.714179    23A     -0.684324    24A     -0.663761
      25A     -0.641453    26A     -0.632132    27A     -0.611684
      28A     -0.606352    29A     -0.591302    30A     -0.554090
      31A     -0.545895    32A     -0.525633    33A     -0.519530
      34A     -0.507975    35A     -0.497719    36A     -0.482752
      37A     -0.456179    38A     -0.428644    39A     -0.400070

  @DF-RHF Final Energy:  -512.86196364864588

   => Energetics <=

    Nuclear Repulsion Energy =            548.5198327852446027
    One-Electron Energy =               -1788.9827382613864302
    Two-Electron Energy =                 727.6009418274958307
    Total Energy =                       -512.8619636486458830
  Basis Set: (AUG-CC-PVTZ AUX)
    Blend: AUG-CC-PVTZ-RI
    Molecular point group: c1

    Geometry (in Angstrom), charge = 0, multiplicity = 1:

       Center              X                  Y                   Z               Mass
    ------------   -----------------  -----------------  -----------------  -----------------
         O           -1.973087176988     1.669255563529     0.173941371764    15.994914619570
         O            1.653709823012    -1.190205436471    -0.688619628236    15.994914619570
         O           -3.279481176988    -0.041631436471    -0.525809628236    15.994914619570
         N            0.217837823012     0.280108563529     0.283305371764    14.003074004430
         C           -0.975067476988    -0.517524236471     0.020784771764    12.000000000000
         C           -1.198502176988    -1.684064436471     0.791888371764    12.000000000000
         C            2.596709823012     0.787971563529     0.356095371764    12.000000000000
         C            1.467792823012    -0.133153436471    -0.078169628236    12.000000000000
         C           -2.186675176988     0.373114563529    -0.192795628236    12.000000000000
         C            3.951944823012     0.290827563529    -0.123681628236    12.000000000000
         H           -0.764103176988    -0.859994436471    -1.136546628236     1.007825032230
         H            0.079978823012     1.198752563529     0.686020371764     1.007825032230
         H           -1.365483176988    -1.347959436471     1.818528371764     1.007825032230
         H           -2.073236176988    -2.240466436471     0.448322371764     1.007825032230
         H           -0.321138176988    -2.331021436471     0.763266371764     1.007825032230
         H            2.392334823012     1.797406563529    -0.026410628236     1.007825032230
         H            2.578573823012     0.865759563529     1.450180371764     1.007825032230
         H            4.157313823012    -0.706910436471     0.269866371764     1.007825032230
         H            3.973848823012     0.226203563529    -1.213015628236     1.007825032230
         H            4.744628823012     0.969009563529     0.205396371764     1.007825032230
         H           -2.846715176988     2.106828563529     0.094012371764     1.007825032230

  Basis Set: AUG-CC-PVTZ
    Blend: AUG-CC-PVTZ
  Basis Set: (AUG-CC-PVTZ AUX)
    Blend: AUG-CC-PVTZ-JKFIT
	 Reference Energy          =    -512.8619636486458830 [Eh]
	 Singles Energy            =      -0.0000000000000000 [Eh]
	 Same-Spin Energy          =      -0.5129479596164849 [Eh]
	 Opposite-Spin Energy      =      -1.6174136899832088 [Eh]
	 Correlation Energy        =      -2.1303616495996938 [Eh]
	 Total Energy              =    -514.9923252982455324 [Eh]

	 ================> DF-SCS-MP2 Energies <==================
	-----------------------------------------------------------
	 SCS Same-Spin Scale       =       0.3333333333333333 [-]
	 SCS Opposite-Spin Scale   =       1.2000000000000000 [-]
	 SCS Same-Spin Energy      =      -0.1709826532054949 [Eh]
	 SCS Opposite-Spin Energy  =      -1.9408964279798504 [Eh]
	 SCS Correlation Energy    =      -2.1118790811853452 [Eh]
	 SCS Total Energy          =    -514.9738427298311763 [Eh]
	-----------------------------------------------------------

  Dipole Moment: [D]
     X:    -0.0691      Y:     3.2039      Z:     2.1260     Total:     3.8457

*** Psi4 exiting successfully. Buy a developer a beer!
