                               Psi4 1.4a2.dev612

  ==> Input File <==

--------------------------------------------------------------------------
#psi4
#
memory 32 gb

molecule  {
0 1
  O       -1.9756670     1.6664010     0.1857370
  O        1.6511300    -1.1930600    -0.6768240
  O       -3.2820610    -0.0444860    -0.5140140
  N        0.2152580     0.2772540     0.2951010
  C       -0.9464590    -0.4858680    -0.1100250
  C       -1.2010820    -1.6869190     0.8036840
  C        2.5941300     0.7851170     0.3678910
  C        1.4652130    -0.1360080    -0.0663740
  C       -2.1892550     0.3702600    -0.1810000
  C        3.9493650     0.2879730    -0.1118860
  H       -0.7666830    -0.8628490    -1.1247510
  H        0.0924720     1.0587586     0.9642097
  H       -1.3680630    -1.3508140     1.8303240
  H       -2.0758160    -2.2433210     0.4601180
  H       -0.3237180    -2.3338760     0.7750620
  H        2.3897550     1.7945520    -0.0146150
  H        2.5759940     0.8629050     1.4619760
  H        4.1547340    -0.7097650     0.2816620
  H        3.9712690     0.2233490    -1.2012200
  H        4.7420490     0.9661550     0.2171920
  H       -2.8492950     2.1039740     0.1058080
units angstrom
no_reorient  #important for SAPT in psi4, default
symmetry c1  #important for SAPT in psi4, default
}

set PROPERTIES_ORIGIN ["COM"]
properties('MP2/aug-cc-pvtz', properties = ['dipole'])
--------------------------------------------------------------------------

    Molecular point group: c1
  Charge       = 0
  Multiplicity = 1
  Basis Set: AUG-CC-PVTZ
    Blend: AUG-CC-PVTZ
  Basis Set: (AUG-CC-PVTZ AUX)
    Blend: AUG-CC-PVTZ-JKFIT

    Orbital Energies [Eh]
    ---------------------

    Doubly Occupied:

       1A    -20.632707     2A    -20.562158     3A    -20.524900
       4A    -15.594787     5A    -11.402602     6A    -11.356604
       7A    -11.296503     8A    -11.247484     9A    -11.227496
      10A    -11.219489    11A     -1.475480    12A     -1.380720
      13A     -1.371302    14A     -1.243104    15A     -1.074678
      16A     -1.035137    17A     -0.926872    18A     -0.885187
      19A     -0.814925    20A     -0.789739    21A     -0.727921
      22A     -0.713110    23A     -0.681870    24A     -0.660538
      25A     -0.641896    26A     -0.632481    27A     -0.608465
      28A     -0.597986    29A     -0.587675    30A     -0.546159
      31A     -0.542946    32A     -0.524467    33A     -0.521074
      34A     -0.518826    35A     -0.495962    36A     -0.487603
      37A     -0.467476    38A     -0.429352    39A     -0.399055

  @DF-RHF Final Energy:  -512.88377420835184

   => Energetics <=

    Nuclear Repulsion Energy =            547.9479241145298829
    One-Electron Energy =               -1787.9699230280339179
    Two-Electron Energy =                 727.1382247051520835
    Total Energy =                       -512.8837742083518378
  Basis Set: (AUG-CC-PVTZ AUX)
    Blend: AUG-CC-PVTZ-RI
    Molecular point group: c1

    Geometry (in Angstrom), charge = 0, multiplicity = 1:

       Center              X                  Y                   Z               Mass
    ------------   -----------------  -----------------  -----------------  -----------------
         O           -1.975771674785     1.667353656345     0.183886555758    15.994914619570
         O            1.651025325215    -1.192107343655    -0.678674444242    15.994914619570
         O           -3.282165674785    -0.043533343655    -0.515864444242    15.994914619570
         N            0.215153325215     0.278206656345     0.293250555758    14.003074004430
         C           -0.946563674785    -0.484915343655    -0.111875444242    12.000000000000
         C           -1.201186674785    -1.685966343655     0.801833555758    12.000000000000
         C            2.594025325215     0.786069656345     0.366040555758    12.000000000000
         C            1.465108325215    -0.135055343655    -0.068224444242    12.000000000000
         C           -2.189359674785     0.371212656345    -0.182850444242    12.000000000000
         C            3.949260325215     0.288925656345    -0.113736444242    12.000000000000
         H           -0.766787674785    -0.861896343655    -1.126601444242     1.007825032230
         H            0.092367325215     1.059711256345     0.962359255758     1.007825032230
         H           -1.368167674785    -1.349861343655     1.828473555758     1.007825032230
         H           -2.075920674785    -2.242368343655     0.458267555758     1.007825032230
         H           -0.323822674785    -2.332923343655     0.773211555758     1.007825032230
         H            2.389650325215     1.795504656345    -0.016465444242     1.007825032230
         H            2.575889325215     0.863857656345     1.460125555758     1.007825032230
         H            4.154629325215    -0.708812343655     0.279811555758     1.007825032230
         H            3.971164325215     0.224301656345    -1.203070444242     1.007825032230
         H            4.741944325215     0.967107656345     0.215341555758     1.007825032230
         H           -2.849399674785     2.104926656345     0.103957555758     1.007825032230

  Basis Set: AUG-CC-PVTZ
    Blend: AUG-CC-PVTZ
  Basis Set: (AUG-CC-PVTZ AUX)
    Blend: AUG-CC-PVTZ-JKFIT
	 Reference Energy          =    -512.8837742083518378 [Eh]
	 Singles Energy            =      -0.0000000000000000 [Eh]
	 Same-Spin Energy          =      -0.5114457332981035 [Eh]
	 Opposite-Spin Energy      =      -1.6152723883408018 [Eh]
	 Correlation Energy        =      -2.1267181216389055 [Eh]
	 Total Energy              =    -515.0104923299907114 [Eh]

	 ================> DF-SCS-MP2 Energies <==================
	-----------------------------------------------------------
	 SCS Same-Spin Scale       =       0.3333333333333333 [-]
	 SCS Opposite-Spin Scale   =       1.2000000000000000 [-]
	 SCS Same-Spin Energy      =      -0.1704819110993678 [Eh]
	 SCS Opposite-Spin Energy  =      -1.9383268660089621 [Eh]
	 SCS Correlation Energy    =      -2.1088087771083299 [Eh]
	 SCS Total Energy          =    -514.9925829854602171 [Eh]
	-----------------------------------------------------------

  Dipole Moment: [D]
     X:     0.0307      Y:     3.1249      Z:     2.2755     Total:     3.8657

*** Psi4 exiting successfully. Buy a developer a beer!
