                               Psi4 1.4a2.dev612

  ==> Input File <==

--------------------------------------------------------------------------
#psi4
#
memory 32 gb

molecule  {
0 1
  O       -1.9756670     1.6664010     0.1857370
  O        1.6511300    -1.1930600    -0.6768240
  O       -3.2820610    -0.0444860    -0.5140140
  N        0.2152580     0.2772540     0.2951010
  C       -0.9464590    -0.4858680    -0.1100250
  C       -1.2010820    -1.6869190     0.8036840
  C        2.5783004     0.8840712     0.1948087
  C        1.4652130    -0.1360080    -0.0663740
  C       -2.1892550     0.3702600    -0.1810000
  C        3.9493650     0.2879730    -0.1118860
  H       -0.7666830    -0.8628490    -1.1247510
  H        0.0773990     1.1958980     0.6978160
  H       -1.3680630    -1.3508140     1.8303240
  H       -2.0758160    -2.2433210     0.4601180
  H       -0.3237180    -2.3338760     0.7750620
  H        2.3897550     1.7945520    -0.0146150
  H        2.5759940     0.8629050     1.4619760
  H        4.1547340    -0.7097650     0.2816620
  H        3.9712690     0.2233490    -1.2012200
  H        4.7420490     0.9661550     0.2171920
  H       -2.8492950     2.1039740     0.1058080
units angstrom
no_reorient  #important for SAPT in psi4, default
symmetry c1  #important for SAPT in psi4, default
}

set PROPERTIES_ORIGIN ["COM"]
properties('MP2/aug-cc-pvtz', properties = ['dipole'])
--------------------------------------------------------------------------

    Molecular point group: c1
  Charge       = 0
  Multiplicity = 1
  Basis Set: AUG-CC-PVTZ
    Blend: AUG-CC-PVTZ
  Basis Set: (AUG-CC-PVTZ AUX)
    Blend: AUG-CC-PVTZ-JKFIT

    Orbital Energies [Eh]
    ---------------------

    Doubly Occupied:

       1A    -20.636120     2A    -20.563983     3A    -20.525451
       4A    -15.592074     5A    -11.404999     6A    -11.359567
       7A    -11.296574     8A    -11.253011     9A    -11.226501
      10A    -11.222654    11A     -1.478587    12A     -1.381313
      13A     -1.373705    14A     -1.245407    15A     -1.075578
      16A     -1.036766    17A     -0.927575    18A     -0.888357
      19A     -0.817533    20A     -0.796685    21A     -0.737135
      22A     -0.714925    23A     -0.691301    24A     -0.666905
      25A     -0.636387    26A     -0.631113    27A     -0.610778
      28A     -0.597891    29A     -0.581221    30A     -0.557345
      31A     -0.545025    32A     -0.540354    33A     -0.523454
      34A     -0.513546    35A     -0.493020    36A     -0.468773
      37A     -0.460718    38A     -0.426281    39A     -0.399817

  @DF-RHF Final Energy:  -512.84532480642019

   => Energetics <=

    Nuclear Repulsion Energy =            548.0504396420383273
    One-Electron Energy =               -1787.9946676255149214
    Two-Electron Energy =                 727.0989031770563997
    Total Energy =                       -512.8453248064201944
  Basis Set: (AUG-CC-PVTZ AUX)
    Blend: AUG-CC-PVTZ-RI
    Molecular point group: c1

    Geometry (in Angstrom), charge = 0, multiplicity = 1:

       Center              X                  Y                   Z               Mass
    ------------   -----------------  -----------------  -----------------  -----------------
         O           -1.974357594400     1.658215810170     0.200053943199    15.994914619570
         O            1.652439405600    -1.201245189830    -0.662507056801    15.994914619570
         O           -3.280751594400    -0.052671189830    -0.499697056801    15.994914619570
         N            0.216567405600     0.269068810170     0.309417943199    14.003074004430
         C           -0.945149594400    -0.494053189830    -0.095708056801    12.000000000000
         C           -1.199772594400    -1.695104189830     0.818000943199    12.000000000000
         C            2.579609805600     0.875886010170     0.209125643199    12.000000000000
         C            1.466522405600    -0.144193189830    -0.052057056801    12.000000000000
         C           -2.187945594400     0.362074810170    -0.166683056801    12.000000000000
         C            3.950674405600     0.279787810170    -0.097569056801    12.000000000000
         H           -0.765373594400    -0.871034189830    -1.110434056801     1.007825032230
         H            0.078708405600     1.187712810170     0.712132943199     1.007825032230
         H           -1.366753594400    -1.358999189830     1.844640943199     1.007825032230
         H           -2.074506594400    -2.251506189830     0.474434943199     1.007825032230
         H           -0.322408594400    -2.342061189830     0.789378943199     1.007825032230
         H            2.391064405600     1.786366810170    -0.000298056801     1.007825032230
         H            2.577303405600     0.854719810170     1.476292943199     1.007825032230
         H            4.156043405600    -0.717950189830     0.295978943199     1.007825032230
         H            3.972578405600     0.215163810170    -1.186903056801     1.007825032230
         H            4.743358405600     0.957969810170     0.231508943199     1.007825032230
         H           -2.847985594400     2.095788810170     0.120124943199     1.007825032230

  Basis Set: AUG-CC-PVTZ
    Blend: AUG-CC-PVTZ
  Basis Set: (AUG-CC-PVTZ AUX)
    Blend: AUG-CC-PVTZ-JKFIT
	 Reference Energy          =    -512.8453248064201944 [Eh]
	 Singles Energy            =      -0.0000000000000000 [Eh]
	 Same-Spin Energy          =      -0.5119474885058890 [Eh]
	 Opposite-Spin Energy      =      -1.6168789901063310 [Eh]
	 Correlation Energy        =      -2.1288264786122202 [Eh]
	 Total Energy              =    -514.9741512850324625 [Eh]

	 ================> DF-SCS-MP2 Energies <==================
	-----------------------------------------------------------
	 SCS Same-Spin Scale       =       0.3333333333333333 [-]
	 SCS Opposite-Spin Scale   =       1.2000000000000000 [-]
	 SCS Same-Spin Energy      =      -0.1706491628352963 [Eh]
	 SCS Opposite-Spin Energy  =      -1.9402547881275971 [Eh]
	 SCS Correlation Energy    =      -2.1109039509628933 [Eh]
	 SCS Total Energy          =    -514.9562287573830872 [Eh]
	-----------------------------------------------------------

  Dipole Moment: [D]
     X:    -0.0223      Y:     3.3392      Z:     1.8312     Total:     3.8084

*** Psi4 exiting successfully. Buy a developer a beer!
