                               Psi4 1.4a2.dev612

  ==> Input File <==

--------------------------------------------------------------------------
#psi4
#
memory 32 gb

molecule  {
0 1
  O       -1.9756670     1.6664010     0.1857370
  O        1.6511300    -1.1930600    -0.6768240
  O       -3.2820610    -0.0444860    -0.5140140
  N        0.2152580     0.2772540     0.2951010
  C       -0.9568551    -0.4973716    -0.0624899
  C       -1.2010820    -1.6869190     0.8036840
  C        2.5941300     0.7851170     0.3678910
  C        1.4652130    -0.1360080    -0.0663740
  C       -2.1892550     0.3702600    -0.1810000
  C        3.9493650     0.2879730    -0.1118860
  H       -0.7666830    -0.8628490    -1.1247510
  H        0.0773990     1.1958980     0.6978160
  H       -1.3680630    -1.3508140     1.8303240
  H       -2.0758160    -2.2433210     0.4601180
  H       -0.3237180    -2.3338760     0.7750620
  H        2.3897550     1.7945520    -0.0146150
  H        2.5759940     0.8629050     1.4619760
  H        4.1547340    -0.7097650     0.2816620
  H        3.9712690     0.2233490    -1.2012200
  H        4.7420490     0.9661550     0.2171920
  H       -2.8492950     2.1039740     0.1058080
units angstrom
no_reorient  #important for SAPT in psi4, default
symmetry c1  #important for SAPT in psi4, default
}

set PROPERTIES_ORIGIN ["COM"]
properties('MP2/aug-cc-pvtz', properties = ['dipole'])
--------------------------------------------------------------------------

    Molecular point group: c1
  Charge       = 0
  Multiplicity = 1
  Basis Set: AUG-CC-PVTZ
    Blend: AUG-CC-PVTZ
  Basis Set: (AUG-CC-PVTZ AUX)
    Blend: AUG-CC-PVTZ-JKFIT

    Orbital Energies [Eh]
    ---------------------

    Doubly Occupied:

       1A    -20.635974     2A    -20.563815     3A    -20.524515
       4A    -15.592405     5A    -11.404982     6A    -11.356317
       7A    -11.298330     8A    -11.247651     9A    -11.225497
      10A    -11.219516    11A     -1.478438    12A     -1.380369
      13A     -1.373560    14A     -1.245253    15A     -1.077401
      16A     -1.038566    17A     -0.930164    18A     -0.885434
      19A     -0.812103    20A     -0.792353    21A     -0.731480
      22A     -0.714508    23A     -0.683198    24A     -0.664588
      25A     -0.641278    26A     -0.632519    27A     -0.609885
      28A     -0.603329    29A     -0.583928    30A     -0.548574
      31A     -0.545487    32A     -0.524871    33A     -0.519599
      34A     -0.515600    35A     -0.497663    36A     -0.487070
      37A     -0.465595    38A     -0.428699    39A     -0.401184

  @DF-RHF Final Energy:  -512.88282749183304

   => Energetics <=

    Nuclear Repulsion Energy =            548.3346154175757192
    One-Electron Energy =               -1788.6714919113203450
    Two-Electron Energy =                 727.4540490019114714
    Total Energy =                       -512.8828274918330408
  Basis Set: (AUG-CC-PVTZ AUX)
    Blend: AUG-CC-PVTZ-RI
    Molecular point group: c1

    Geometry (in Angstrom), charge = 0, multiplicity = 1:

       Center              X                  Y                   Z               Mass
    ------------   -----------------  -----------------  -----------------  -----------------
         O           -1.974807034328     1.667352489214     0.181805251162    15.994914619570
         O            1.651989965672    -1.192108510786    -0.680755748838    15.994914619570
         O           -3.281201034328    -0.043534510786    -0.517945748838    15.994914619570
         N            0.216117965672     0.278205489214     0.291169251162    14.003074004430
         C           -0.955995134328    -0.496420110786    -0.066421648838    12.000000000000
         C           -1.200222034328    -1.685967510786     0.799752251162    12.000000000000
         C            2.594989965672     0.786068489214     0.363959251162    12.000000000000
         C            1.466072965672    -0.135056510786    -0.070305748838    12.000000000000
         C           -2.188395034328     0.371211489214    -0.184931748838    12.000000000000
         C            3.950224965672     0.288924489214    -0.115817748838    12.000000000000
         H           -0.765823034328    -0.861897510786    -1.128682748838     1.007825032230
         H            0.078258965672     1.196849489214     0.693884251162     1.007825032230
         H           -1.367203034328    -1.349862510786     1.826392251162     1.007825032230
         H           -2.074956034328    -2.242369510786     0.456186251162     1.007825032230
         H           -0.322858034328    -2.332924510786     0.771130251162     1.007825032230
         H            2.390614965672     1.795503489214    -0.018546748838     1.007825032230
         H            2.576853965672     0.863856489214     1.458044251162     1.007825032230
         H            4.155593965672    -0.708813510786     0.277730251162     1.007825032230
         H            3.972128965672     0.224300489214    -1.205151748838     1.007825032230
         H            4.742908965672     0.967106489214     0.213260251162     1.007825032230
         H           -2.848435034328     2.104925489214     0.101876251162     1.007825032230

  Basis Set: AUG-CC-PVTZ
    Blend: AUG-CC-PVTZ
  Basis Set: (AUG-CC-PVTZ AUX)
    Blend: AUG-CC-PVTZ-JKFIT
	 Reference Energy          =    -512.8828274918330408 [Eh]
	 Singles Energy            =      -0.0000000000000000 [Eh]
	 Same-Spin Energy          =      -0.5117527838469907 [Eh]
	 Opposite-Spin Energy      =      -1.6154816870357287 [Eh]
	 Correlation Energy        =      -2.1272344708827196 [Eh]
	 Total Energy              =    -515.0100619627157812 [Eh]

	 ================> DF-SCS-MP2 Energies <==================
	-----------------------------------------------------------
	 SCS Same-Spin Scale       =       0.3333333333333333 [-]
	 SCS Opposite-Spin Scale   =       1.2000000000000000 [-]
	 SCS Same-Spin Energy      =      -0.1705842612823302 [Eh]
	 SCS Opposite-Spin Energy  =      -1.9385780244428743 [Eh]
	 SCS Correlation Energy    =      -2.1091622857252044 [Eh]
	 SCS Total Energy          =    -514.9919897775582740 [Eh]
	-----------------------------------------------------------

  Dipole Moment: [D]
     X:    -0.0550      Y:     3.2830      Z:     2.0092     Total:     3.8494

*** Psi4 exiting successfully. Buy a developer a beer!
