                               Psi4 1.4a2.dev612

  ==> Input File <==

--------------------------------------------------------------------------
#psi4
#
memory 32 gb

molecule  {
0 1
  O       -1.9756670     1.6664010     0.1857370
  O        1.6511300    -1.1930600    -0.6768240
  O       -3.2820610    -0.0444860    -0.5140140
  N        0.2152580     0.2772540     0.2951010
  C       -0.9464590    -0.4858680    -0.1100250
  C       -1.2010820    -1.6869190     0.8036840
  C        2.5901726     0.8098556     0.3246204
  C        1.4652130    -0.1360080    -0.0663740
  C       -2.1892550     0.3702600    -0.1810000
  C        3.9493650     0.2879730    -0.1118860
  H       -0.7666830    -0.8628490    -1.1247510
  H        0.0773990     1.1958980     0.6978160
  H       -1.3680630    -1.3508140     1.8303240
  H       -2.0758160    -2.2433210     0.4601180
  H       -0.3237180    -2.3338760     0.7750620
  H        2.3897550     1.7945520    -0.0146150
  H        2.5759940     0.8629050     1.4619760
  H        4.1547340    -0.7097650     0.2816620
  H        3.9712690     0.2233490    -1.2012200
  H        4.7420490     0.9661550     0.2171920
  H       -2.8492950     2.1039740     0.1058080
units angstrom
no_reorient  #important for SAPT in psi4, default
symmetry c1  #important for SAPT in psi4, default
}

set PROPERTIES_ORIGIN ["COM"]
properties('MP2/aug-cc-pvtz', properties = ['dipole'])
--------------------------------------------------------------------------

    Molecular point group: c1
  Charge       = 0
  Multiplicity = 1
  Basis Set: AUG-CC-PVTZ
    Blend: AUG-CC-PVTZ
  Basis Set: (AUG-CC-PVTZ AUX)
    Blend: AUG-CC-PVTZ-JKFIT

    Orbital Energies [Eh]
    ---------------------

    Doubly Occupied:

       1A    -20.636029     2A    -20.563845     3A    -20.524609
       4A    -15.592309     5A    -11.404824     6A    -11.356376
       7A    -11.296452     8A    -11.248025     9A    -11.226785
      10A    -11.219660    11A     -1.478484    12A     -1.380686
      13A     -1.373587    14A     -1.245333    15A     -1.075057
      16A     -1.035863    17A     -0.927726    18A     -0.885628
      19A     -0.816743    20A     -0.792586    21A     -0.731074
      22A     -0.714632    23A     -0.684256    24A     -0.664979
      25A     -0.640924    26A     -0.633775    27A     -0.610391
      28A     -0.601303    29A     -0.581318    30A     -0.547367
      31A     -0.544568    32A     -0.525628    33A     -0.522096
      34A     -0.518071    35A     -0.496185    36A     -0.485796
      37A     -0.467934    38A     -0.428632    39A     -0.400251

  @DF-RHF Final Energy:  -512.88345773128674

   => Energetics <=

    Nuclear Repulsion Energy =            548.2058745585040924
    One-Electron Energy =               -1788.4190907367124055
    Two-Electron Energy =                 727.3297584469215735
    Total Energy =                       -512.8834577312867395
  Basis Set: (AUG-CC-PVTZ AUX)
    Blend: AUG-CC-PVTZ-RI
    Molecular point group: c1

    Geometry (in Angstrom), charge = 0, multiplicity = 1:

       Center              X                  Y                   Z               Mass
    ------------   -----------------  -----------------  -----------------  -----------------
         O           -1.975339620848     1.664354662449     0.189316377911    15.994914619570
         O            1.651457379152    -1.195106337551    -0.673244622089    15.994914619570
         O           -3.281733620848    -0.046532337551    -0.510434622089    15.994914619570
         N            0.215585379152     0.275207662449     0.298680377911    14.003074004430
         C           -0.946131620848    -0.487914337551    -0.106445622089    12.000000000000
         C           -1.200754620848    -1.688965337551     0.807263377911    12.000000000000
         C            2.590499979152     0.807809262449     0.328199777911    12.000000000000
         C            1.465540379152    -0.138054337551    -0.062794622089    12.000000000000
         C           -2.188927620848     0.368213662449    -0.177420622089    12.000000000000
         C            3.949692379152     0.285926662449    -0.108306622089    12.000000000000
         H           -0.766355620848    -0.864895337551    -1.121171622089     1.007825032230
         H            0.077726379152     1.193851662449     0.701395377911     1.007825032230
         H           -1.367735620848    -1.352860337551     1.833903377911     1.007825032230
         H           -2.075488620848    -2.245367337551     0.463697377911     1.007825032230
         H           -0.323390620848    -2.335922337551     0.778641377911     1.007825032230
         H            2.390082379152     1.792505662449    -0.011035622089     1.007825032230
         H            2.576321379152     0.860858662449     1.465555377911     1.007825032230
         H            4.155061379152    -0.711811337551     0.285241377911     1.007825032230
         H            3.971596379152     0.221302662449    -1.197640622089     1.007825032230
         H            4.742376379152     0.964108662449     0.220771377911     1.007825032230
         H           -2.848967620848     2.101927662449     0.109387377911     1.007825032230

  Basis Set: AUG-CC-PVTZ
    Blend: AUG-CC-PVTZ
  Basis Set: (AUG-CC-PVTZ AUX)
    Blend: AUG-CC-PVTZ-JKFIT
	 Reference Energy          =    -512.8834577312867395 [Eh]
	 Singles Energy            =      -0.0000000000000000 [Eh]
	 Same-Spin Energy          =      -0.5114167868243339 [Eh]
	 Opposite-Spin Energy      =      -1.6150666930723827 [Eh]
	 Correlation Energy        =      -2.1264834798967165 [Eh]
	 Total Energy              =    -515.0099412111834454 [Eh]

	 ================> DF-SCS-MP2 Energies <==================
	-----------------------------------------------------------
	 SCS Same-Spin Scale       =       0.3333333333333333 [-]
	 SCS Opposite-Spin Scale   =       1.2000000000000000 [-]
	 SCS Same-Spin Energy      =      -0.1704722622747780 [Eh]
	 SCS Opposite-Spin Energy  =      -1.9380800316868592 [Eh]
	 SCS Correlation Energy    =      -2.1085522939616372 [Eh]
	 SCS Total Energy          =    -514.9920100252484190 [Eh]
	-----------------------------------------------------------

  Dipole Moment: [D]
     X:    -0.0424      Y:     3.3314      Z:     1.9345     Total:     3.8526

*** Psi4 exiting successfully. Buy a developer a beer!
