                               Psi4 1.4a2.dev612

  ==> Input File <==

--------------------------------------------------------------------------
#psi4
#
memory 32 gb

molecule  {
0 1
  O       -1.9756670     1.6664010     0.1857370
  O        1.6511300    -1.1930600    -0.6768240
  O       -3.2820610    -0.0444860    -0.5140140
  N        0.2152580     0.2772540     0.2951010
  C       -0.9464590    -0.4858680    -0.1100250
  C       -1.2010820    -1.6869190     0.8036840
  C        2.5941300     0.7851170     0.3678910
  C        1.4652130    -0.1360080    -0.0663740
  C       -2.1892550     0.3702600    -0.1810000
  C        3.9493650     0.2879730    -0.1118860
  H       -0.7666830    -0.8628490    -1.1247510
  H        0.0899599     1.0816152     0.9198107
  H       -1.3680630    -1.3508140     1.8303240
  H       -2.0758160    -2.2433210     0.4601180
  H       -0.3237180    -2.3338760     0.7750620
  H        2.3897550     1.7945520    -0.0146150
  H        2.5759940     0.8629050     1.4619760
  H        4.1547340    -0.7097650     0.2816620
  H        3.9712690     0.2233490    -1.2012200
  H        4.7420490     0.9661550     0.2171920
  H       -2.8492950     2.1039740     0.1058080
units angstrom
no_reorient  #important for SAPT in psi4, default
symmetry c1  #important for SAPT in psi4, default
}

set PROPERTIES_ORIGIN ["COM"]
properties('MP2/aug-cc-pvtz', properties = ['dipole'])
--------------------------------------------------------------------------

    Molecular point group: c1
  Charge       = 0
  Multiplicity = 1
  Basis Set: AUG-CC-PVTZ
    Blend: AUG-CC-PVTZ
  Basis Set: (AUG-CC-PVTZ AUX)
    Blend: AUG-CC-PVTZ-JKFIT

    Orbital Energies [Eh]
    ---------------------

    Doubly Occupied:

       1A    -20.633335     2A    -20.562479     3A    -20.524644
       4A    -15.594002     5A    -11.403025     6A    -11.356523
       7A    -11.296576     8A    -11.247504     9A    -11.227368
      10A    -11.219492    11A     -1.476043    12A     -1.380626
      13A     -1.371734    14A     -1.243973    15A     -1.074778
      16A     -1.035347    17A     -0.927040    18A     -0.885288
      19A     -0.815758    20A     -0.791038    21A     -0.728661
      22A     -0.713560    23A     -0.682005    24A     -0.661549
      25A     -0.641730    26A     -0.632728    27A     -0.608825
      28A     -0.598937    29A     -0.586834    30A     -0.546234
      31A     -0.543112    32A     -0.524476    33A     -0.521037
      34A     -0.518892    35A     -0.496240    36A     -0.487739
      37A     -0.467583    38A     -0.429161    39A     -0.399150

  @DF-RHF Final Energy:  -512.88472632317792

   => Energetics <=

    Nuclear Repulsion Energy =            548.0201571909885843
    One-Electron Energy =               -1788.0997100491561014
    Two-Electron Energy =                 727.1948265349896019
    Total Energy =                       -512.8847263231779152
  Basis Set: (AUG-CC-PVTZ AUX)
    Blend: AUG-CC-PVTZ-RI
    Molecular point group: c1

    Geometry (in Angstrom), charge = 0, multiplicity = 1:

       Center              X                  Y                   Z               Mass
    ------------   -----------------  -----------------  -----------------  -----------------
         O           -1.975754223283     1.667194872065     0.184194994600    15.994914619570
         O            1.651042776717    -1.192266127935    -0.678366005400    15.994914619570
         O           -3.282148223283    -0.043692127935    -0.515556005400    15.994914619570
         N            0.215170776717     0.278047872065     0.293558994600    14.003074004430
         C           -0.946546223283    -0.485074127935    -0.111567005400    12.000000000000
         C           -1.201169223283    -1.686125127935     0.802141994600    12.000000000000
         C            2.594042776717     0.785910872065     0.366348994600    12.000000000000
         C            1.465125776717    -0.135214127935    -0.067916005400    12.000000000000
         C           -2.189342223283     0.371053872065    -0.182542005400    12.000000000000
         C            3.949277776717     0.288766872065    -0.113428005400    12.000000000000
         H           -0.766770223283    -0.862055127935    -1.126293005400     1.007825032230
         H            0.089872676717     1.082409072065     0.918268694600     1.007825032230
         H           -1.368150223283    -1.350020127935     1.828781994600     1.007825032230
         H           -2.075903223283    -2.242527127935     0.458575994600     1.007825032230
         H           -0.323805223283    -2.333082127935     0.773519994600     1.007825032230
         H            2.389667776717     1.795345872065    -0.016157005400     1.007825032230
         H            2.575906776717     0.863698872065     1.460433994600     1.007825032230
         H            4.154646776717    -0.708971127935     0.280119994600     1.007825032230
         H            3.971181776717     0.224142872065    -1.202762005400     1.007825032230
         H            4.741961776717     0.966948872065     0.215649994600     1.007825032230
         H           -2.849382223283     2.104767872065     0.104265994600     1.007825032230

  Basis Set: AUG-CC-PVTZ
    Blend: AUG-CC-PVTZ
  Basis Set: (AUG-CC-PVTZ AUX)
    Blend: AUG-CC-PVTZ-JKFIT
	 Reference Energy          =    -512.8847263231779152 [Eh]
	 Singles Energy            =      -0.0000000000000000 [Eh]
	 Same-Spin Energy          =      -0.5113883643707864 [Eh]
	 Opposite-Spin Energy      =      -1.6150949264330228 [Eh]
	 Correlation Energy        =      -2.1264832908038089 [Eh]
	 Total Energy              =    -515.0112096139816913 [Eh]

	 ================> DF-SCS-MP2 Energies <==================
	-----------------------------------------------------------
	 SCS Same-Spin Scale       =       0.3333333333333333 [-]
	 SCS Opposite-Spin Scale   =       1.2000000000000000 [-]
	 SCS Same-Spin Energy      =      -0.1704627881235954 [Eh]
	 SCS Opposite-Spin Energy  =      -1.9381139117196273 [Eh]
	 SCS Correlation Energy    =      -2.1085766998432227 [Eh]
	 SCS Total Energy          =    -514.9933030230210989 [Eh]
	-----------------------------------------------------------

  Dipole Moment: [D]
     X:     0.0133      Y:     3.1624      Z:     2.2268     Total:     3.8678

*** Psi4 exiting successfully. Buy a developer a beer!
