                               Psi4 1.4a2.dev612

  ==> Input File <==

--------------------------------------------------------------------------
#psi4
#
memory 32 gb

molecule  {
0 1
  O       -1.9756670     1.6664010     0.1857370
  O        1.6511300    -1.1930600    -0.6768240
  O       -3.2820610    -0.0444860    -0.5140140
  N        0.2152580     0.2772540     0.2951010
  C       -0.9464590    -0.4858680    -0.1100250
  C       -1.2010820    -1.6869190     0.8036840
  C        2.5941300     0.7851170     0.3678910
  C        1.4652130    -0.1360080    -0.0663740
  C       -2.1892550     0.3702600    -0.1810000
  C        3.9493650     0.2879730    -0.1118860
  H       -0.7666830    -0.8628490    -1.1247510
  H        0.0849355     1.1273283     0.8310128
  H       -1.3680630    -1.3508140     1.8303240
  H       -2.0758160    -2.2433210     0.4601180
  H       -0.3237180    -2.3338760     0.7750620
  H        2.3897550     1.7945520    -0.0146150
  H        2.5759940     0.8629050     1.4619760
  H        4.1547340    -0.7097650     0.2816620
  H        3.9712690     0.2233490    -1.2012200
  H        4.7420490     0.9661550     0.2171920
  H       -2.8492950     2.1039740     0.1058080
units angstrom
no_reorient  #important for SAPT in psi4, default
symmetry c1  #important for SAPT in psi4, default
}

set PROPERTIES_ORIGIN ["COM"]
properties('MP2/aug-cc-pvtz', properties = ['dipole'])
--------------------------------------------------------------------------

    Molecular point group: c1
  Charge       = 0
  Multiplicity = 1
  Basis Set: AUG-CC-PVTZ
    Blend: AUG-CC-PVTZ
  Basis Set: (AUG-CC-PVTZ AUX)
    Blend: AUG-CC-PVTZ-JKFIT

    Orbital Energies [Eh]
    ---------------------

    Doubly Occupied:

       1A    -20.634503     2A    -20.563070     3A    -20.524375
       4A    -15.592879     5A    -11.403806     6A    -11.356369
       7A    -11.296626     8A    -11.247536     9A    -11.227145
      10A    -11.219498    11A     -1.477095    12A     -1.380544
      13A     -1.372535    14A     -1.245161    15A     -1.074910
      16A     -1.035634    17A     -0.927366    18A     -0.885415
      19A     -0.816855    20A     -0.792614    21A     -0.729838
      22A     -0.714234    23A     -0.682330    24A     -0.663383
      25A     -0.641454    26A     -0.633122    27A     -0.609495
      28A     -0.600631    29A     -0.584779    30A     -0.546373
      31A     -0.543444    32A     -0.524408    33A     -0.520907
      34A     -0.519015    35A     -0.496789    36A     -0.487959
      37A     -0.467749    38A     -0.428894    39A     -0.399474

  @DF-RHF Final Energy:  -512.88577772713666

   => Energetics <=

    Nuclear Repulsion Energy =            548.1295151328216662
    One-Electron Energy =               -1788.2941537380465888
    Two-Electron Energy =                 727.2788608780881532
    Total Energy =                       -512.8857777271366558
  Basis Set: (AUG-CC-PVTZ AUX)
    Blend: AUG-CC-PVTZ-RI
    Molecular point group: c1

    Geometry (in Angstrom), charge = 0, multiplicity = 1:

       Center              X                  Y                   Z               Mass
    ------------   -----------------  -----------------  -----------------  -----------------
         O           -1.975719318891     1.666877304200     0.184811871589    15.994914619570
         O            1.651077681109    -1.192583695800    -0.677749128411    15.994914619570
         O           -3.282113318891    -0.044009695800    -0.514939128411    15.994914619570
         N            0.215205681109     0.277730304200     0.294175871589    14.003074004430
         C           -0.946511318891    -0.485391695800    -0.110950128411    12.000000000000
         C           -1.201134318891    -1.686442695800     0.802758871589    12.000000000000
         C            2.594077681109     0.785593304200     0.366965871589    12.000000000000
         C            1.465160681109    -0.135531695800    -0.067299128411    12.000000000000
         C           -2.189307318891     0.370736304200    -0.181925128411    12.000000000000
         C            3.949312681109     0.288449304200    -0.112811128411    12.000000000000
         H           -0.766735318891    -0.862372695800    -1.125676128411     1.007825032230
         H            0.084883181109     1.127804604200     0.830087671589     1.007825032230
         H           -1.368115318891    -1.350337695800     1.829398871589     1.007825032230
         H           -2.075868318891    -2.242844695800     0.459192871589     1.007825032230
         H           -0.323770318891    -2.333399695800     0.774136871589     1.007825032230
         H            2.389702681109     1.795028304200    -0.015540128411     1.007825032230
         H            2.575941681109     0.863381304200     1.461050871589     1.007825032230
         H            4.154681681109    -0.709288695800     0.280736871589     1.007825032230
         H            3.971216681109     0.223825304200    -1.202145128411     1.007825032230
         H            4.741996681109     0.966631304200     0.216266871589     1.007825032230
         H           -2.849347318891     2.104450304200     0.104882871589     1.007825032230

  Basis Set: AUG-CC-PVTZ
    Blend: AUG-CC-PVTZ
  Basis Set: (AUG-CC-PVTZ AUX)
    Blend: AUG-CC-PVTZ-JKFIT
	 Reference Energy          =    -512.8857777271366558 [Eh]
	 Singles Energy            =      -0.0000000000000000 [Eh]
	 Same-Spin Energy          =      -0.5113266730298077 [Eh]
	 Opposite-Spin Energy      =      -1.6148939501777222 [Eh]
	 Correlation Energy        =      -2.1262206232075300 [Eh]
	 Total Energy              =    -515.0119983503441290 [Eh]

	 ================> DF-SCS-MP2 Energies <==================
	-----------------------------------------------------------
	 SCS Same-Spin Scale       =       0.3333333333333333 [-]
	 SCS Opposite-Spin Scale   =       1.2000000000000000 [-]
	 SCS Same-Spin Energy      =      -0.1704422243432692 [Eh]
	 SCS Opposite-Spin Energy  =      -1.9378727402132665 [Eh]
	 SCS Correlation Energy    =      -2.1083149645565356 [Eh]
	 SCS Total Energy          =    -514.9940926916931403 [Eh]
	-----------------------------------------------------------

  Dipole Moment: [D]
     X:    -0.0160      Y:     3.2309      Z:     2.1244     Total:     3.8667

*** Psi4 exiting successfully. Buy a developer a beer!
