                               Psi4 1.4a2.dev612

  ==> Input File <==

--------------------------------------------------------------------------
#psi4
#
memory 32 gb

molecule  {
0 1
  O       -1.9756670     1.6664010     0.1857370
  O        1.6511300    -1.1930600    -0.6768240
  O       -3.2820610    -0.0444860    -0.5140140
  N        0.2152580     0.2772540     0.2951010
  C       -0.9464590    -0.4858680    -0.1100250
  C       -1.2010820    -1.6869190     0.8036840
  C        2.5822578     0.8593327     0.2380793
  C        1.4652130    -0.1360080    -0.0663740
  C       -2.1892550     0.3702600    -0.1810000
  C        3.9493650     0.2879730    -0.1118860
  H       -0.7666830    -0.8628490    -1.1247510
  H        0.0773990     1.1958980     0.6978160
  H       -1.3680630    -1.3508140     1.8303240
  H       -2.0758160    -2.2433210     0.4601180
  H       -0.3237180    -2.3338760     0.7750620
  H        2.3897550     1.7945520    -0.0146150
  H        2.5759940     0.8629050     1.4619760
  H        4.1547340    -0.7097650     0.2816620
  H        3.9712690     0.2233490    -1.2012200
  H        4.7420490     0.9661550     0.2171920
  H       -2.8492950     2.1039740     0.1058080
units angstrom
no_reorient  #important for SAPT in psi4, default
symmetry c1  #important for SAPT in psi4, default
}

set PROPERTIES_ORIGIN ["COM"]
properties('MP2/aug-cc-pvtz', properties = ['dipole'])
--------------------------------------------------------------------------

    Molecular point group: c1
  Charge       = 0
  Multiplicity = 1
  Basis Set: AUG-CC-PVTZ
    Blend: AUG-CC-PVTZ
  Basis Set: (AUG-CC-PVTZ AUX)
    Blend: AUG-CC-PVTZ-JKFIT

    Orbital Energies [Eh]
    ---------------------

    Doubly Occupied:

       1A    -20.636100     2A    -20.563939     3A    -20.525044
       4A    -15.592160     5A    -11.404942     6A    -11.358102
       7A    -11.296528     8A    -11.250753     9A    -11.226589
      10A    -11.221247    11A     -1.478560    12A     -1.381016
      13A     -1.373669    14A     -1.245366    15A     -1.075389
      16A     -1.036416    17A     -0.927624    18A     -0.887053
      19A     -0.817138    20A     -0.794768    21A     -0.734334
      22A     -0.714818    23A     -0.688878    24A     -0.666083
      25A     -0.637426    26A     -0.633011    27A     -0.610616
      28A     -0.598783    29A     -0.581608    30A     -0.552584
      31A     -0.545000    32A     -0.536522    33A     -0.523148
      34A     -0.515021    35A     -0.493449    36A     -0.471538
      37A     -0.467319    38A     -0.427500    39A     -0.400068

  @DF-RHF Final Energy:  -512.86308872137624

   => Energetics <=

    Nuclear Repulsion Energy =            548.1321449263907652
    One-Electron Energy =               -1788.2102481381825783
    Two-Electron Energy =                 727.2150144904155695
    Total Energy =                       -512.8630887213762435
  Basis Set: (AUG-CC-PVTZ AUX)
    Blend: AUG-CC-PVTZ-RI
    Molecular point group: c1

    Geometry (in Angstrom), charge = 0, multiplicity = 1:

       Center              X                  Y                   Z               Mass
    ------------   -----------------  -----------------  -----------------  -----------------
         O           -1.974684936550     1.660262091506     0.196474752013    15.994914619570
         O            1.652112063450    -1.199198908494    -0.666086247987    15.994914619570
         O           -3.281078936550    -0.050624908494    -0.503276247987    15.994914619570
         N            0.216240063450     0.271115091506     0.305838752013    14.003074004430
         C           -0.945476936550    -0.492006908494    -0.099287247987    12.000000000000
         C           -1.200099936550    -1.693057908494     0.814421752013    12.000000000000
         C            2.583239863450     0.853193791506     0.248817052013    12.000000000000
         C            1.466195063450    -0.142146908494    -0.055636247987    12.000000000000
         C           -2.188272936550     0.364121091506    -0.170262247987    12.000000000000
         C            3.950347063450     0.281834091506    -0.101148247987    12.000000000000
         H           -0.765700936550    -0.868987908494    -1.114013247987     1.007825032230
         H            0.078381063450     1.189759091506     0.708553752013     1.007825032230
         H           -1.367080936550    -1.356952908494     1.841061752013     1.007825032230
         H           -2.074833936550    -2.249459908494     0.470855752013     1.007825032230
         H           -0.322735936550    -2.340014908494     0.785799752013     1.007825032230
         H            2.390737063450     1.788413091506    -0.003877247987     1.007825032230
         H            2.576976063450     0.856766091506     1.472713752013     1.007825032230
         H            4.155716063450    -0.715903908494     0.292399752013     1.007825032230
         H            3.972251063450     0.217210091506    -1.190482247987     1.007825032230
         H            4.743031063450     0.960016091506     0.227929752013     1.007825032230
         H           -2.848312936550     2.097835091506     0.116545752013     1.007825032230

  Basis Set: AUG-CC-PVTZ
    Blend: AUG-CC-PVTZ
  Basis Set: (AUG-CC-PVTZ AUX)
    Blend: AUG-CC-PVTZ-JKFIT
	 Reference Energy          =    -512.8630887213762435 [Eh]
	 Singles Energy            =      -0.0000000000000000 [Eh]
	 Same-Spin Energy          =      -0.5117029955963925 [Eh]
	 Opposite-Spin Energy      =      -1.6160157253230119 [Eh]
	 Correlation Energy        =      -2.1277187209194044 [Eh]
	 Total Energy              =    -514.9908074422957043 [Eh]

	 ================> DF-SCS-MP2 Energies <==================
	-----------------------------------------------------------
	 SCS Same-Spin Scale       =       0.3333333333333333 [-]
	 SCS Opposite-Spin Scale   =       1.2000000000000000 [-]
	 SCS Same-Spin Energy      =      -0.1705676651987975 [Eh]
	 SCS Opposite-Spin Energy  =      -1.9392188703876141 [Eh]
	 SCS Correlation Energy    =      -2.1097865355864114 [Eh]
	 SCS Total Energy          =    -514.9728752569626522 [Eh]
	-----------------------------------------------------------

  Dipole Moment: [D]
     X:    -0.0312      Y:     3.3431      Z:     1.8689     Total:     3.8302

*** Psi4 exiting successfully. Buy a developer a beer!
