                               Psi4 1.4a2.dev612

  ==> Input File <==

--------------------------------------------------------------------------
#psi4
#
memory 32 gb

molecule  {
0 1
  O       -1.9756670     1.6664010     0.1857370
  O        1.6511300    -1.1930600    -0.6768240
  O       -3.2820610    -0.0444860    -0.5140140
  N        0.2152580     0.2772540     0.2951010
  C       -0.9464590    -0.4858680    -0.1100250
  C       -1.2010820    -1.6869190     0.8036840
  C        2.5941300     0.7851170     0.3678910
  C        1.4652130    -0.1360080    -0.0663740
  C       -2.1892550     0.3702600    -0.1810000
  C        3.9493650     0.2879730    -0.1118860
  H       -0.7666830    -0.8628490    -1.1247510
  H        0.0874477     1.1044717     0.8754118
  H       -1.3680630    -1.3508140     1.8303240
  H       -2.0758160    -2.2433210     0.4601180
  H       -0.3237180    -2.3338760     0.7750620
  H        2.3897550     1.7945520    -0.0146150
  H        2.5759940     0.8629050     1.4619760
  H        4.1547340    -0.7097650     0.2816620
  H        3.9712690     0.2233490    -1.2012200
  H        4.7420490     0.9661550     0.2171920
  H       -2.8492950     2.1039740     0.1058080
units angstrom
no_reorient  #important for SAPT in psi4, default
symmetry c1  #important for SAPT in psi4, default
}

set PROPERTIES_ORIGIN ["COM"]
properties('MP2/aug-cc-pvtz', properties = ['dipole'])
--------------------------------------------------------------------------

    Molecular point group: c1
  Charge       = 0
  Multiplicity = 1
  Basis Set: AUG-CC-PVTZ
    Blend: AUG-CC-PVTZ
  Basis Set: (AUG-CC-PVTZ AUX)
    Blend: AUG-CC-PVTZ-JKFIT

    Orbital Energies [Eh]
    ---------------------

    Doubly Occupied:

       1A    -20.633935     2A    -20.562784     3A    -20.524468
       4A    -15.593364     5A    -11.403428     6A    -11.356445
       7A    -11.296618     8A    -11.247522     9A    -11.227251
      10A    -11.219495    11A     -1.476583    12A     -1.380568
      13A     -1.372146    14A     -1.244665    15A     -1.074856
      16A     -1.035515    17A     -0.927206    18A     -0.885365
      19A     -0.816417    20A     -0.791997    21A     -0.729300
      22A     -0.713936    23A     -0.682159    24A     -0.662500
      25A     -0.641580    26A     -0.632944    27A     -0.609170
      28A     -0.599817    29A     -0.585867    30A     -0.546306
      31A     -0.543279    32A     -0.524455    33A     -0.520982
      34A     -0.518955    35A     -0.496517    36A     -0.487857
      37A     -0.467674    38A     -0.429008    39A     -0.399290

  @DF-RHF Final Energy:  -512.88537114187170

   => Energetics <=

    Nuclear Repulsion Energy =            548.0809116455686762
    One-Electron Energy =               -1788.2081174532495425
    Two-Electron Energy =                 727.2418346658091650
    Total Energy =                       -512.8853711418717012
  Basis Set: (AUG-CC-PVTZ AUX)
    Blend: AUG-CC-PVTZ-RI
    Molecular point group: c1

    Geometry (in Angstrom), charge = 0, multiplicity = 1:

       Center              X                  Y                   Z               Mass
    ------------   -----------------  -----------------  -----------------  -----------------
         O           -1.975736771087     1.667036088480     0.184503432747    15.994914619570
         O            1.651060228913    -1.192424911520    -0.678057567253    15.994914619570
         O           -3.282130771087    -0.043850911520    -0.515247567253    15.994914619570
         N            0.215188228913     0.277889088480     0.293867432747    14.003074004430
         C           -0.946528771087    -0.485232911520    -0.111258567253    12.000000000000
         C           -1.201151771087    -1.686283911520     0.802450432747    12.000000000000
         C            2.594060228913     0.785752088480     0.366657432747    12.000000000000
         C            1.465143228913    -0.135372911520    -0.067607567253    12.000000000000
         C           -2.189324771087     0.370895088480    -0.182233567253    12.000000000000
         C            3.949295228913     0.288608088480    -0.113119567253    12.000000000000
         H           -0.766752771087    -0.862213911520    -1.125984567253     1.007825032230
         H            0.087377928913     1.105106788480     0.874178232747     1.007825032230
         H           -1.368132771087    -1.350178911520     1.829090432747     1.007825032230
         H           -2.075885771087    -2.242685911520     0.458884432747     1.007825032230
         H           -0.323787771087    -2.333240911520     0.773828432747     1.007825032230
         H            2.389685228913     1.795187088480    -0.015848567253     1.007825032230
         H            2.575924228913     0.863540088480     1.460742432747     1.007825032230
         H            4.154664228913    -0.709129911520     0.280428432747     1.007825032230
         H            3.971199228913     0.223984088480    -1.202453567253     1.007825032230
         H            4.741979228913     0.966790088480     0.215958432747     1.007825032230
         H           -2.849364771087     2.104609088480     0.104574432747     1.007825032230

  Basis Set: AUG-CC-PVTZ
    Blend: AUG-CC-PVTZ
  Basis Set: (AUG-CC-PVTZ AUX)
    Blend: AUG-CC-PVTZ-JKFIT
	 Reference Energy          =    -512.8853711418717012 [Eh]
	 Singles Energy            =      -0.0000000000000000 [Eh]
	 Same-Spin Energy          =      -0.5113485213273430 [Eh]
	 Opposite-Spin Energy      =      -1.6149689894545094 [Eh]
	 Correlation Energy        =      -2.1263175107818526 [Eh]
	 Total Energy              =    -515.0116886526535609 [Eh]

	 ================> DF-SCS-MP2 Energies <==================
	-----------------------------------------------------------
	 SCS Same-Spin Scale       =       0.3333333333333333 [-]
	 SCS Opposite-Spin Scale   =       1.2000000000000000 [-]
	 SCS Same-Spin Energy      =      -0.1704495071091143 [Eh]
	 SCS Opposite-Spin Energy  =      -1.9379627873454113 [Eh]
	 SCS Correlation Energy    =      -2.1084122944545256 [Eh]
	 SCS Total Energy          =    -514.9937834363262255 [Eh]
	-----------------------------------------------------------

  Dipole Moment: [D]
     X:    -0.0024      Y:     3.1978      Z:     2.1764     Total:     3.8682

*** Psi4 exiting successfully. Buy a developer a beer!
