                               Psi4 1.3.2 release

  ==> Input File <==

--------------------------------------------------------------------------
#psi4
#
memory 32 gb

molecule  {
0 1
  O       -1.4697740     2.5644010     0.0803940
  N        1.9191590    -0.5831280    -0.0556370
  N       -1.9102790     0.3061000     0.0485010
  N       -0.3427170    -1.4672350    -0.0387560
  N        1.5166440     1.6409000    -0.0105650
  N       -2.6294290    -1.9169300     0.1110730
  C        0.5576980    -0.4369160    -0.0295360
  C        0.3337570     0.9396730    -0.0094060
  C       -1.0280337     1.4291586    -0.2647201
  C        2.4390620     0.6894910    -0.0699270
  C       -1.5730580    -1.0260450     0.0187980
  C        2.6353690    -1.8453210    -0.0655260
  H        3.5092610     0.8590810    -0.0866130
  H        2.3729340    -2.4304260     0.8177420
  H        2.3794720    -2.4140780    -0.9605130
  H        3.7041390    -1.6305860    -0.0592400
  H       -2.8879820     0.5691470     0.1693100
  H       -2.3258040    -2.8676930    -0.0642460
  H       -3.4596940    -1.6726380    -0.4173570
units angstrom
no_reorient  #important for SAPT in psi4, default
symmetry c1  #important for SAPT in psi4, default
}

set PROPERTIES_ORIGIN ["COM"]
properties('MP2/aug-cc-pvtz', properties = ['dipole'])
--------------------------------------------------------------------------

    Molecular point group: c1
  Charge       = 0
  Multiplicity = 1
  Basis Set: AUG-CC-PVTZ
    Blend: AUG-CC-PVTZ
  Basis Set: (AUG-CC-PVTZ AUX)
    Blend: AUG-CC-PVTZ-JKFIT

    Orbital Energies [Eh]
    ---------------------

    Doubly Occupied:

       1A    -20.527236     2A    -15.633020     3A    -15.629099
       4A    -15.609015     5A    -15.570601     6A    -15.559156
       7A    -11.393548     8A    -11.376323     9A    -11.319117
      10A    -11.308733    11A    -11.289490    12A    -11.252775
      13A     -1.381771    14A     -1.353239    15A     -1.327279
      16A     -1.216024    17A     -1.210539    18A     -1.189481
      19A     -1.026591    20A     -0.985078    21A     -0.897903
      22A     -0.876151    23A     -0.805852    24A     -0.764450
      25A     -0.738705    26A     -0.727347    27A     -0.692272
      28A     -0.669726    29A     -0.647168    30A     -0.636467
      31A     -0.624115    32A     -0.601790    33A     -0.591782
      34A     -0.577205    35A     -0.559153    36A     -0.532828
      37A     -0.493326    38A     -0.457850    39A     -0.438465
      40A     -0.429144    41A     -0.422528    42A     -0.389791
      43A     -0.295908

  @DF-RHF Final Energy:  -578.58580546274789

   => Energetics <=

    Nuclear Repulsion Energy =            691.8465737074481012
    One-Electron Energy =               -2160.8086785856794450
    Two-Electron Energy =                 890.3762994154835724
    Total Energy =                       -578.5858054627478850
  Basis Set: (AUG-CC-PVTZ AUX)
    Blend: AUG-CC-PVTZ-RI
    Molecular point group: c1

    Geometry (in Angstrom), charge = 0, multiplicity = 1:

       Center              X                  Y                   Z               Mass
    ------------   -----------------  -----------------  -----------------  -----------------
         O           -1.469347232485     2.564005175702     0.102195932777    15.994914619570
         N            1.919585767515    -0.583523824298    -0.033835067223    14.003074004430
         N           -1.909852232485     0.305704175702     0.070302932777    14.003074004430
         N           -0.342290232485    -1.467630824298    -0.016954067223    14.003074004430
         N            1.517070767515     1.640504175702     0.011236932777    14.003074004430
         N           -2.629002232485    -1.917325824298     0.132874932777    14.003074004430
         C            0.558124767515    -0.437311824298    -0.007734067223    12.000000000000
         C            0.334183767515     0.939277175702     0.012395932777    12.000000000000
         C           -1.027606932485     1.428762775702    -0.242918167223    12.000000000000
         C            2.439488767515     0.689095175702    -0.048125067223    12.000000000000
         C           -1.572631232485    -1.026440824298     0.040599932777    12.000000000000
         C            2.635795767515    -1.845716824298    -0.043724067223    12.000000000000
         H            3.509687767515     0.858685175702    -0.064811067223     1.007825032230
         H            2.373360767515    -2.430821824298     0.839543932777     1.007825032230
         H            2.379898767515    -2.414473824298    -0.938711067223     1.007825032230
         H            3.704565767515    -1.630981824298    -0.037438067223     1.007825032230
         H           -2.887555232485     0.568751175702     0.191111932777     1.007825032230
         H           -2.325377232485    -2.868088824298    -0.042444067223     1.007825032230
         H           -3.459267232485    -1.673033824298    -0.395555067223     1.007825032230

  Basis Set: AUG-CC-PVTZ
    Blend: AUG-CC-PVTZ
  Basis Set: (AUG-CC-PVTZ AUX)
    Blend: AUG-CC-PVTZ-JKFIT
	 Reference Energy          =    -578.5858054627478850 [Eh]
	 Singles Energy            =      -0.0000000000000000 [Eh]
	 Same-Spin Energy          =      -0.6190960423094662 [Eh]
	 Opposite-Spin Energy      =      -1.8268624878994131 [Eh]
	 Correlation Energy        =      -2.4459585302088795 [Eh]
	 Total Energy              =    -581.0317639929567122 [Eh]

	 ================> DF-SCS-MP2 Energies <==================
	-----------------------------------------------------------
	 SCS Same-Spin Scale       =       0.3333333333333333 [-]
	 SCS Opposite-Spin Scale   =       1.2000000000000000 [-]
	 SCS Same-Spin Energy      =      -0.2063653474364887 [Eh]
	 SCS Opposite-Spin Energy  =      -2.1922349854792955 [Eh]
	 SCS Correlation Energy    =      -2.3986003329157843 [Eh]
	 SCS Total Energy          =    -580.9844057956636334 [Eh]
	-----------------------------------------------------------

  Dipole Moment: [D]
     X:     0.0608      Y:    -6.6942      Z:    -1.2247     Total:     6.8056

*** Psi4 exiting successfully. Buy a developer a beer!
