                               Psi4 1.3.2 release

  ==> Input File <==

--------------------------------------------------------------------------
#psi4
#
memory 32 gb

molecule  {
0 1
  O       -1.4697740     2.5644010     0.0803940
  N        1.9191590    -0.5831280    -0.0556370
  N       -1.9102790     0.3061000     0.0485010
  N       -0.3427170    -1.4672350    -0.0387560
  N        1.5166440     1.6409000    -0.0105650
  N       -2.6294290    -1.9169300     0.1110730
  C        0.5576980    -0.4369160    -0.0295360
  C        0.3337570     0.9396730    -0.0094060
  C       -1.0221650     1.4237120     0.0351730
  C        2.4390620     0.6894910    -0.0699270
  C       -1.5730580    -1.0260450     0.0187980
  C        2.6314649    -1.8459705    -0.2654868
  H        3.5092610     0.8590810    -0.0866130
  H        2.3729340    -2.4304260     0.8177420
  H        2.3794720    -2.4140780    -0.9605130
  H        3.7041390    -1.6305860    -0.0592400
  H       -2.8879820     0.5691470     0.1693100
  H       -2.3258040    -2.8676930    -0.0642460
  H       -3.4596940    -1.6726380    -0.4173570
units angstrom
no_reorient  #important for SAPT in psi4, default
symmetry c1  #important for SAPT in psi4, default
}

set PROPERTIES_ORIGIN ["COM"]
properties('MP2/aug-cc-pvtz', properties = ['dipole'])
--------------------------------------------------------------------------

    Molecular point group: c1
  Charge       = 0
  Multiplicity = 1
  Basis Set: AUG-CC-PVTZ
    Blend: AUG-CC-PVTZ
  Basis Set: (AUG-CC-PVTZ AUX)
    Blend: AUG-CC-PVTZ-JKFIT

    Orbital Energies [Eh]
    ---------------------

    Doubly Occupied:

       1A    -20.521211     2A    -15.634983     3A    -15.629573
       4A    -15.610812     5A    -15.571028     6A    -15.560412
       7A    -11.396253     8A    -11.364594     9A    -11.319437
      10A    -11.307705    11A    -11.295142    12A    -11.247499
      13A     -1.390933    14A     -1.360607    15A     -1.334173
      16A     -1.219229    17A     -1.216427    18A     -1.189911
      19A     -1.029803    20A     -0.991248    21A     -0.902857
      22A     -0.882489    23A     -0.808843    24A     -0.772877
      25A     -0.742961    26A     -0.729873    27A     -0.697844
      28A     -0.680023    29A     -0.656284    30A     -0.637080
      31A     -0.631011    32A     -0.610684    33A     -0.595765
      34A     -0.578254    35A     -0.548131    36A     -0.525322
      37A     -0.491428    38A     -0.459440    39A     -0.440323
      40A     -0.429562    41A     -0.429068    42A     -0.390826
      43A     -0.298816

  @DF-RHF Final Energy:  -578.58535302818632

   => Energetics <=

    Nuclear Repulsion Energy =            693.2503028828731431
    One-Electron Energy =               -2163.4098280103116849
    Two-Electron Energy =                 891.5741720992521095
    Total Energy =                       -578.5853530281863186
  Basis Set: (AUG-CC-PVTZ AUX)
    Blend: AUG-CC-PVTZ-RI
    Molecular point group: c1

    Geometry (in Angstrom), charge = 0, multiplicity = 1:

       Center              X                  Y                   Z               Mass
    ------------   -----------------  -----------------  -----------------  -----------------
         O           -1.469490056169     2.564448353683     0.094930993723    15.994914619570
         N            1.919442943831    -0.583080646317    -0.041100006277    14.003074004430
         N           -1.909995056169     0.306147353683     0.063037993723    14.003074004430
         N           -0.342433056169    -1.467187646317    -0.024219006277    14.003074004430
         N            1.516927943831     1.640947353683     0.003971993723    14.003074004430
         N           -2.629145056169    -1.916882646317     0.125609993723    14.003074004430
         C            0.557981943831    -0.436868646317    -0.014999006277    12.000000000000
         C            0.334040943831     0.939720353683     0.005130993723    12.000000000000
         C           -1.021881056169     1.423759353683     0.049709993723    12.000000000000
         C            2.439345943831     0.689538353683    -0.055390006277    12.000000000000
         C           -1.572774056169    -1.025997646317     0.033334993723    12.000000000000
         C            2.631748843831    -1.845923146317    -0.250949806277    12.000000000000
         H            3.509544943831     0.859128353683    -0.072076006277     1.007825032230
         H            2.373217943831    -2.430378646317     0.832278993723     1.007825032230
         H            2.379755943831    -2.414030646317    -0.945976006277     1.007825032230
         H            3.704422943831    -1.630538646317    -0.044703006277     1.007825032230
         H           -2.887698056169     0.569194353683     0.183846993723     1.007825032230
         H           -2.325520056169    -2.867645646317    -0.049709006277     1.007825032230
         H           -3.459410056169    -1.672590646317    -0.402820006277     1.007825032230

  Basis Set: AUG-CC-PVTZ
    Blend: AUG-CC-PVTZ
  Basis Set: (AUG-CC-PVTZ AUX)
    Blend: AUG-CC-PVTZ-JKFIT
	 Reference Energy          =    -578.5853530281863186 [Eh]
	 Singles Energy            =      -0.0000000000000000 [Eh]
	 Same-Spin Energy          =      -0.6166643042645235 [Eh]
	 Opposite-Spin Energy      =      -1.8217608198996345 [Eh]
	 Correlation Energy        =      -2.4384251241641577 [Eh]
	 Total Energy              =    -581.0237781523504736 [Eh]

	 ================> DF-SCS-MP2 Energies <==================
	-----------------------------------------------------------
	 SCS Same-Spin Scale       =       0.3333333333333333 [-]
	 SCS Opposite-Spin Scale   =       1.2000000000000000 [-]
	 SCS Same-Spin Energy      =      -0.2055547680881745 [Eh]
	 SCS Opposite-Spin Energy  =      -2.1861129838795614 [Eh]
	 SCS Correlation Energy    =      -2.3916677519677361 [Eh]
	 SCS Total Energy          =    -580.9770207801540209 [Eh]
	-----------------------------------------------------------

  Dipole Moment: [D]
     X:    -0.0462      Y:    -6.7213      Z:    -1.1211     Total:     6.8143

*** Psi4 exiting successfully. Buy a developer a beer!
