                               Psi4 1.3.2 release

  ==> Input File <==

--------------------------------------------------------------------------
#psi4
#
memory 32 gb

molecule  {
0 1
  O       -1.4697740     2.5644010     0.0803940
  N        1.9191590    -0.5831280    -0.0556370
  N       -1.9102790     0.3061000     0.0485010
  N       -0.3427170    -1.4672350    -0.0387560
  N        1.5166440     1.6409000    -0.0105650
  N       -2.6390183    -1.9180412    -0.0386160
  C        0.5576980    -0.4369160    -0.0295360
  C        0.3337570     0.9396730    -0.0094060
  C       -1.0221650     1.4237120     0.0351730
  C        2.4390620     0.6894910    -0.0699270
  C       -1.5730580    -1.0260450     0.0187980
  C        2.6353690    -1.8453210    -0.0655260
  H        3.5092610     0.8590810    -0.0866130
  H        2.3729340    -2.4304260     0.8177420
  H        2.3794720    -2.4140780    -0.9605130
  H        3.7041390    -1.6305860    -0.0592400
  H       -2.8879820     0.5691470     0.1693100
  H       -2.3258040    -2.8676930    -0.0642460
  H       -3.4596940    -1.6726380    -0.4173570
units angstrom
no_reorient  #important for SAPT in psi4, default
symmetry c1  #important for SAPT in psi4, default
}

set PROPERTIES_ORIGIN ["COM"]
properties('MP2/aug-cc-pvtz', properties = ['dipole'])
--------------------------------------------------------------------------

    Molecular point group: c1
  Charge       = 0
  Multiplicity = 1
  Basis Set: AUG-CC-PVTZ
    Blend: AUG-CC-PVTZ
  Basis Set: (AUG-CC-PVTZ AUX)
    Blend: AUG-CC-PVTZ-JKFIT

    Orbital Energies [Eh]
    ---------------------

    Doubly Occupied:

       1A    -20.520408     2A    -15.632117     3A    -15.628814
       4A    -15.601333     5A    -15.569331     6A    -15.558900
       7A    -11.398344     8A    -11.363737     9A    -11.318910
      10A    -11.306441    11A    -11.288870    12A    -11.245823
      13A     -1.390085    14A     -1.359923    15A     -1.333591
      16A     -1.223858    17A     -1.216001    18A     -1.190028
      19A     -1.030515    20A     -0.985894    21A     -0.901151
      22A     -0.885892    23A     -0.814827    24A     -0.770471
      25A     -0.743876    26A     -0.732949    27A     -0.708780
      28A     -0.670908    29A     -0.650063    30A     -0.639877
      31A     -0.629096    32A     -0.609945    33A     -0.593088
      34A     -0.578014    35A     -0.560140    36A     -0.540792
      37A     -0.493050    38A     -0.452270    39A     -0.439319
      40A     -0.428954    41A     -0.428231    42A     -0.392044
      43A     -0.296785

  @DF-RHF Final Energy:  -578.62600994768138

   => Energetics <=

    Nuclear Repulsion Energy =            693.6191980883926362
    One-Electron Energy =               -2164.2435322188102873
    Two-Electron Energy =                 891.9983241827361553
    Total Energy =                       -578.6260099476813821
  Basis Set: (AUG-CC-PVTZ AUX)
    Blend: AUG-CC-PVTZ-RI
    Molecular point group: c1

    Geometry (in Angstrom), charge = 0, multiplicity = 1:

       Center              X                  Y                   Z               Mass
    ------------   -----------------  -----------------  -----------------  -----------------
         O           -1.468960383338     2.564495403106     0.093092788499    15.994914619570
         N            1.919972616662    -0.583033596894    -0.042938211501    14.003074004430
         N           -1.909465383338     0.306194403106     0.061199788499    14.003074004430
         N           -0.341903383338    -1.467140596894    -0.026057211501    14.003074004430
         N            1.517457616662     1.640994403106     0.002133788499    14.003074004430
         N           -2.638204683338    -1.917946796894    -0.025917211501    14.003074004430
         C            0.558511616662    -0.436821596894    -0.016837211501    12.000000000000
         C            0.334570616662     0.939767403106     0.003292788499    12.000000000000
         C           -1.021351383338     1.423806403106     0.047871788499    12.000000000000
         C            2.439875616662     0.689585403106    -0.057228211501    12.000000000000
         C           -1.572244383338    -1.025950596894     0.031496788499    12.000000000000
         C            2.636182616662    -1.845226596894    -0.052827211501    12.000000000000
         H            3.510074616662     0.859175403106    -0.073914211501     1.007825032230
         H            2.373747616662    -2.430331596894     0.830440788499     1.007825032230
         H            2.380285616662    -2.413983596894    -0.947814211501     1.007825032230
         H            3.704952616662    -1.630491596894    -0.046541211501     1.007825032230
         H           -2.887168383338     0.569241403106     0.182008788499     1.007825032230
         H           -2.324990383338    -2.867598596894    -0.051547211501     1.007825032230
         H           -3.458880383338    -1.672543596894    -0.404658211501     1.007825032230

  Basis Set: AUG-CC-PVTZ
    Blend: AUG-CC-PVTZ
  Basis Set: (AUG-CC-PVTZ AUX)
    Blend: AUG-CC-PVTZ-JKFIT
	 Reference Energy          =    -578.6260099476813821 [Eh]
	 Singles Energy            =      -0.0000000000000000 [Eh]
	 Same-Spin Energy          =      -0.6156528354321800 [Eh]
	 Opposite-Spin Energy      =      -1.8184022701348788 [Eh]
	 Correlation Energy        =      -2.4340551055670590 [Eh]
	 Total Energy              =    -581.0600650532484224 [Eh]

	 ================> DF-SCS-MP2 Energies <==================
	-----------------------------------------------------------
	 SCS Same-Spin Scale       =       0.3333333333333333 [-]
	 SCS Opposite-Spin Scale   =       1.2000000000000000 [-]
	 SCS Same-Spin Energy      =      -0.2052176118107266 [Eh]
	 SCS Opposite-Spin Energy  =      -2.1820827241618543 [Eh]
	 SCS Correlation Energy    =      -2.3873003359725811 [Eh]
	 SCS Total Energy          =    -581.0133102836539365 [Eh]
	-----------------------------------------------------------

  Dipole Moment: [D]
     X:    -0.1725      Y:    -6.8569      Z:    -0.6057     Total:     6.8858

*** Psi4 exiting successfully. Buy a developer a beer!
