                               Psi4 1.3.2 release

  ==> Input File <==

--------------------------------------------------------------------------
#psi4
#
memory 32 gb

molecule  {
0 1
  O       -1.4697740     2.5644010     0.0803940
  N        1.9191590    -0.5831280    -0.0556370
  N       -1.9102790     0.3061000     0.0485010
  N       -0.3427170    -1.4672350    -0.0387560
  N        1.5166440     1.6409000    -0.0105650
  N       -2.6294290    -1.9169300     0.1110730
  C        0.5576980    -0.4369160    -0.0295360
  C        0.3337570     0.9396730    -0.0094060
  C       -1.0221650     1.4237120     0.0351730
  C        2.4390620     0.6894910    -0.0699270
  C       -1.5730580    -1.0260450     0.0187980
  C        2.6353690    -1.8453210    -0.0655260
  H        3.5092610     0.8590810    -0.0866130
  H        2.3729340    -2.4304260     0.8177420
  H        2.3794720    -2.4140780    -0.9605130
  H        3.7041390    -1.6305860    -0.0592400
  H       -2.9087927     0.5754916    -0.0797415
  H       -2.3258040    -2.8676930    -0.0642460
  H       -3.4596940    -1.6726380    -0.4173570
units angstrom
no_reorient  #important for SAPT in psi4, default
symmetry c1  #important for SAPT in psi4, default
}

set PROPERTIES_ORIGIN ["COM"]
properties('MP2/aug-cc-pvtz', properties = ['dipole'])
--------------------------------------------------------------------------

    Molecular point group: c1
  Charge       = 0
  Multiplicity = 1
  Basis Set: AUG-CC-PVTZ
    Blend: AUG-CC-PVTZ
  Basis Set: (AUG-CC-PVTZ AUX)
    Blend: AUG-CC-PVTZ-JKFIT

    Orbital Energies [Eh]
    ---------------------

    Doubly Occupied:

       1A    -20.520809     2A    -15.632892     3A    -15.630904
       4A    -15.610743     5A    -15.570933     6A    -15.559586
       7A    -11.395897     8A    -11.364122     9A    -11.319125
      10A    -11.307245    11A    -11.289379    12A    -11.246932
      13A     -1.390160    14A     -1.360488    15A     -1.333670
      16A     -1.218423    17A     -1.215476    18A     -1.190109
      19A     -1.029308    20A     -0.986331    21A     -0.900828
      22A     -0.881180    23A     -0.807415    24A     -0.766178
      25A     -0.738878    26A     -0.727718    27A     -0.691061
      28A     -0.671955    29A     -0.649616    30A     -0.645983
      31A     -0.621505    32A     -0.610340    33A     -0.593132
      34A     -0.578417    35A     -0.560566    36A     -0.541874
      37A     -0.493966    38A     -0.458947    39A     -0.439848
      40A     -0.431350    41A     -0.426306    42A     -0.392735
      43A     -0.298358

  @DF-RHF Final Energy:  -578.62790150020612

   => Energetics <=

    Nuclear Repulsion Energy =            693.3158572565362192
    One-Electron Energy =               -2163.6861396270483056
    Two-Electron Energy =                 891.7423808703059649
    Total Energy =                       -578.6279015002061215
  Basis Set: (AUG-CC-PVTZ AUX)
    Blend: AUG-CC-PVTZ-RI
    Molecular point group: c1

    Geometry (in Angstrom), charge = 0, multiplicity = 1:

       Center              X                  Y                   Z               Mass
    ------------   -----------------  -----------------  -----------------  -----------------
         O           -1.469646816513     2.564362398201     0.081914736583    15.994914619570
         N            1.919286183487    -0.583166601799    -0.054116263417    14.003074004430
         N           -1.910151816513     0.306061398201     0.050021736583    14.003074004430
         N           -0.342589816513    -1.467273601799    -0.037235263417    14.003074004430
         N            1.516771183487     1.640861398201    -0.009044263417    14.003074004430
         N           -2.629301816513    -1.916968601799     0.112593736583    14.003074004430
         C            0.557825183487    -0.436954601799    -0.028015263417    12.000000000000
         C            0.333884183487     0.939634398201    -0.007885263417    12.000000000000
         C           -1.022037816513     1.423673398201     0.036693736583    12.000000000000
         C            2.439189183487     0.689452398201    -0.068406263417    12.000000000000
         C           -1.572930816513    -1.026083601799     0.020318736583    12.000000000000
         C            2.635496183487    -1.845359601799    -0.064005263417    12.000000000000
         H            3.509388183487     0.859042398201    -0.085092263417     1.007825032230
         H            2.373061183487    -2.430464601799     0.819262736583     1.007825032230
         H            2.379599183487    -2.414116601799    -0.958992263417     1.007825032230
         H            3.704266183487    -1.630624601799    -0.057719263417     1.007825032230
         H           -2.908665516513     0.575452998201    -0.078220763417     1.007825032230
         H           -2.325676816513    -2.867731601799    -0.062725263417     1.007825032230
         H           -3.459566816513    -1.672676601799    -0.415836263417     1.007825032230

  Basis Set: AUG-CC-PVTZ
    Blend: AUG-CC-PVTZ
  Basis Set: (AUG-CC-PVTZ AUX)
    Blend: AUG-CC-PVTZ-JKFIT
	 Reference Energy          =    -578.6279015002061215 [Eh]
	 Singles Energy            =      -0.0000000000000000 [Eh]
	 Same-Spin Energy          =      -0.6162724177174048 [Eh]
	 Opposite-Spin Energy      =      -1.8202983567587792 [Eh]
	 Correlation Energy        =      -2.4365707744761842 [Eh]
	 Total Energy              =    -581.0644722746823163 [Eh]

	 ================> DF-SCS-MP2 Energies <==================
	-----------------------------------------------------------
	 SCS Same-Spin Scale       =       0.3333333333333333 [-]
	 SCS Opposite-Spin Scale   =       1.2000000000000000 [-]
	 SCS Same-Spin Energy      =      -0.2054241392391349 [Eh]
	 SCS Opposite-Spin Energy  =      -2.1843580281105348 [Eh]
	 SCS Correlation Energy    =      -2.3897821673496695 [Eh]
	 SCS Total Energy          =    -581.0176836675558434 [Eh]
	-----------------------------------------------------------

  Dipole Moment: [D]
     X:    -0.0244      Y:    -6.7851      Z:    -1.2581     Total:     6.9007

*** Psi4 exiting successfully. Buy a developer a beer!
