                               Psi4 1.3.2 release

  ==> Input File <==

--------------------------------------------------------------------------
#psi4
#
memory 32 gb

molecule  {
0 1
  O       -1.4697740     2.5644010     0.0803940
  N        1.9191590    -0.5831280    -0.0556370
  N       -1.9102790     0.3061000     0.0485010
  N       -0.3427170    -1.4672350    -0.0387560
  N        1.5166440     1.6409000    -0.0105650
  N       -2.6294290    -1.9169300     0.1110730
  C        0.5576980    -0.4369160    -0.0295360
  C        0.3330702     0.9404756    -0.0593948
  C       -1.0221650     1.4237120     0.0351730
  C        2.4390620     0.6894910    -0.0699270
  C       -1.5730580    -1.0260450     0.0187980
  C        2.6353690    -1.8453210    -0.0655260
  H        3.5092610     0.8590810    -0.0866130
  H        2.3729340    -2.4304260     0.8177420
  H        2.3794720    -2.4140780    -0.9605130
  H        3.7041390    -1.6305860    -0.0592400
  H       -2.8879820     0.5691470     0.1693100
  H       -2.3258040    -2.8676930    -0.0642460
  H       -3.4596940    -1.6726380    -0.4173570
units angstrom
no_reorient  #important for SAPT in psi4, default
symmetry c1  #important for SAPT in psi4, default
}

set PROPERTIES_ORIGIN ["COM"]
properties('MP2/aug-cc-pvtz', properties = ['dipole'])
--------------------------------------------------------------------------

    Molecular point group: c1
  Charge       = 0
  Multiplicity = 1
  Basis Set: AUG-CC-PVTZ
    Blend: AUG-CC-PVTZ
  Basis Set: (AUG-CC-PVTZ AUX)
    Blend: AUG-CC-PVTZ-JKFIT

    Orbital Energies [Eh]
    ---------------------

    Doubly Occupied:

       1A    -20.520936     2A    -15.632898     3A    -15.629310
       4A    -15.610772     5A    -15.570887     6A    -15.559629
       7A    -11.396125     8A    -11.364363     9A    -11.319329
      10A    -11.307280    11A    -11.289391    12A    -11.247134
      13A     -1.390636    14A     -1.360535    15A     -1.334018
      16A     -1.219092    17A     -1.216178    18A     -1.190541
      19A     -1.029188    20A     -0.986372    21A     -0.901412
      22A     -0.882179    23A     -0.807826    24A     -0.766490
      25A     -0.741122    26A     -0.729200    27A     -0.692091
      28A     -0.671337    29A     -0.649506    30A     -0.642455
      31A     -0.626142    32A     -0.610402    33A     -0.593458
      34A     -0.578558    35A     -0.560820    36A     -0.541711
      37A     -0.493696    38A     -0.459242    39A     -0.440095
      40A     -0.429967    41A     -0.427844    42A     -0.392576
      43A     -0.298383

  @DF-RHF Final Energy:  -578.62982268260737

   => Energetics <=

    Nuclear Repulsion Energy =            693.3930997268131478
    One-Electron Energy =               -2163.8235901707112134
    Two-Electron Energy =                 891.8006677612908106
    Total Energy =                       -578.6298226826073687
  Basis Set: (AUG-CC-PVTZ AUX)
    Blend: AUG-CC-PVTZ-RI
    Molecular point group: c1

    Geometry (in Angstrom), charge = 0, multiplicity = 1:

       Center              X                  Y                   Z               Mass
    ------------   -----------------  -----------------  -----------------  -----------------
         O           -1.469723949399     2.564342788035     0.084028238158    15.994914619570
         N            1.919209050601    -0.583186211965    -0.052002761842    14.003074004430
         N           -1.910228949399     0.306041788035     0.052135238158    14.003074004430
         N           -0.342666949399    -1.467293211965    -0.035121761842    14.003074004430
         N            1.516694050601     1.640841788035    -0.006930761842    14.003074004430
         N           -2.629378949399    -1.916988211965     0.114707238158    14.003074004430
         C            0.557748050601    -0.436974211965    -0.025901761842    12.000000000000
         C            0.333120250601     0.940417388035    -0.055760561842    12.000000000000
         C           -1.022114949399     1.423653788035     0.038807238158    12.000000000000
         C            2.439112050601     0.689432788035    -0.066292761842    12.000000000000
         C           -1.573007949399    -1.026103211965     0.022432238158    12.000000000000
         C            2.635419050601    -1.845379211965    -0.061891761842    12.000000000000
         H            3.509311050601     0.859022788035    -0.082978761842     1.007825032230
         H            2.372984050601    -2.430484211965     0.821376238158     1.007825032230
         H            2.379522050601    -2.414136211965    -0.956878761842     1.007825032230
         H            3.704189050601    -1.630644211965    -0.055605761842     1.007825032230
         H           -2.887931949399     0.569088788035     0.172944238158     1.007825032230
         H           -2.325753949399    -2.867751211965    -0.060611761842     1.007825032230
         H           -3.459643949399    -1.672696211965    -0.413722761842     1.007825032230

  Basis Set: AUG-CC-PVTZ
    Blend: AUG-CC-PVTZ
  Basis Set: (AUG-CC-PVTZ AUX)
    Blend: AUG-CC-PVTZ-JKFIT
	 Reference Energy          =    -578.6298226826073687 [Eh]
	 Singles Energy            =      -0.0000000000000000 [Eh]
	 Same-Spin Energy          =      -0.6160926918489840 [Eh]
	 Opposite-Spin Energy      =      -1.8197743509851991 [Eh]
	 Correlation Energy        =      -2.4358670428341833 [Eh]
	 Total Energy              =    -581.0656897254415298 [Eh]

	 ================> DF-SCS-MP2 Energies <==================
	-----------------------------------------------------------
	 SCS Same-Spin Scale       =       0.3333333333333333 [-]
	 SCS Opposite-Spin Scale   =       1.2000000000000000 [-]
	 SCS Same-Spin Energy      =      -0.2053642306163280 [Eh]
	 SCS Opposite-Spin Energy  =      -2.1837292211822388 [Eh]
	 SCS Correlation Energy    =      -2.3890934517985669 [Eh]
	 SCS Total Energy          =    -581.0189161344059130 [Eh]
	-----------------------------------------------------------

  Dipole Moment: [D]
     X:    -0.0154      Y:    -6.7920      Z:    -0.9392     Total:     6.8566

*** Psi4 exiting successfully. Buy a developer a beer!
