                               Psi4 1.3.2 release

  ==> Input File <==

--------------------------------------------------------------------------
#psi4
#
memory 32 gb

molecule  {
0 1
  O       -1.4697740     2.5644010     0.0803940
  N        1.9191590    -0.5831280    -0.0556370
  N       -1.9102790     0.3061000     0.0485010
  N       -0.3427170    -1.4672350    -0.0387560
  N        1.5166440     1.6409000    -0.0105650
  N       -2.6294290    -1.9169300     0.1110730
  C        0.5576980    -0.4369160    -0.0295360
  C        0.3337570     0.9396730    -0.0094060
  C       -1.0221650     1.4237120     0.0351730
  C        2.4390620     0.6894910    -0.0699270
  C       -1.5730580    -1.0260450     0.0187980
  C        2.6353690    -1.8453210    -0.0655260
  H        3.4995103     0.8633922    -0.3864235
  H        2.3729340    -2.4304260     0.8177420
  H        2.3794720    -2.4140780    -0.9605130
  H        3.7041390    -1.6305860    -0.0592400
  H       -2.8879820     0.5691470     0.1693100
  H       -2.3258040    -2.8676930    -0.0642460
  H       -3.4596940    -1.6726380    -0.4173570
units angstrom
no_reorient  #important for SAPT in psi4, default
symmetry c1  #important for SAPT in psi4, default
}

set PROPERTIES_ORIGIN ["COM"]
properties('MP2/aug-cc-pvtz', properties = ['dipole'])
--------------------------------------------------------------------------

    Molecular point group: c1
  Charge       = 0
  Multiplicity = 1
  Basis Set: AUG-CC-PVTZ
    Blend: AUG-CC-PVTZ
  Basis Set: (AUG-CC-PVTZ AUX)
    Blend: AUG-CC-PVTZ-JKFIT

    Orbital Energies [Eh]
    ---------------------

    Doubly Occupied:

       1A    -20.521409     2A    -15.632609     3A    -15.629679
       4A    -15.611091     5A    -15.571183     6A    -15.560443
       7A    -11.396509     8A    -11.364748     9A    -11.319740
      10A    -11.309979    11A    -11.289001    12A    -11.247640
      13A     -1.391090    14A     -1.360780    15A     -1.334346
      16A     -1.219466    17A     -1.216588    18A     -1.190921
      19A     -1.028991    20A     -0.986319    21A     -0.900135
      22A     -0.882265    23A     -0.805657    24A     -0.767057
      25A     -0.741411    26A     -0.727435    27A     -0.691455
      28A     -0.673127    29A     -0.649524    30A     -0.639045
      31A     -0.627057    32A     -0.610815    33A     -0.589729
      34A     -0.577794    35A     -0.560040    36A     -0.541436
      37A     -0.494216    38A     -0.458856    39A     -0.440742
      40A     -0.430081    41A     -0.428150    42A     -0.392849
      43A     -0.298472

  @DF-RHF Final Energy:  -578.62522525209738

   => Energetics <=

    Nuclear Repulsion Energy =            693.2987606127629761
    One-Electron Energy =               -2163.6282132771343640
    Two-Electron Energy =                 891.7042274122738945
    Total Energy =                       -578.6252252520973798
  Basis Set: (AUG-CC-PVTZ AUX)
    Blend: AUG-CC-PVTZ-RI
    Molecular point group: c1

    Geometry (in Angstrom), charge = 0, multiplicity = 1:

       Center              X                  Y                   Z               Mass
    ------------   -----------------  -----------------  -----------------  -----------------
         O           -1.469714344704     2.564374813375     0.082224651903    15.994914619570
         N            1.919218655296    -0.583154186625    -0.053806348097    14.003074004430
         N           -1.910219344704     0.306073813375     0.050331651903    14.003074004430
         N           -0.342657344704    -1.467261186625    -0.036925348097    14.003074004430
         N            1.516703655296     1.640873813375    -0.008734348097    14.003074004430
         N           -2.629369344704    -1.916956186625     0.112903651903    14.003074004430
         C            0.557757655296    -0.436942186625    -0.027705348097    12.000000000000
         C            0.333816655296     0.939646813375    -0.007575348097    12.000000000000
         C           -1.022105344704     1.423685813375     0.037003651903    12.000000000000
         C            2.439121655296     0.689464813375    -0.068096348097    12.000000000000
         C           -1.572998344704    -1.026071186625     0.020628651903    12.000000000000
         C            2.635428655296    -1.845347186625    -0.063695348097    12.000000000000
         H            3.499569955296     0.863366013375    -0.384592848097     1.007825032230
         H            2.372993655296    -2.430452186625     0.819572651903     1.007825032230
         H            2.379531655296    -2.414104186625    -0.958682348097     1.007825032230
         H            3.704198655296    -1.630612186625    -0.057409348097     1.007825032230
         H           -2.887922344704     0.569120813375     0.171140651903     1.007825032230
         H           -2.325744344704    -2.867719186625    -0.062415348097     1.007825032230
         H           -3.459634344704    -1.672664186625    -0.415526348097     1.007825032230

  Basis Set: AUG-CC-PVTZ
    Blend: AUG-CC-PVTZ
  Basis Set: (AUG-CC-PVTZ AUX)
    Blend: AUG-CC-PVTZ-JKFIT
	 Reference Energy          =    -578.6252252520973798 [Eh]
	 Singles Energy            =      -0.0000000000000000 [Eh]
	 Same-Spin Energy          =      -0.6164418737938550 [Eh]
	 Opposite-Spin Energy      =      -1.8205620629317938 [Eh]
	 Correlation Energy        =      -2.4370039367256489 [Eh]
	 Total Energy              =    -581.0622291888230393 [Eh]

	 ================> DF-SCS-MP2 Energies <==================
	-----------------------------------------------------------
	 SCS Same-Spin Scale       =       0.3333333333333333 [-]
	 SCS Opposite-Spin Scale   =       1.2000000000000000 [-]
	 SCS Same-Spin Energy      =      -0.2054806245979516 [Eh]
	 SCS Opposite-Spin Energy  =      -2.1846744755181526 [Eh]
	 SCS Correlation Energy    =      -2.3901551001161043 [Eh]
	 SCS Total Energy          =    -581.0153803522134695 [Eh]
	-----------------------------------------------------------

  Dipole Moment: [D]
     X:    -0.1065      Y:    -6.7883      Z:    -1.1412     Total:     6.8844

*** Psi4 exiting successfully. Buy a developer a beer!
