                               Psi4 1.3.2 release

  ==> Input File <==

--------------------------------------------------------------------------
#psi4
#
memory 32 gb

molecule  {
0 1
  O       -1.4697740     2.5644010     0.0803940
  N        1.9191590    -0.5831280    -0.0556370
  N       -1.9102790     0.3061000     0.0485010
  N       -0.3427170    -1.4672350    -0.0387560
  N        1.5166440     1.6409000    -0.0105650
  N       -2.6294290    -1.9169300     0.1110730
  C        0.5576980    -0.4369160    -0.0295360
  C        0.3337570     0.9396730    -0.0094060
  C       -1.0221650     1.4237120     0.0351730
  C        2.4390620     0.6894910    -0.0699270
  C       -1.5730580    -1.0260450     0.0187980
  C        2.6353690    -1.8453210    -0.0655260
  H        3.5027605     0.8619551    -0.2864867
  H        2.3729340    -2.4304260     0.8177420
  H        2.3794720    -2.4140780    -0.9605130
  H        3.7041390    -1.6305860    -0.0592400
  H       -2.8879820     0.5691470     0.1693100
  H       -2.3258040    -2.8676930    -0.0642460
  H       -3.4596940    -1.6726380    -0.4173570
units angstrom
no_reorient  #important for SAPT in psi4, default
symmetry c1  #important for SAPT in psi4, default
}

set PROPERTIES_ORIGIN ["COM"]
properties('MP2/aug-cc-pvtz', properties = ['dipole'])
--------------------------------------------------------------------------

    Molecular point group: c1
  Charge       = 0
  Multiplicity = 1
  Basis Set: AUG-CC-PVTZ
    Blend: AUG-CC-PVTZ
  Basis Set: (AUG-CC-PVTZ AUX)
    Blend: AUG-CC-PVTZ-JKFIT

    Orbital Energies [Eh]
    ---------------------

    Doubly Occupied:

       1A    -20.521082     2A    -15.632725     3A    -15.629444
       4A    -15.610856     5A    -15.570989     6A    -15.559890
       7A    -11.396220     8A    -11.364448     9A    -11.319366
      10A    -11.308502    11A    -11.289208    12A    -11.247231
      13A     -1.390830    14A     -1.360641    15A     -1.334134
      16A     -1.219229    17A     -1.216347    18A     -1.190745
      19A     -1.029197    20A     -0.986392    21A     -0.900936
      22A     -0.882201    23A     -0.806909    24A     -0.766887
      25A     -0.741268    26A     -0.728480    27A     -0.691757
      28A     -0.672476    29A     -0.649544    30A     -0.640358
      31A     -0.626861    32A     -0.610594    33A     -0.592106
      34A     -0.578143    35A     -0.560862    36A     -0.541474
      37A     -0.493956    38A     -0.458937    39A     -0.440351
      40A     -0.429712    41A     -0.428313    42A     -0.392778
      43A     -0.298349

  @DF-RHF Final Energy:  -578.62849524529042

   => Energetics <=

    Nuclear Repulsion Energy =            693.3848922990863457
    One-Electron Energy =               -2163.8053126793824958
    Two-Electron Energy =                 891.7919251350056129
    Total Energy =                       -578.6284952452904236
  Basis Set: (AUG-CC-PVTZ AUX)
    Blend: AUG-CC-PVTZ-RI
    Molecular point group: c1

    Geometry (in Angstrom), charge = 0, multiplicity = 1:

       Center              X                  Y                   Z               Mass
    ------------   -----------------  -----------------  -----------------  -----------------
         O           -1.469734189200     2.564383587766     0.081614475475    15.994914619570
         N            1.919198810800    -0.583145412234    -0.054416524525    14.003074004430
         N           -1.910239189200     0.306082587766     0.049721475475    14.003074004430
         N           -0.342677189200    -1.467252412234    -0.037535524525    14.003074004430
         N            1.516683810800     1.640882587766    -0.009344524525    14.003074004430
         N           -2.629389189200    -1.916947412234     0.112293475475    14.003074004430
         C            0.557737810800    -0.436933412234    -0.028315524525    12.000000000000
         C            0.333796810800     0.939655587766    -0.008185524525    12.000000000000
         C           -1.022125189200     1.423694587766     0.036393475475    12.000000000000
         C            2.439101810800     0.689473587766    -0.068706524525    12.000000000000
         C           -1.573018189200    -1.026062412234     0.020018475475    12.000000000000
         C            2.635408810800    -1.845338412234    -0.064305524525    12.000000000000
         H            3.502800310800     0.861937687766    -0.285266224525     1.007825032230
         H            2.372973810800    -2.430443412234     0.818962475475     1.007825032230
         H            2.379511810800    -2.414095412234    -0.959292524525     1.007825032230
         H            3.704178810800    -1.630603412234    -0.058019524525     1.007825032230
         H           -2.887942189200     0.569129587766     0.170530475475     1.007825032230
         H           -2.325764189200    -2.867710412234    -0.063025524525     1.007825032230
         H           -3.459654189200    -1.672655412234    -0.416136524525     1.007825032230

  Basis Set: AUG-CC-PVTZ
    Blend: AUG-CC-PVTZ
  Basis Set: (AUG-CC-PVTZ AUX)
    Blend: AUG-CC-PVTZ-JKFIT
	 Reference Energy          =    -578.6284952452904236 [Eh]
	 Singles Energy            =      -0.0000000000000000 [Eh]
	 Same-Spin Energy          =      -0.6162285213348726 [Eh]
	 Opposite-Spin Energy      =      -1.8201133196167236 [Eh]
	 Correlation Energy        =      -2.4363418409515960 [Eh]
	 Total Energy              =    -581.0648370862420506 [Eh]

	 ================> DF-SCS-MP2 Energies <==================
	-----------------------------------------------------------
	 SCS Same-Spin Scale       =       0.3333333333333333 [-]
	 SCS Opposite-Spin Scale   =       1.2000000000000000 [-]
	 SCS Same-Spin Energy      =      -0.2054095071116242 [Eh]
	 SCS Opposite-Spin Energy  =      -2.1841359835400684 [Eh]
	 SCS Correlation Energy    =      -2.3895454906516926 [Eh]
	 SCS Total Energy          =    -581.0180407359421224 [Eh]
	-----------------------------------------------------------

  Dipole Moment: [D]
     X:    -0.0520      Y:    -6.7886      Z:    -1.0753     Total:     6.8735

*** Psi4 exiting successfully. Buy a developer a beer!
