                               Psi4 1.3.2 release

  ==> Input File <==

--------------------------------------------------------------------------
#psi4
#
memory 32 gb

molecule  {
0 1
  O       -1.4697740     2.5644010     0.0803940
  N        1.9191590    -0.5831280    -0.0556370
  N       -1.9102790     0.3061000     0.0485010
  N       -0.3427170    -1.4672350    -0.0387560
  N        1.5166440     1.6409000    -0.0105650
  N       -2.6358219    -1.9176708     0.0112803
  C        0.5576980    -0.4369160    -0.0295360
  C        0.3337570     0.9396730    -0.0094060
  C       -1.0221650     1.4237120     0.0351730
  C        2.4390620     0.6894910    -0.0699270
  C       -1.5730580    -1.0260450     0.0187980
  C        2.6353690    -1.8453210    -0.0655260
  H        3.5092610     0.8590810    -0.0866130
  H        2.3729340    -2.4304260     0.8177420
  H        2.3794720    -2.4140780    -0.9605130
  H        3.7041390    -1.6305860    -0.0592400
  H       -2.8879820     0.5691470     0.1693100
  H       -2.3258040    -2.8676930    -0.0642460
  H       -3.4596940    -1.6726380    -0.4173570
units angstrom
no_reorient  #important for SAPT in psi4, default
symmetry c1  #important for SAPT in psi4, default
}

set PROPERTIES_ORIGIN ["COM"]
properties('MP2/aug-cc-pvtz', properties = ['dipole'])
--------------------------------------------------------------------------

    Molecular point group: c1
  Charge       = 0
  Multiplicity = 1
  Basis Set: AUG-CC-PVTZ
    Blend: AUG-CC-PVTZ
  Basis Set: (AUG-CC-PVTZ AUX)
    Blend: AUG-CC-PVTZ-JKFIT

    Orbital Energies [Eh]
    ---------------------

    Doubly Occupied:

       1A    -20.520496     2A    -15.632254     3A    -15.628877
       4A    -15.604004     5A    -15.569584     6A    -15.559025
       7A    -11.397489     8A    -11.363839     9A    -11.318876
      10A    -11.306587    11A    -11.288968    12A    -11.246028
      13A     -1.390242    14A     -1.360041    15A     -1.333876
      16A     -1.222561    17A     -1.216054    18A     -1.190131
      19A     -1.030058    20A     -0.986000    21A     -0.901250
      22A     -0.884754    23A     -0.812223    24A     -0.769056
      25A     -0.742667    26A     -0.732305    27A     -0.705270
      28A     -0.670959    29A     -0.649973    30A     -0.640389
      31A     -0.628881    32A     -0.610073    33A     -0.593191
      34A     -0.578116    35A     -0.560434    36A     -0.541011
      37A     -0.493162    38A     -0.454212    39A     -0.439465
      40A     -0.429006    41A     -0.428334    42A     -0.392175
      43A     -0.297157

  @DF-RHF Final Energy:  -578.62949438548526

   => Energetics <=

    Nuclear Repulsion Energy =            693.6115543612780812
    One-Electron Energy =               -2164.2439964854147547
    Two-Electron Energy =                 892.0029477386513008
    Total Energy =                       -578.6294943854852590
  Basis Set: (AUG-CC-PVTZ AUX)
    Blend: AUG-CC-PVTZ-RI
    Molecular point group: c1

    Geometry (in Angstrom), charge = 0, multiplicity = 1:

       Center              X                  Y                   Z               Mass
    ------------   -----------------  -----------------  -----------------  -----------------
         O           -1.469231545665     2.564463980716     0.088859902496    15.994914619570
         N            1.919701454335    -0.583065019284    -0.047171097504    14.003074004430
         N           -1.909736545665     0.306162980716     0.056966902496    14.003074004430
         N           -0.342174545665    -1.467172019284    -0.030290097504    14.003074004430
         N            1.517186454335     1.640962980716    -0.002099097504    14.003074004430
         N           -2.635279445665    -1.917607819284     0.019746202496    14.003074004430
         C            0.558240454335    -0.436853019284    -0.021070097504    12.000000000000
         C            0.334299454335     0.939735980716    -0.000940097504    12.000000000000
         C           -1.021622545665     1.423774980716     0.043638902496    12.000000000000
         C            2.439604454335     0.689553980716    -0.061461097504    12.000000000000
         C           -1.572515545665    -1.025982019284     0.027263902496    12.000000000000
         C            2.635911454335    -1.845258019284    -0.057060097504    12.000000000000
         H            3.509803454335     0.859143980716    -0.078147097504     1.007825032230
         H            2.373476454335    -2.430363019284     0.826207902496     1.007825032230
         H            2.380014454335    -2.414015019284    -0.952047097504     1.007825032230
         H            3.704681454335    -1.630523019284    -0.050774097504     1.007825032230
         H           -2.887439545665     0.569209980716     0.177775902496     1.007825032230
         H           -2.325261545665    -2.867630019284    -0.055780097504     1.007825032230
         H           -3.459151545665    -1.672575019284    -0.408891097504     1.007825032230

  Basis Set: AUG-CC-PVTZ
    Blend: AUG-CC-PVTZ
  Basis Set: (AUG-CC-PVTZ AUX)
    Blend: AUG-CC-PVTZ-JKFIT
	 Reference Energy          =    -578.6294943854852590 [Eh]
	 Singles Energy            =      -0.0000000000000000 [Eh]
	 Same-Spin Energy          =      -0.6157221317579651 [Eh]
	 Opposite-Spin Energy      =      -1.8186770852432095 [Eh]
	 Correlation Energy        =      -2.4343992170011743 [Eh]
	 Total Energy              =    -581.0638936024864734 [Eh]

	 ================> DF-SCS-MP2 Energies <==================
	-----------------------------------------------------------
	 SCS Same-Spin Scale       =       0.3333333333333333 [-]
	 SCS Opposite-Spin Scale   =       1.2000000000000000 [-]
	 SCS Same-Spin Energy      =      -0.2052407105859884 [Eh]
	 SCS Opposite-Spin Energy  =      -2.1824125022918515 [Eh]
	 SCS Correlation Energy    =      -2.3876532128778400 [Eh]
	 SCS Total Energy          =    -581.0171475983630671 [Eh]
	-----------------------------------------------------------

  Dipole Moment: [D]
     X:    -0.1376      Y:    -6.8463      Z:    -0.7250     Total:     6.8860

*** Psi4 exiting successfully. Buy a developer a beer!
