                               Psi4 1.3.2 release

  ==> Input File <==

--------------------------------------------------------------------------
#psi4
#
memory 32 gb

molecule  {
0 1
  O       -1.4697740     2.5644010     0.0803940
  N        1.9191590    -0.5831280    -0.0556370
  N       -1.9102790     0.3061000     0.0485010
  N       -0.3427170    -1.4672350    -0.0387560
  N        1.5166440     1.6409000    -0.0105650
  N       -2.6294290    -1.9169300     0.1110730
  C        0.5576980    -0.4369160    -0.0295360
  C        0.3337570     0.9396730    -0.0094060
  C       -1.0221650     1.4237120     0.0351730
  C        2.4390620     0.6894910    -0.0699270
  C       -1.5730580    -1.0260450     0.0187980
  C        2.6324409    -1.8458081    -0.2154966
  H        3.5092610     0.8590810    -0.0866130
  H        2.3729340    -2.4304260     0.8177420
  H        2.3794720    -2.4140780    -0.9605130
  H        3.7041390    -1.6305860    -0.0592400
  H       -2.8879820     0.5691470     0.1693100
  H       -2.3258040    -2.8676930    -0.0642460
  H       -3.4596940    -1.6726380    -0.4173570
units angstrom
no_reorient  #important for SAPT in psi4, default
symmetry c1  #important for SAPT in psi4, default
}

set PROPERTIES_ORIGIN ["COM"]
properties('MP2/aug-cc-pvtz', properties = ['dipole'])
--------------------------------------------------------------------------

    Molecular point group: c1
  Charge       = 0
  Multiplicity = 1
  Basis Set: AUG-CC-PVTZ
    Blend: AUG-CC-PVTZ
  Basis Set: (AUG-CC-PVTZ AUX)
    Blend: AUG-CC-PVTZ-JKFIT

    Orbital Energies [Eh]
    ---------------------

    Doubly Occupied:

       1A    -20.521064     2A    -15.634104     3A    -15.629452
       4A    -15.610753     5A    -15.570952     6A    -15.560038
       7A    -11.396159     8A    -11.364447     9A    -11.319294
      10A    -11.307500    11A    -11.292611    12A    -11.247258
      13A     -1.390816    14A     -1.360588    15A     -1.334096
      16A     -1.219160    17A     -1.216324    18A     -1.190229
      19A     -1.029622    20A     -0.989045    21A     -0.902314
      22A     -0.882353    23A     -0.808371    24A     -0.769940
      25A     -0.742264    26A     -0.729632    27A     -0.695258
      28A     -0.677398    29A     -0.654287    30A     -0.637591
      31A     -0.631520    32A     -0.610420    33A     -0.595126
      34A     -0.578576    35A     -0.549888    36A     -0.533375
      37A     -0.492579    38A     -0.459353    39A     -0.440140
      40A     -0.429441    41A     -0.428937    42A     -0.391830
      43A     -0.298626

  @DF-RHF Final Energy:  -578.60554220603569

   => Energetics <=

    Nuclear Repulsion Energy =            693.3362050229114857
    One-Electron Energy =               -2163.6380351923926355
    Two-Electron Energy =                 891.6962879634453429
    Total Energy =                       -578.6055422060356932
  Basis Set: (AUG-CC-PVTZ AUX)
    Blend: AUG-CC-PVTZ-RI
    Molecular point group: c1

    Geometry (in Angstrom), charge = 0, multiplicity = 1:

       Center              X                  Y                   Z               Mass
    ------------   -----------------  -----------------  -----------------  -----------------
         O           -1.469561010010     2.564436547429     0.091296775794    15.994914619570
         N            1.919371989990    -0.583092452571    -0.044734224206    14.003074004430
         N           -1.910066010010     0.306135547429     0.059403775794    14.003074004430
         N           -0.342504010010    -1.467199452571    -0.027853224206    14.003074004430
         N            1.516856989990     1.640935547429     0.000337775794    14.003074004430
         N           -2.629216010010    -1.916894452571     0.121975775794    14.003074004430
         C            0.557910989990    -0.436880452571    -0.018633224206    12.000000000000
         C            0.333969989990     0.939708547429     0.001496775794    12.000000000000
         C           -1.021952010010     1.423747547429     0.046075775794    12.000000000000
         C            2.439274989990     0.689526547429    -0.059024224206    12.000000000000
         C           -1.572845010010    -1.026009452571     0.029700775794    12.000000000000
         C            2.632653889990    -1.845772552571    -0.204593824206    12.000000000000
         H            3.509473989990     0.859116547429    -0.075710224206     1.007825032230
         H            2.373146989990    -2.430390452571     0.828644775794     1.007825032230
         H            2.379684989990    -2.414042452571    -0.949610224206     1.007825032230
         H            3.704351989990    -1.630550452571    -0.048337224206     1.007825032230
         H           -2.887769010010     0.569182547429     0.180212775794     1.007825032230
         H           -2.325591010010    -2.867657452571    -0.053343224206     1.007825032230
         H           -3.459481010010    -1.672602452571    -0.406454224206     1.007825032230

  Basis Set: AUG-CC-PVTZ
    Blend: AUG-CC-PVTZ
  Basis Set: (AUG-CC-PVTZ AUX)
    Blend: AUG-CC-PVTZ-JKFIT
	 Reference Energy          =    -578.6055422060356932 [Eh]
	 Singles Energy            =      -0.0000000000000000 [Eh]
	 Same-Spin Energy          =      -0.6164059462673872 [Eh]
	 Opposite-Spin Energy      =      -1.8208855516271565 [Eh]
	 Correlation Energy        =      -2.4372914978945435 [Eh]
	 Total Energy              =    -581.0428337039302278 [Eh]

	 ================> DF-SCS-MP2 Energies <==================
	-----------------------------------------------------------
	 SCS Same-Spin Scale       =       0.3333333333333333 [-]
	 SCS Opposite-Spin Scale   =       1.2000000000000000 [-]
	 SCS Same-Spin Energy      =      -0.2054686487557957 [Eh]
	 SCS Opposite-Spin Energy  =      -2.1850626619525877 [Eh]
	 SCS Correlation Energy    =      -2.3905313107083836 [Eh]
	 SCS Total Energy          =    -580.9960735167441044 [Eh]
	-----------------------------------------------------------

  Dipole Moment: [D]
     X:    -0.0322      Y:    -6.7519      Z:    -1.0801     Total:     6.8378

*** Psi4 exiting successfully. Buy a developer a beer!
