                               Psi4 1.3.2 release

  ==> Input File <==

--------------------------------------------------------------------------
#psi4
#
memory 32 gb

molecule  {
0 1
  O       -1.4697740     2.5644010     0.0803940
  N        1.9191590    -0.5831280    -0.0556370
  N       -1.9102790     0.3061000     0.0485010
  N       -0.3427170    -1.4672350    -0.0387560
  N        1.5166440     1.6409000    -0.0105650
  N       -2.6294290    -1.9169300     0.1110730
  C        0.5576980    -0.4369160    -0.0295360
  C        0.3296362     0.9444886    -0.3093390
  C       -1.0221650     1.4237120     0.0351730
  C        2.4390620     0.6894910    -0.0699270
  C       -1.5730580    -1.0260450     0.0187980
  C        2.6353690    -1.8453210    -0.0655260
  H        3.5092610     0.8590810    -0.0866130
  H        2.3729340    -2.4304260     0.8177420
  H        2.3794720    -2.4140780    -0.9605130
  H        3.7041390    -1.6305860    -0.0592400
  H       -2.8879820     0.5691470     0.1693100
  H       -2.3258040    -2.8676930    -0.0642460
  H       -3.4596940    -1.6726380    -0.4173570
units angstrom
no_reorient  #important for SAPT in psi4, default
symmetry c1  #important for SAPT in psi4, default
}

set PROPERTIES_ORIGIN ["COM"]
properties('MP2/aug-cc-pvtz', properties = ['dipole'])
--------------------------------------------------------------------------

    Molecular point group: c1
  Charge       = 0
  Multiplicity = 1
  Basis Set: AUG-CC-PVTZ
    Blend: AUG-CC-PVTZ
  Basis Set: (AUG-CC-PVTZ AUX)
    Blend: AUG-CC-PVTZ-JKFIT

    Orbital Energies [Eh]
    ---------------------

    Doubly Occupied:

       1A    -20.522115     2A    -15.633551     3A    -15.629310
       4A    -15.613144     5A    -15.571817     6A    -15.559756
       7A    -11.399274     8A    -11.365676     9A    -11.326533
      10A    -11.307286    11A    -11.289875    12A    -11.251215
      13A     -1.389885    14A     -1.359327    15A     -1.334338
      16A     -1.219930    17A     -1.215581    18A     -1.186157
      19A     -1.023625    20A     -0.984031    21A     -0.896785
      22A     -0.882290    23A     -0.805895    24A     -0.758892
      25A     -0.739641    26A     -0.727965    27A     -0.692957
      28A     -0.672072    29A     -0.646312    30A     -0.643924
      31A     -0.624543    32A     -0.608461    33A     -0.587277
      34A     -0.579096    35A     -0.556746    36A     -0.540299
      37A     -0.491760    38A     -0.461958    39A     -0.438916
      40A     -0.429912    41A     -0.420726    42A     -0.388951
      43A     -0.298856

  @DF-RHF Final Energy:  -578.60302012228669

   => Energetics <=

    Nuclear Repulsion Energy =            691.9068490375416332
    One-Electron Energy =               -2160.8664165938971564
    Two-Electron Energy =                 890.3565474340688297
    Total Energy =                       -578.6030201222866935
  Basis Set: (AUG-CC-PVTZ AUX)
    Blend: AUG-CC-PVTZ-RI
    Molecular point group: c1

    Geometry (in Angstrom), charge = 0, multiplicity = 1:

       Center              X                  Y                   Z               Mass
    ------------   -----------------  -----------------  -----------------  -----------------
         O           -1.469474302381     2.564051048523     0.102198833452    15.994914619570
         N            1.919458697619    -0.583477951477    -0.033832166548    14.003074004430
         N           -1.909979302381     0.305750048523     0.070305833452    14.003074004430
         N           -0.342417302381    -1.467584951477    -0.016951166548    14.003074004430
         N            1.516943697619     1.640550048523     0.011239833452    14.003074004430
         N           -2.629129302381    -1.917279951477     0.132877833452    14.003074004430
         C            0.557997697619    -0.437265951477    -0.007731166548    12.000000000000
         C            0.329935897619     0.944138648523    -0.287534166548    12.000000000000
         C           -1.021865302381     1.423362048523     0.056977833452    12.000000000000
         C            2.439361697619     0.689141048523    -0.048122166548    12.000000000000
         C           -1.572758302381    -1.026394951477     0.040602833452    12.000000000000
         C            2.635668697619    -1.845670951477    -0.043721166548    12.000000000000
         H            3.509560697619     0.858731048523    -0.064808166548     1.007825032230
         H            2.373233697619    -2.430775951477     0.839546833452     1.007825032230
         H            2.379771697619    -2.414427951477    -0.938708166548     1.007825032230
         H            3.704438697619    -1.630935951477    -0.037435166548     1.007825032230
         H           -2.887682302381     0.568797048523     0.191114833452     1.007825032230
         H           -2.325504302381    -2.868042951477    -0.042441166548     1.007825032230
         H           -3.459394302381    -1.672987951477    -0.395552166548     1.007825032230

  Basis Set: AUG-CC-PVTZ
    Blend: AUG-CC-PVTZ
  Basis Set: (AUG-CC-PVTZ AUX)
    Blend: AUG-CC-PVTZ-JKFIT
	 Reference Energy          =    -578.6030201222866935 [Eh]
	 Singles Energy            =      -0.0000000000000000 [Eh]
	 Same-Spin Energy          =      -0.6166022609741584 [Eh]
	 Opposite-Spin Energy      =      -1.8219145168257258 [Eh]
	 Correlation Energy        =      -2.4385167777998840 [Eh]
	 Total Energy              =    -581.0415369000866121 [Eh]

	 ================> DF-SCS-MP2 Energies <==================
	-----------------------------------------------------------
	 SCS Same-Spin Scale       =       0.3333333333333333 [-]
	 SCS Opposite-Spin Scale   =       1.2000000000000000 [-]
	 SCS Same-Spin Energy      =      -0.2055340869913861 [Eh]
	 SCS Opposite-Spin Energy  =      -2.1862974201908707 [Eh]
	 SCS Correlation Energy    =      -2.3918315071822569 [Eh]
	 SCS Total Energy          =    -580.9948516294689398 [Eh]
	-----------------------------------------------------------

  Dipole Moment: [D]
     X:    -0.0905      Y:    -6.8384      Z:    -0.9159     Total:     6.9001

*** Psi4 exiting successfully. Buy a developer a beer!
