                               Psi4 1.3.2 release

  ==> Input File <==

--------------------------------------------------------------------------
#psi4
#
memory 32 gb

molecule  {
0 1
  O       -1.4697740     2.5644010     0.0803940
  N        1.9191590    -0.5831280    -0.0556370
  N       -1.9102790     0.3061000     0.0485010
  N       -0.3427170    -1.4672350    -0.0387560
  N        1.5166440     1.6409000    -0.0105650
  N       -2.6486077    -1.9191523    -0.1883051
  C        0.5576980    -0.4369160    -0.0295360
  C        0.3337570     0.9396730    -0.0094060
  C       -1.0221650     1.4237120     0.0351730
  C        2.4390620     0.6894910    -0.0699270
  C       -1.5730580    -1.0260450     0.0187980
  C        2.6353690    -1.8453210    -0.0655260
  H        3.5092610     0.8590810    -0.0866130
  H        2.3729340    -2.4304260     0.8177420
  H        2.3794720    -2.4140780    -0.9605130
  H        3.7041390    -1.6305860    -0.0592400
  H       -2.8879820     0.5691470     0.1693100
  H       -2.3258040    -2.8676930    -0.0642460
  H       -3.4596940    -1.6726380    -0.4173570
units angstrom
no_reorient  #important for SAPT in psi4, default
symmetry c1  #important for SAPT in psi4, default
}

set PROPERTIES_ORIGIN ["COM"]
properties('MP2/aug-cc-pvtz', properties = ['dipole'])
--------------------------------------------------------------------------

    Molecular point group: c1
  Charge       = 0
  Multiplicity = 1
  Basis Set: AUG-CC-PVTZ
    Blend: AUG-CC-PVTZ
  Basis Set: (AUG-CC-PVTZ AUX)
    Blend: AUG-CC-PVTZ-JKFIT

    Orbital Energies [Eh]
    ---------------------

    Doubly Occupied:

       1A    -20.520640     2A    -15.632515     3A    -15.629356
       4A    -15.595799     5A    -15.570398     6A    -15.559269
       7A    -11.400997     8A    -11.363980     9A    -11.319679
      10A    -11.306920    11A    -11.289088    12A    -11.246432
      13A     -1.389974    14A     -1.360260    15A     -1.331989
      16A     -1.225686    17A     -1.216467    18A     -1.190452
      19A     -1.032408    20A     -0.986180    21A     -0.901392
      22A     -0.888470    23A     -0.821387    24A     -0.774201
      25A     -0.747496    26A     -0.733590    27A     -0.707690
      28A     -0.671256    29A     -0.650485    30A     -0.640508
      31A     -0.625908    32A     -0.609829    33A     -0.593522
      34A     -0.578222    35A     -0.559352    36A     -0.540400
      37A     -0.493535    38A     -0.449380    39A     -0.439199
      40A     -0.429279    41A     -0.428575    42A     -0.392325
      43A     -0.296961

  @DF-RHF Final Energy:  -578.60704153024903

   => Energetics <=

    Nuclear Repulsion Energy =            693.3410732479285343
    One-Electron Energy =               -2163.6133193469886464
    Two-Electron Energy =                 891.6652045688110775
    Total Energy =                       -578.6070415302490346
  Basis Set: (AUG-CC-PVTZ AUX)
    Blend: AUG-CC-PVTZ-RI
    Molecular point group: c1

    Geometry (in Angstrom), charge = 0, multiplicity = 1:

       Center              X                  Y                   Z               Mass
    ------------   -----------------  -----------------  -----------------  -----------------
         O           -1.468146879390     2.564589661791     0.105791463474    15.994914619570
         N            1.920786120610    -0.582939338209    -0.030239536526    14.003074004430
         N           -1.908651879390     0.306288661791     0.073898463474    14.003074004430
         N           -0.341089879390    -1.467046338209    -0.013358536526    14.003074004430
         N            1.518271120610     1.641088661791     0.014832463474    14.003074004430
         N           -2.646980579390    -1.918963638209    -0.162907636526    14.003074004430
         C            0.559325120610    -0.436727338209    -0.004138536526    12.000000000000
         C            0.335384120610     0.939861661791     0.015991463474    12.000000000000
         C           -1.020537879390     1.423900661791     0.060570463474    12.000000000000
         C            2.440689120610     0.689679661791    -0.044529536526    12.000000000000
         C           -1.571430879390    -1.025856338209     0.044195463474    12.000000000000
         C            2.636996120610    -1.845132338209    -0.040128536526    12.000000000000
         H            3.510888120610     0.859269661791    -0.061215536526     1.007825032230
         H            2.374561120610    -2.430237338209     0.843139463474     1.007825032230
         H            2.381099120610    -2.413889338209    -0.935115536526     1.007825032230
         H            3.705766120610    -1.630397338209    -0.033842536526     1.007825032230
         H           -2.886354879390     0.569335661791     0.194707463474     1.007825032230
         H           -2.324176879390    -2.867504338209    -0.038848536526     1.007825032230
         H           -3.458066879390    -1.672449338209    -0.391959536526     1.007825032230

  Basis Set: AUG-CC-PVTZ
    Blend: AUG-CC-PVTZ
  Basis Set: (AUG-CC-PVTZ AUX)
    Blend: AUG-CC-PVTZ-JKFIT
	 Reference Energy          =    -578.6070415302490346 [Eh]
	 Singles Energy            =      -0.0000000000000000 [Eh]
	 Same-Spin Energy          =      -0.6157887453909818 [Eh]
	 Opposite-Spin Energy      =      -1.8186587445887090 [Eh]
	 Correlation Energy        =      -2.4344474899796911 [Eh]
	 Total Energy              =    -581.0414890202287097 [Eh]

	 ================> DF-SCS-MP2 Energies <==================
	-----------------------------------------------------------
	 SCS Same-Spin Scale       =       0.3333333333333333 [-]
	 SCS Opposite-Spin Scale   =       1.2000000000000000 [-]
	 SCS Same-Spin Energy      =      -0.2052629151303273 [Eh]
	 SCS Opposite-Spin Energy  =      -2.1823904935064506 [Eh]
	 SCS Correlation Energy    =      -2.3876534086367780 [Eh]
	 SCS Total Energy          =    -580.9946949388858002 [Eh]
	-----------------------------------------------------------

  Dipole Moment: [D]
     X:    -0.1514      Y:    -6.8081      Z:    -0.2011     Total:     6.8128

*** Psi4 exiting successfully. Buy a developer a beer!
