                               Psi4 1.3.2 release

  ==> Input File <==

--------------------------------------------------------------------------
#psi4
#
memory 32 gb

molecule  {
0 1
  O       -1.4697740     2.5644010     0.0803940
  N        1.9191590    -0.5831280    -0.0556370
  N       -1.9102790     0.3061000     0.0485010
  N       -0.3427170    -1.4672350    -0.0387560
  N        1.5166440     1.6409000    -0.0105650
  N       -2.6294290    -1.9169300     0.1110730
  C        0.5576980    -0.4369160    -0.0295360
  C        0.3337570     0.9396730    -0.0094060
  C       -1.0221650     1.4237120     0.0351730
  C        2.4390620     0.6894910    -0.0699270
  C       -1.5730580    -1.0260450     0.0187980
  C        2.6353690    -1.8453210    -0.0655260
  H        3.5092610     0.8590810    -0.0866130
  H        2.3729340    -2.4304260     0.8177420
  H        2.3794720    -2.4140780    -0.9605130
  H        3.7041390    -1.6305860    -0.0592400
  H       -2.8963063     0.5716848     0.0696894
  H       -2.3258040    -2.8676930    -0.0642460
  H       -3.4596940    -1.6726380    -0.4173570
units angstrom
no_reorient  #important for SAPT in psi4, default
symmetry c1  #important for SAPT in psi4, default
}

set PROPERTIES_ORIGIN ["COM"]
properties('MP2/aug-cc-pvtz', properties = ['dipole'])
--------------------------------------------------------------------------

    Molecular point group: c1
  Charge       = 0
  Multiplicity = 1
  Basis Set: AUG-CC-PVTZ
    Blend: AUG-CC-PVTZ
  Basis Set: (AUG-CC-PVTZ AUX)
    Blend: AUG-CC-PVTZ-JKFIT

    Orbital Energies [Eh]
    ---------------------

    Doubly Occupied:

       1A    -20.520807     2A    -15.632845     3A    -15.629608
       4A    -15.610763     5A    -15.570857     6A    -15.559577
       7A    -11.396076     8A    -11.364269     9A    -11.319098
      10A    -11.307253    11A    -11.289361    12A    -11.246946
      13A     -1.390612    14A     -1.360534    15A     -1.333989
      16A     -1.219048    17A     -1.216170    18A     -1.190603
      19A     -1.029402    20A     -0.986445    21A     -0.901602
      22A     -0.882206    23A     -0.807854    24A     -0.766700
      25A     -0.741360    26A     -0.729040    27A     -0.691840
      28A     -0.671474    29A     -0.649627    30A     -0.643903
      31A     -0.624716    32A     -0.610422    33A     -0.593788
      34A     -0.578468    35A     -0.560887    36A     -0.541762
      37A     -0.493869    38A     -0.459183    39A     -0.439897
      40A     -0.430135    41A     -0.427785    42A     -0.392708
      43A     -0.298375

  @DF-RHF Final Energy:  -578.63045013030717

   => Energetics <=

    Nuclear Repulsion Energy =            693.4347356115364391
    One-Electron Energy =               -2163.9066368688090733
    Two-Electron Energy =                 891.8414511269655804
    Total Energy =                       -578.6304501303071675
  Basis Set: (AUG-CC-PVTZ AUX)
    Blend: AUG-CC-PVTZ-RI
    Molecular point group: c1

    Geometry (in Angstrom), charge = 0, multiplicity = 1:

       Center              X                  Y                   Z               Mass
    ------------   -----------------  -----------------  -----------------  -----------------
         O           -1.469723053765     2.564385641087     0.081002367838    15.994914619570
         N            1.919209946235    -0.583143358913    -0.055028632162    14.003074004430
         N           -1.910228053765     0.306084641087     0.049109367838    14.003074004430
         N           -0.342666053765    -1.467250358913    -0.038147632162    14.003074004430
         N            1.516694946235     1.640884641087    -0.009956632162    14.003074004430
         N           -2.629378053765    -1.916945358913     0.111681367838    14.003074004430
         C            0.557748946235    -0.436931358913    -0.028927632162    12.000000000000
         C            0.333807946235     0.939657641087    -0.008797632162    12.000000000000
         C           -1.022114053765     1.423696641087     0.035781367838    12.000000000000
         C            2.439112946235     0.689475641087    -0.069318632162    12.000000000000
         C           -1.573007053765    -1.026060358913     0.019406367838    12.000000000000
         C            2.635419946235    -1.845336358913    -0.064917632162    12.000000000000
         H            3.509311946235     0.859065641087    -0.086004632162     1.007825032230
         H            2.372984946235    -2.430441358913     0.818350367838     1.007825032230
         H            2.379522946235    -2.414093358913    -0.959904632162     1.007825032230
         H            3.704189946235    -1.630601358913    -0.058631632162     1.007825032230
         H           -2.896255353765     0.571669441087     0.070297767838     1.007825032230
         H           -2.325753053765    -2.867708358913    -0.063637632162     1.007825032230
         H           -3.459643053765    -1.672653358913    -0.416748632162     1.007825032230

  Basis Set: AUG-CC-PVTZ
    Blend: AUG-CC-PVTZ
  Basis Set: (AUG-CC-PVTZ AUX)
    Blend: AUG-CC-PVTZ-JKFIT
	 Reference Energy          =    -578.6304501303071675 [Eh]
	 Singles Energy            =      -0.0000000000000000 [Eh]
	 Same-Spin Energy          =      -0.6160892738165012 [Eh]
	 Opposite-Spin Energy      =      -1.8198586681600970 [Eh]
	 Correlation Energy        =      -2.4359479419765981 [Eh]
	 Total Energy              =    -581.0663980722837323 [Eh]

	 ================> DF-SCS-MP2 Energies <==================
	-----------------------------------------------------------
	 SCS Same-Spin Scale       =       0.3333333333333333 [-]
	 SCS Opposite-Spin Scale   =       1.2000000000000000 [-]
	 SCS Same-Spin Energy      =      -0.2053630912721671 [Eh]
	 SCS Opposite-Spin Energy  =      -2.1838304017921164 [Eh]
	 SCS Correlation Energy    =      -2.3891934930642833 [Eh]
	 SCS Total Energy          =    -581.0196436233713939 [Eh]
	-----------------------------------------------------------

  Dipole Moment: [D]
     X:    -0.0248      Y:    -6.7891      Z:    -1.0662     Total:     6.8723

*** Psi4 exiting successfully. Buy a developer a beer!
