                               Psi4 1.3.2 release

  ==> Input File <==

--------------------------------------------------------------------------
#psi4
#
memory 32 gb

molecule  {
0 1
  O       -1.4697740     2.5644010     0.0803940
  N        1.9191590    -0.5831280    -0.0556370
  N       -1.9102790     0.3061000     0.0485010
  N       -0.3427170    -1.4672350    -0.0387560
  N        1.5166440     1.6409000    -0.0105650
  N       -2.6294290    -1.9169300     0.1110730
  C        0.5576980    -0.4369160    -0.0295360
  C        0.3337570     0.9396730    -0.0094060
  C       -1.0221650     1.4237120     0.0351730
  C        2.4390620     0.6894910    -0.0699270
  C       -1.5730580    -1.0260450     0.0187980
  C        2.6353690    -1.8453210    -0.0655260
  H        3.5011354     0.8626737    -0.3364551
  H        2.3729340    -2.4304260     0.8177420
  H        2.3794720    -2.4140780    -0.9605130
  H        3.7041390    -1.6305860    -0.0592400
  H       -2.8879820     0.5691470     0.1693100
  H       -2.3258040    -2.8676930    -0.0642460
  H       -3.4596940    -1.6726380    -0.4173570
units angstrom
no_reorient  #important for SAPT in psi4, default
symmetry c1  #important for SAPT in psi4, default
}

set PROPERTIES_ORIGIN ["COM"]
properties('MP2/aug-cc-pvtz', properties = ['dipole'])
--------------------------------------------------------------------------

    Molecular point group: c1
  Charge       = 0
  Multiplicity = 1
  Basis Set: AUG-CC-PVTZ
    Blend: AUG-CC-PVTZ
  Basis Set: (AUG-CC-PVTZ AUX)
    Blend: AUG-CC-PVTZ-JKFIT

    Orbital Energies [Eh]
    ---------------------

    Doubly Occupied:

       1A    -20.521228     2A    -15.632668     3A    -15.629548
       4A    -15.610962     5A    -15.571075     6A    -15.560135
       7A    -11.396349     8A    -11.364582     9A    -11.319533
      10A    -11.309173    11A    -11.289114    12A    -11.247414
      13A     -1.390946    14A     -1.360702    15A     -1.334228
      16A     -1.219335    17A     -1.216454    18A     -1.190823
      19A     -1.029098    20A     -0.986357    21A     -0.900561
      22A     -0.882228    23A     -0.806332    24A     -0.766962
      25A     -0.741331    26A     -0.727998    27A     -0.691612
      28A     -0.672810    29A     -0.649527    30A     -0.639721
      31A     -0.626955    32A     -0.610692    33A     -0.591043
      34A     -0.577986    35A     -0.560520    36A     -0.541458
      37A     -0.494076    38A     -0.458890    39A     -0.440534
      40A     -0.429882    41A     -0.428226    42A     -0.392810
      43A     -0.298398

  @DF-RHF Final Energy:  -578.62707248904428

   => Energetics <=

    Nuclear Repulsion Energy =            693.3458956732711158
    One-Electron Energy =               -2163.7253847982979096
    Two-Electron Energy =                 891.7524166359825131
    Total Energy =                       -578.6270724890442807
  Basis Set: (AUG-CC-PVTZ AUX)
    Blend: AUG-CC-PVTZ-RI
    Molecular point group: c1

    Geometry (in Angstrom), charge = 0, multiplicity = 1:

       Center              X                  Y                   Z               Mass
    ------------   -----------------  -----------------  -----------------  -----------------
         O           -1.469724266952     2.564379200265     0.081919563689    15.994914619570
         N            1.919208733048    -0.583149799735    -0.054111436311    14.003074004430
         N           -1.910229266952     0.306078200265     0.050026563689    14.003074004430
         N           -0.342667266952    -1.467256799735    -0.037230436311    14.003074004430
         N            1.516693733048     1.640878200265    -0.009039436311    14.003074004430
         N           -2.629379266952    -1.916951799735     0.112598563689    14.003074004430
         C            0.557747733048    -0.436937799735    -0.028010436311    12.000000000000
         C            0.333806733048     0.939651200265    -0.007880436311    12.000000000000
         C           -1.022115266952     1.423690200265     0.036698563689    12.000000000000
         C            2.439111733048     0.689469200265    -0.068401436311    12.000000000000
         C           -1.573008266952    -1.026066799735     0.020323563689    12.000000000000
         C            2.635418733048    -1.845342799735    -0.064000436311    12.000000000000
         H            3.501185133048     0.862651900265    -0.334929536311     1.007825032230
         H            2.372983733048    -2.430447799735     0.819267563689     1.007825032230
         H            2.379521733048    -2.414099799735    -0.958987436311     1.007825032230
         H            3.704188733048    -1.630607799735    -0.057714436311     1.007825032230
         H           -2.887932266952     0.569125200265     0.170835563689     1.007825032230
         H           -2.325754266952    -2.867714799735    -0.062720436311     1.007825032230
         H           -3.459644266952    -1.672659799735    -0.415831436311     1.007825032230

  Basis Set: AUG-CC-PVTZ
    Blend: AUG-CC-PVTZ
  Basis Set: (AUG-CC-PVTZ AUX)
    Blend: AUG-CC-PVTZ-JKFIT
	 Reference Energy          =    -578.6270724890442807 [Eh]
	 Singles Energy            =      -0.0000000000000000 [Eh]
	 Same-Spin Energy          =      -0.6163244992347245 [Eh]
	 Opposite-Spin Energy      =      -1.8203105359717535 [Eh]
	 Correlation Energy        =      -2.4366350352064781 [Eh]
	 Total Energy              =    -581.0637075242507308 [Eh]

	 ================> DF-SCS-MP2 Energies <==================
	-----------------------------------------------------------
	 SCS Same-Spin Scale       =       0.3333333333333333 [-]
	 SCS Opposite-Spin Scale   =       1.2000000000000000 [-]
	 SCS Same-Spin Energy      =      -0.2054414997449082 [Eh]
	 SCS Opposite-Spin Energy  =      -2.1843726431661041 [Eh]
	 SCS Correlation Energy    =      -2.3898141429110122 [Eh]
	 SCS Total Energy          =    -581.0168866319553445 [Eh]
	-----------------------------------------------------------

  Dipole Moment: [D]
     X:    -0.0765      Y:    -6.7884      Z:    -1.1086     Total:     6.8787

*** Psi4 exiting successfully. Buy a developer a beer!
