                               Psi4 1.3.2 release

  ==> Input File <==

--------------------------------------------------------------------------
#psi4
#
memory 32 gb

molecule  {
0 1
  O       -1.4697740     2.5644010     0.0803940
  N        1.9191590    -0.5831280    -0.0556370
  N       -1.9102790     0.3061000     0.0485010
  N       -0.3427170    -1.4672350    -0.0387560
  N        1.5166440     1.6409000    -0.0105650
  N       -2.6294290    -1.9169300     0.1110730
  C        0.5576980    -0.4369160    -0.0295360
  C        0.3337570     0.9396730    -0.0094060
  C       -1.0221650     1.4237120     0.0351730
  C        2.4390620     0.6894910    -0.0699270
  C       -1.5730580    -1.0260450     0.0187980
  C        2.6353690    -1.8453210    -0.0655260
  H        3.5092610     0.8590810    -0.0866130
  H        2.3729340    -2.4304260     0.8177420
  H        2.3794720    -2.4140780    -0.9605130
  H        3.7041390    -1.6305860    -0.0592400
  H       -2.8879820     0.5691470     0.1693100
  H       -2.3258040    -2.8676930    -0.0642460
  H       -3.4353987    -1.6782014    -0.5142011
units angstrom
no_reorient  #important for SAPT in psi4, default
symmetry c1  #important for SAPT in psi4, default
}

set PROPERTIES_ORIGIN ["COM"]
properties('MP2/aug-cc-pvtz', properties = ['dipole'])
--------------------------------------------------------------------------

    Molecular point group: c1
  Charge       = 0
  Multiplicity = 1
  Basis Set: AUG-CC-PVTZ
    Blend: AUG-CC-PVTZ
  Basis Set: (AUG-CC-PVTZ AUX)
    Blend: AUG-CC-PVTZ-JKFIT

    Orbital Energies [Eh]
    ---------------------

    Doubly Occupied:

       1A    -20.521103     2A    -15.633351     3A    -15.629450
       4A    -15.613269     5A    -15.571873     6A    -15.560028
       7A    -11.395376     8A    -11.364498     9A    -11.319316
      10A    -11.307809    11A    -11.289737    12A    -11.247657
      13A     -1.390864    14A     -1.360949    15A     -1.333824
      16A     -1.217923    17A     -1.215246    18A     -1.191009
      19A     -1.029212    20A     -0.986851    21A     -0.901896
      22A     -0.881063    23A     -0.806082    24A     -0.766056
      25A     -0.740707    26A     -0.727400    27A     -0.686925
      28A     -0.670619    29A     -0.649770    30A     -0.642584
      31A     -0.624238    32A     -0.610733    33A     -0.594070
      34A     -0.578906    35A     -0.560774    36A     -0.541589
      37A     -0.494237    38A     -0.461331    39A     -0.440278
      40A     -0.429594    41A     -0.429026    42A     -0.393110
      43A     -0.299242

  @DF-RHF Final Energy:  -578.62849444718188

   => Energetics <=

    Nuclear Repulsion Energy =            693.3362974462301054
    One-Electron Energy =               -2163.7104250273964681
    Two-Electron Energy =                 891.7456331339843700
    Total Energy =                       -578.6284944471818790
  Basis Set: (AUG-CC-PVTZ AUX)
    Blend: AUG-CC-PVTZ-RI
    Molecular point group: c1

    Geometry (in Angstrom), charge = 0, multiplicity = 1:

       Center              X                  Y                   Z               Mass
    ------------   -----------------  -----------------  -----------------  -----------------
         O           -1.469922216746     2.564435103961     0.080985415575    15.994914619570
         N            1.919010783254    -0.583093896039    -0.055045584425    14.003074004430
         N           -1.910427216746     0.306134103961     0.049092415575    14.003074004430
         N           -0.342865216746    -1.467200896039    -0.038164584425    14.003074004430
         N            1.516495783254     1.640934103961    -0.009973584425    14.003074004430
         N           -2.629577216746    -1.916895896039     0.111664415575    14.003074004430
         C            0.557549783254    -0.436881896039    -0.028944584425    12.000000000000
         C            0.333608783254     0.939707103961    -0.008814584425    12.000000000000
         C           -1.022313216746     1.423746103961     0.035764415575    12.000000000000
         C            2.438913783254     0.689525103961    -0.069335584425    12.000000000000
         C           -1.573206216746    -1.026010896039     0.019389415575    12.000000000000
         C            2.635220783254    -1.845286896039    -0.064934584425    12.000000000000
         H            3.509112783254     0.859115103961    -0.086021584425     1.007825032230
         H            2.372785783254    -2.430391896039     0.818333415575     1.007825032230
         H            2.379323783254    -2.414043896039    -0.959921584425     1.007825032230
         H            3.703990783254    -1.630551896039    -0.058648584425     1.007825032230
         H           -2.888130216746     0.569181103961     0.169901415575     1.007825032230
         H           -2.325952216746    -2.867658896039    -0.063654584425     1.007825032230
         H           -3.435546916746    -1.678167296039    -0.513609684425     1.007825032230

  Basis Set: AUG-CC-PVTZ
    Blend: AUG-CC-PVTZ
  Basis Set: (AUG-CC-PVTZ AUX)
    Blend: AUG-CC-PVTZ-JKFIT
	 Reference Energy          =    -578.6284944471818790 [Eh]
	 Singles Energy            =      -0.0000000000000000 [Eh]
	 Same-Spin Energy          =      -0.6163072957055957 [Eh]
	 Opposite-Spin Energy      =      -1.8205307874504952 [Eh]
	 Correlation Energy        =      -2.4368380831560907 [Eh]
	 Total Energy              =    -581.0653325303379688 [Eh]

	 ================> DF-SCS-MP2 Energies <==================
	-----------------------------------------------------------
	 SCS Same-Spin Scale       =       0.3333333333333333 [-]
	 SCS Opposite-Spin Scale   =       1.2000000000000000 [-]
	 SCS Same-Spin Energy      =      -0.2054357652351986 [Eh]
	 SCS Opposite-Spin Energy  =      -2.1846369449405940 [Eh]
	 SCS Correlation Energy    =      -2.3900727101757928 [Eh]
	 SCS Total Energy          =    -581.0185671573576656 [Eh]
	-----------------------------------------------------------

  Dipole Moment: [D]
     X:     0.1246      Y:    -6.7622      Z:    -1.0414     Total:     6.8431

*** Psi4 exiting successfully. Buy a developer a beer!
