                               Psi4 1.3.2 release

  ==> Input File <==

--------------------------------------------------------------------------
#psi4
#
memory 32 gb

molecule  {
0 1
  O       -1.4697740     2.5644010     0.0803940
  N        1.9191590    -0.5831280    -0.0556370
  N       -1.9102790     0.3061000     0.0485010
  N       -0.3427170    -1.4672350    -0.0387560
  N        1.5166440     1.6409000    -0.0105650
  N       -2.6294290    -1.9169300     0.1110730
  C        0.5576980    -0.4369160    -0.0295360
  C        0.3337570     0.9396730    -0.0094060
  C       -1.0221650     1.4237120     0.0351730
  C        2.4390620     0.6894910    -0.0699270
  C       -1.5730580    -1.0260450     0.0187980
  C        2.6334170    -1.8456458    -0.1655064
  H        3.5092610     0.8590810    -0.0866130
  H        2.3729340    -2.4304260     0.8177420
  H        2.3794720    -2.4140780    -0.9605130
  H        3.7041390    -1.6305860    -0.0592400
  H       -2.8879820     0.5691470     0.1693100
  H       -2.3258040    -2.8676930    -0.0642460
  H       -3.4596940    -1.6726380    -0.4173570
units angstrom
no_reorient  #important for SAPT in psi4, default
symmetry c1  #important for SAPT in psi4, default
}

set PROPERTIES_ORIGIN ["COM"]
properties('MP2/aug-cc-pvtz', properties = ['dipole'])
--------------------------------------------------------------------------

    Molecular point group: c1
  Charge       = 0
  Multiplicity = 1
  Basis Set: AUG-CC-PVTZ
    Blend: AUG-CC-PVTZ
  Basis Set: (AUG-CC-PVTZ AUX)
    Blend: AUG-CC-PVTZ-JKFIT

    Orbital Energies [Eh]
    ---------------------

    Doubly Occupied:

       1A    -20.520959     2A    -15.633450     3A    -15.629366
       4A    -15.610714     5A    -15.570900     6A    -15.559774
       7A    -11.396094     8A    -11.364342     9A    -11.319194
      10A    -11.307359    11A    -11.290802    12A    -11.247084
      13A     -1.390733    14A     -1.360574    15A     -1.334042
      16A     -1.219112    17A     -1.216252    18A     -1.190458
      19A     -1.029499    20A     -0.987569    21A     -0.901924
      22A     -0.882256    23A     -0.808085    24A     -0.768071
      25A     -0.741663    26A     -0.729453    27A     -0.693553
      28A     -0.674535    29A     -0.652106    30A     -0.638345
      31A     -0.631141    32A     -0.610286    33A     -0.594509
      34A     -0.578143    35A     -0.554003    36A     -0.538851
      37A     -0.493238    38A     -0.459294    39A     -0.440011
      40A     -0.429359    41A     -0.428851    42A     -0.392459
      43A     -0.298492

  @DF-RHF Final Energy:  -578.61968672538114

   => Energetics <=

    Nuclear Repulsion Energy =            693.3987853598271158
    One-Electron Energy =               -2163.8031381495839014
    Two-Electron Energy =                 891.7846660643756422
    Total Energy =                       -578.6196867253811433
  Basis Set: (AUG-CC-PVTZ AUX)
    Blend: AUG-CC-PVTZ-RI
    Molecular point group: c1

    Geometry (in Angstrom), charge = 0, multiplicity = 1:

       Center              X                  Y                   Z               Mass
    ------------   -----------------  -----------------  -----------------  -----------------
         O           -1.469631971121     2.564424748445     0.087662557865    15.994914619570
         N            1.919301028879    -0.583104251555    -0.048368442135    14.003074004430
         N           -1.910136971121     0.306123748445     0.055769557865    14.003074004430
         N           -0.342574971121    -1.467211251555    -0.031487442135    14.003074004430
         N            1.516786028879     1.640923748445    -0.003296442135    14.003074004430
         N           -2.629286971121    -1.916906251555     0.118341557865    14.003074004430
         C            0.557840028879    -0.436892251555    -0.022267442135    12.000000000000
         C            0.333899028879     0.939696748445    -0.002137442135    12.000000000000
         C           -1.022022971121     1.423735748445     0.042441557865    12.000000000000
         C            2.439204028879     0.689514748445    -0.062658442135    12.000000000000
         C           -1.572915971121    -1.026021251555     0.026066557865    12.000000000000
         C            2.633559028879    -1.845622051555    -0.158237842135    12.000000000000
         H            3.509403028879     0.859104748445    -0.079344442135     1.007825032230
         H            2.373076028879    -2.430402251555     0.825010557865     1.007825032230
         H            2.379614028879    -2.414054251555    -0.953244442135     1.007825032230
         H            3.704281028879    -1.630562251555    -0.051971442135     1.007825032230
         H           -2.887839971121     0.569170748445     0.176578557865     1.007825032230
         H           -2.325661971121    -2.867669251555    -0.056977442135     1.007825032230
         H           -3.459551971121    -1.672614251555    -0.410088442135     1.007825032230

  Basis Set: AUG-CC-PVTZ
    Blend: AUG-CC-PVTZ
  Basis Set: (AUG-CC-PVTZ AUX)
    Blend: AUG-CC-PVTZ-JKFIT
	 Reference Energy          =    -578.6196867253811433 [Eh]
	 Singles Energy            =      -0.0000000000000000 [Eh]
	 Same-Spin Energy          =      -0.6162226667161462 [Eh]
	 Opposite-Spin Energy      =      -1.8202835741022751 [Eh]
	 Correlation Energy        =      -2.4365062408184213 [Eh]
	 Total Energy              =    -581.0561929661995464 [Eh]

	 ================> DF-SCS-MP2 Energies <==================
	-----------------------------------------------------------
	 SCS Same-Spin Scale       =       0.3333333333333333 [-]
	 SCS Opposite-Spin Scale   =       1.2000000000000000 [-]
	 SCS Same-Spin Energy      =      -0.2054075555720487 [Eh]
	 SCS Opposite-Spin Energy  =      -2.1843402889227299 [Eh]
	 SCS Correlation Energy    =      -2.3897478444947788 [Eh]
	 SCS Total Energy          =    -581.0094345698759071 [Eh]
	-----------------------------------------------------------

  Dipole Moment: [D]
     X:    -0.0221      Y:    -6.7742      Z:    -1.0349     Total:     6.8528

*** Psi4 exiting successfully. Buy a developer a beer!
