                               Psi4 1.3.2 release

  ==> Input File <==

--------------------------------------------------------------------------
#psi4
#
memory 32 gb

molecule  {
0 1
  O       -1.4697740     2.5644010     0.0803940
  N        1.9191590    -0.5831280    -0.0556370
  N       -1.9102790     0.3061000     0.0485010
  N       -0.3427170    -1.4672350    -0.0387560
  N        1.5166440     1.6409000    -0.0105650
  N       -2.6294290    -1.9169300     0.1110730
  C        0.5576980    -0.4369160    -0.0295360
  C        0.3337570     0.9396730    -0.0094060
  C       -1.0270556     1.4282508    -0.2147379
  C        2.4390620     0.6894910    -0.0699270
  C       -1.5730580    -1.0260450     0.0187980
  C        2.6353690    -1.8453210    -0.0655260
  H        3.5092610     0.8590810    -0.0866130
  H        2.3729340    -2.4304260     0.8177420
  H        2.3794720    -2.4140780    -0.9605130
  H        3.7041390    -1.6305860    -0.0592400
  H       -2.8879820     0.5691470     0.1693100
  H       -2.3258040    -2.8676930    -0.0642460
  H       -3.4596940    -1.6726380    -0.4173570
units angstrom
no_reorient  #important for SAPT in psi4, default
symmetry c1  #important for SAPT in psi4, default
}

set PROPERTIES_ORIGIN ["COM"]
properties('MP2/aug-cc-pvtz', properties = ['dipole'])
--------------------------------------------------------------------------

    Molecular point group: c1
  Charge       = 0
  Multiplicity = 1
  Basis Set: AUG-CC-PVTZ
    Blend: AUG-CC-PVTZ
  Basis Set: (AUG-CC-PVTZ AUX)
    Blend: AUG-CC-PVTZ-JKFIT

    Orbital Energies [Eh]
    ---------------------

    Doubly Occupied:

       1A    -20.525317     2A    -15.632965     3A    -15.629286
       4A    -15.609475     5A    -15.570624     6A    -15.559292
       7A    -11.394262     8A    -11.373059     9A    -11.319126
      10A    -11.308323    11A    -11.289453    12A    -11.251142
      13A     -1.383813    14A     -1.355435    15A     -1.329459
      16A     -1.216343    17A     -1.212582    18A     -1.189871
      19A     -1.027429    20A     -0.985520    21A     -0.899115
      22A     -0.877770    23A     -0.806381    24A     -0.765151
      25A     -0.739481    26A     -0.727951    27A     -0.692448
      28A     -0.670063    29A     -0.647771    30A     -0.637878
      31A     -0.625086    32A     -0.604222    33A     -0.592595
      34A     -0.577632    35A     -0.559779    36A     -0.535209
      37A     -0.493423    38A     -0.458246    39A     -0.438882
      40A     -0.429206    41A     -0.424250    42A     -0.390548
      43A     -0.296651

  @DF-RHF Final Energy:  -578.59933693701487

   => Energetics <=

    Nuclear Repulsion Energy =            692.3111745253502249
    One-Electron Energy =               -2161.7159980669366632
    Two-Electron Energy =                 890.8054866045715698
    Total Energy =                       -578.5993369370148685
  Basis Set: (AUG-CC-PVTZ AUX)
    Blend: AUG-CC-PVTZ-RI
    Molecular point group: c1

    Geometry (in Angstrom), charge = 0, multiplicity = 1:

       Center              X                  Y                   Z               Mass
    ------------   -----------------  -----------------  -----------------  -----------------
         O           -1.469418338993     2.564071171498     0.098562296437    15.994914619570
         N            1.919514661007    -0.583457828502    -0.037468703563    14.003074004430
         N           -1.909923338993     0.305770171498     0.066669296437    14.003074004430
         N           -0.342361338993    -1.467564828502    -0.020587703563    14.003074004430
         N            1.516999661007     1.640570171498     0.007603296437    14.003074004430
         N           -2.629073338993    -1.917259828502     0.129241296437    14.003074004430
         C            0.558053661007    -0.437245828502    -0.011367703563    12.000000000000
         C            0.334112661007     0.939343171498     0.008762296437    12.000000000000
         C           -1.026699938993     1.427920971498    -0.196569603563    12.000000000000
         C            2.439417661007     0.689161171498    -0.051758703563    12.000000000000
         C           -1.572702338993    -1.026374828502     0.036966296437    12.000000000000
         C            2.635724661007    -1.845650828502    -0.047357703563    12.000000000000
         H            3.509616661007     0.858751171498    -0.068444703563     1.007825032230
         H            2.373289661007    -2.430755828502     0.835910296437     1.007825032230
         H            2.379827661007    -2.414407828502    -0.942344703563     1.007825032230
         H            3.704494661007    -1.630915828502    -0.041071703563     1.007825032230
         H           -2.887626338993     0.568817171498     0.187478296437     1.007825032230
         H           -2.325448338993    -2.868022828502    -0.046077703563     1.007825032230
         H           -3.459338338993    -1.672967828502    -0.399188703563     1.007825032230

  Basis Set: AUG-CC-PVTZ
    Blend: AUG-CC-PVTZ
  Basis Set: (AUG-CC-PVTZ AUX)
    Blend: AUG-CC-PVTZ-JKFIT
	 Reference Energy          =    -578.5993369370148685 [Eh]
	 Singles Energy            =      -0.0000000000000000 [Eh]
	 Same-Spin Energy          =      -0.6182035969089890 [Eh]
	 Opposite-Spin Energy      =      -1.8246081035228690 [Eh]
	 Correlation Energy        =      -2.4428117004318581 [Eh]
	 Total Energy              =    -581.0421486374467577 [Eh]

	 ================> DF-SCS-MP2 Energies <==================
	-----------------------------------------------------------
	 SCS Same-Spin Scale       =       0.3333333333333333 [-]
	 SCS Opposite-Spin Scale   =       1.2000000000000000 [-]
	 SCS Same-Spin Energy      =      -0.2060678656363296 [Eh]
	 SCS Opposite-Spin Energy  =      -2.1895297242274427 [Eh]
	 SCS Correlation Energy    =      -2.3955975898637725 [Eh]
	 SCS Total Energy          =    -580.9949345268786374 [Eh]
	-----------------------------------------------------------

  Dipole Moment: [D]
     X:     0.0372      Y:    -6.7206      Z:    -1.1863     Total:     6.8246

*** Psi4 exiting successfully. Buy a developer a beer!
