                               Psi4 1.3.2 release

  ==> Input File <==

--------------------------------------------------------------------------
#psi4
#
memory 32 gb

molecule  {
0 1
  O       -1.4697740     2.5644010     0.0803940
  N        1.9191590    -0.5831280    -0.0556370
  N       -1.9102790     0.3061000     0.0485010
  N       -0.3427170    -1.4672350    -0.0387560
  N        1.5166440     1.6409000    -0.0105650
  N       -2.6294290    -1.9169300     0.1110730
  C        0.5576980    -0.4369160    -0.0295360
  C        0.3337570     0.9396730    -0.0094060
  C       -1.0221650     1.4237120     0.0351730
  C        2.4390620     0.6894910    -0.0699270
  C       -1.5730580    -1.0260450     0.0187980
  C        2.6353690    -1.8453210    -0.0655260
  H        3.5043857     0.8612366    -0.2365183
  H        2.3729340    -2.4304260     0.8177420
  H        2.3794720    -2.4140780    -0.9605130
  H        3.7041390    -1.6305860    -0.0592400
  H       -2.8879820     0.5691470     0.1693100
  H       -2.3258040    -2.8676930    -0.0642460
  H       -3.4596940    -1.6726380    -0.4173570
units angstrom
no_reorient  #important for SAPT in psi4, default
symmetry c1  #important for SAPT in psi4, default
}

set PROPERTIES_ORIGIN ["COM"]
properties('MP2/aug-cc-pvtz', properties = ['dipole'])
--------------------------------------------------------------------------

    Molecular point group: c1
  Charge       = 0
  Multiplicity = 1
  Basis Set: AUG-CC-PVTZ
    Blend: AUG-CC-PVTZ
  Basis Set: (AUG-CC-PVTZ AUX)
    Blend: AUG-CC-PVTZ-JKFIT

    Orbital Energies [Eh]
    ---------------------

    Doubly Occupied:

       1A    -20.520974     2A    -15.632776     3A    -15.629366
       4A    -15.610776     5A    -15.570925     6A    -15.559712
       7A    -11.396125     8A    -11.364349     9A    -11.319241
      10A    -11.307972    11A    -11.289283    12A    -11.247092
      13A     -1.390744    14A     -1.360597    15A     -1.334064
      16A     -1.219150    17A     -1.216267    18A     -1.190688
      19A     -1.029282    20A     -0.986421    21A     -0.901243
      22A     -0.882183    23A     -0.807368    24A     -0.766832
      25A     -0.741222    26A     -0.728865    27A     -0.691886
      28A     -0.672133    29A     -0.649570    30A     -0.640935
      31A     -0.626775    32A     -0.610521    33A     -0.592904
      34A     -0.578273    35A     -0.561079    36A     -0.541491
      37A     -0.493860    38A     -0.458997    39A     -0.440196
      40A     -0.429571    41A     -0.428414    42A     -0.392753
      43A     -0.298324

  @DF-RHF Final Energy:  -578.62953917631717

   => Energetics <=

    Nuclear Repulsion Energy =            693.4152710259274954
    One-Electron Energy =               -2163.8672156993670797
    Two-Electron Energy =                 891.8224054971224177
    Total Energy =                       -578.6295391763171665
  Basis Set: (AUG-CC-PVTZ AUX)
    Blend: AUG-CC-PVTZ-RI
    Molecular point group: c1

    Geometry (in Angstrom), charge = 0, multiplicity = 1:

       Center              X                  Y                   Z               Mass
    ------------   -----------------  -----------------  -----------------  -----------------
         O           -1.469744112059     2.564387974656     0.081309387260    15.994914619570
         N            1.919188887941    -0.583141025344    -0.054721612740    14.003074004430
         N           -1.910249112059     0.306086974656     0.049416387260    14.003074004430
         N           -0.342687112059    -1.467248025344    -0.037840612740    14.003074004430
         N            1.516673887941     1.640886974656    -0.009649612740    14.003074004430
         N           -2.629399112059    -1.916943025344     0.111988387260    14.003074004430
         C            0.557727887941    -0.436929025344    -0.028620612740    12.000000000000
         C            0.333786887941     0.939659974656    -0.008490612740    12.000000000000
         C           -1.022135112059     1.423698974656     0.036088387260    12.000000000000
         C            2.439091887941     0.689477974656    -0.069011612740    12.000000000000
         C           -1.573028112059    -1.026058025344     0.019713387260    12.000000000000
         C            2.635398887941    -1.845334025344    -0.064610612740    12.000000000000
         H            3.504415587941     0.861223574656    -0.235602912740     1.007825032230
         H            2.372963887941    -2.430439025344     0.818657387260     1.007825032230
         H            2.379501887941    -2.414091025344    -0.959597612740     1.007825032230
         H            3.704168887941    -1.630599025344    -0.058324612740     1.007825032230
         H           -2.887952112059     0.569133974656     0.170225387260     1.007825032230
         H           -2.325774112059    -2.867706025344    -0.063330612740     1.007825032230
         H           -3.459664112059    -1.672651025344    -0.416441612740     1.007825032230

  Basis Set: AUG-CC-PVTZ
    Blend: AUG-CC-PVTZ
  Basis Set: (AUG-CC-PVTZ AUX)
    Blend: AUG-CC-PVTZ-JKFIT
	 Reference Energy          =    -578.6295391763171665 [Eh]
	 Singles Energy            =      -0.0000000000000000 [Eh]
	 Same-Spin Energy          =      -0.6161549206839250 [Eh]
	 Opposite-Spin Energy      =      -1.8199684997368035 [Eh]
	 Correlation Energy        =      -2.4361234204207287 [Eh]
	 Total Energy              =    -581.0656625967378659 [Eh]

	 ================> DF-SCS-MP2 Energies <==================
	-----------------------------------------------------------
	 SCS Same-Spin Scale       =       0.3333333333333333 [-]
	 SCS Opposite-Spin Scale   =       1.2000000000000000 [-]
	 SCS Same-Spin Energy      =      -0.2053849735613083 [Eh]
	 SCS Opposite-Spin Energy  =      -2.1839621996841641 [Eh]
	 SCS Correlation Energy    =      -2.3893471732454725 [Eh]
	 SCS Total Energy          =    -581.0188863495626492 [Eh]
	-----------------------------------------------------------

  Dipole Moment: [D]
     X:    -0.0332      Y:    -6.7890      Z:    -1.0415     Total:     6.8685

*** Psi4 exiting successfully. Buy a developer a beer!
