                               Psi4 1.3.2 release

  ==> Input File <==

--------------------------------------------------------------------------
#psi4
#
memory 32 gb

molecule  {
0 1
  O       -1.4697740     2.5644010     0.0803940
  N        1.9191590    -0.5831280    -0.0556370
  N       -1.9102790     0.3061000     0.0485010
  N       -0.3427170    -1.4672350    -0.0387560
  N        1.5166440     1.6409000    -0.0105650
  N       -2.6294290    -1.9169300     0.1110730
  C        0.5576980    -0.4369160    -0.0295360
  C        0.3400583     0.9356213     0.1904536
  C       -1.0221650     1.4237120     0.0351730
  C        2.4390620     0.6894910    -0.0699270
  C       -1.5730580    -1.0260450     0.0187980
  C        2.6353690    -1.8453210    -0.0655260
  H        3.5092610     0.8590810    -0.0866130
  H        2.3729340    -2.4304260     0.8177420
  H        2.3794720    -2.4140780    -0.9605130
  H        3.7041390    -1.6305860    -0.0592400
  H       -2.8879820     0.5691470     0.1693100
  H       -2.3258040    -2.8676930    -0.0642460
  H       -3.4596940    -1.6726380    -0.4173570
units angstrom
no_reorient  #important for SAPT in psi4, default
symmetry c1  #important for SAPT in psi4, default
}

set PROPERTIES_ORIGIN ["COM"]
properties('MP2/aug-cc-pvtz', properties = ['dipole'])
--------------------------------------------------------------------------

    Molecular point group: c1
  Charge       = 0
  Multiplicity = 1
  Basis Set: AUG-CC-PVTZ
    Blend: AUG-CC-PVTZ
  Basis Set: (AUG-CC-PVTZ AUX)
    Blend: AUG-CC-PVTZ-JKFIT

    Orbital Energies [Eh]
    ---------------------

    Doubly Occupied:

       1A    -20.521561     2A    -15.632927     3A    -15.629237
       4A    -15.611579     5A    -15.571183     6A    -15.559512
       7A    -11.397426     8A    -11.364971     9A    -11.321997
      10A    -11.307009    11A    -11.289486    12A    -11.248585
      13A     -1.390412    14A     -1.360082    15A     -1.334160
      16A     -1.219365    17A     -1.215907    18A     -1.189003
      19A     -1.026985    20A     -0.985400    21A     -0.899405
      22A     -0.882300    23A     -0.806883    24A     -0.763611
      25A     -0.740830    26A     -0.729331    27A     -0.693233
      28A     -0.670240    29A     -0.648026    30A     -0.640996
      31A     -0.628341    32A     -0.609744    33A     -0.591330
      34A     -0.578559    35A     -0.559789    36A     -0.539855
      37A     -0.492708    38A     -0.461296    39A     -0.438229
      40A     -0.431055    41A     -0.424467    42A     -0.391564
      43A     -0.298434

  @DF-RHF Final Energy:  -578.61967955289333

   => Energetics <=

    Nuclear Repulsion Energy =            692.8776750943197840
    One-Electron Energy =               -2162.8006821210028647
    Two-Electron Energy =                 891.3033274737897500
    Total Energy =                       -578.6196795528933308
  Basis Set: (AUG-CC-PVTZ AUX)
    Blend: AUG-CC-PVTZ-RI
    Molecular point group: c1

    Geometry (in Angstrom), charge = 0, multiplicity = 1:

       Center              X                  Y                   Z               Mass
    ------------   -----------------  -----------------  -----------------  -----------------
         O           -1.470231974538     2.564695688885     0.065864607391    15.994914619570
         N            1.918701025462    -0.582833311115    -0.070166392609    14.003074004430
         N           -1.910736974538     0.306394688885     0.033971607391    14.003074004430
         N           -0.343174974538    -1.466940311115    -0.053285392609    14.003074004430
         N            1.516186025462     1.641194688885    -0.025094392609    14.003074004430
         N           -2.629886974538    -1.916635311115     0.096543607391    14.003074004430
         C            0.557240025462    -0.436621311115    -0.044065392609    12.000000000000
         C            0.339600325462     0.935915988885     0.175924207391    12.000000000000
         C           -1.022622974538     1.424006688885     0.020643607391    12.000000000000
         C            2.438604025462     0.689785688885    -0.084456392609    12.000000000000
         C           -1.573515974538    -1.025750311115     0.004268607391    12.000000000000
         C            2.634911025462    -1.845026311115    -0.080055392609    12.000000000000
         H            3.508803025462     0.859375688885    -0.101142392609     1.007825032230
         H            2.372476025462    -2.430131311115     0.803212607391     1.007825032230
         H            2.379014025462    -2.413783311115    -0.975042392609     1.007825032230
         H            3.703681025462    -1.630291311115    -0.073769392609     1.007825032230
         H           -2.888439974538     0.569441688885     0.154780607391     1.007825032230
         H           -2.326261974538    -2.867398311115    -0.078775392609     1.007825032230
         H           -3.460151974538    -1.672343311115    -0.431886392609     1.007825032230

  Basis Set: AUG-CC-PVTZ
    Blend: AUG-CC-PVTZ
  Basis Set: (AUG-CC-PVTZ AUX)
    Blend: AUG-CC-PVTZ-JKFIT
	 Reference Energy          =    -578.6196795528933308 [Eh]
	 Singles Energy            =      -0.0000000000000000 [Eh]
	 Same-Spin Energy          =      -0.6162693079535599 [Eh]
	 Opposite-Spin Energy      =      -1.8203116940565958 [Eh]
	 Correlation Energy        =      -2.4365810020101559 [Eh]
	 Total Energy              =    -581.0562605549034743 [Eh]

	 ================> DF-SCS-MP2 Energies <==================
	-----------------------------------------------------------
	 SCS Same-Spin Scale       =       0.3333333333333333 [-]
	 SCS Opposite-Spin Scale   =       1.2000000000000000 [-]
	 SCS Same-Spin Energy      =      -0.2054231026511866 [Eh]
	 SCS Opposite-Spin Energy  =      -2.1843740328679147 [Eh]
	 SCS Correlation Energy    =      -2.3897971355191014 [Eh]
	 SCS Total Energy          =    -581.0094766884124056 [Eh]
	-----------------------------------------------------------

  Dipole Moment: [D]
     X:    -0.0492      Y:    -6.8028      Z:    -0.9348     Total:     6.8669

*** Psi4 exiting successfully. Buy a developer a beer!
