                               Psi4 1.3.2 release

  ==> Input File <==

--------------------------------------------------------------------------
#psi4
#
memory 32 gb

molecule  {
0 1
  O       -1.4697740     2.5644010     0.0803940
  N        1.9191590    -0.5831280    -0.0556370
  N       -1.9102790     0.3061000     0.0485010
  N       -0.3427170    -1.4672350    -0.0387560
  N        1.5166440     1.6409000    -0.0105650
  N       -2.6294290    -1.9169300     0.1110730
  C        0.5576980    -0.4369160    -0.0295360
  C        0.3337570     0.9396730    -0.0094060
  C       -1.0221650     1.4237120     0.0351730
  C        2.4390620     0.6894910    -0.0699270
  C       -1.5730580    -1.0260450     0.0187980
  C        2.6353690    -1.8453210    -0.0655260
  H        3.5092610     0.8590810    -0.0866130
  H        2.3729340    -2.4304260     0.8177420
  H        2.3794720    -2.4140780    -0.9605130
  H        3.7041390    -1.6305860    -0.0592400
  H       -2.8921441     0.5704159     0.1194997
  H       -2.3258040    -2.8676930    -0.0642460
  H       -3.4596940    -1.6726380    -0.4173570
units angstrom
no_reorient  #important for SAPT in psi4, default
symmetry c1  #important for SAPT in psi4, default
}

set PROPERTIES_ORIGIN ["COM"]
properties('MP2/aug-cc-pvtz', properties = ['dipole'])
--------------------------------------------------------------------------

    Molecular point group: c1
  Charge       = 0
  Multiplicity = 1
  Basis Set: AUG-CC-PVTZ
    Blend: AUG-CC-PVTZ
  Basis Set: (AUG-CC-PVTZ AUX)
    Blend: AUG-CC-PVTZ-JKFIT

    Orbital Energies [Eh]
    ---------------------

    Doubly Occupied:

       1A    -20.520835     2A    -15.632851     3A    -15.629396
       4A    -15.610734     5A    -15.570856     6A    -15.559581
       7A    -11.396077     8A    -11.364278     9A    -11.319107
      10A    -11.307261    11A    -11.289368    12A    -11.246949
      13A     -1.390667    14A     -1.360549    15A     -1.334018
      16A     -1.219116    17A     -1.216220    18A     -1.190653
      19A     -1.029413    20A     -0.986462    21A     -0.901667
      22A     -0.882267    23A     -0.807905    24A     -0.766778
      25A     -0.741475    26A     -0.729228    27A     -0.692024
      28A     -0.671307    29A     -0.649633    30A     -0.643052
      31A     -0.625688    32A     -0.610443    33A     -0.593792
      34A     -0.578493    35A     -0.560968    36A     -0.541687
      37A     -0.493803    38A     -0.459229    39A     -0.439910
      40A     -0.429724    41A     -0.428297    42A     -0.392709
      43A     -0.298385

  @DF-RHF Final Energy:  -578.63071955780811

   => Energetics <=

    Nuclear Repulsion Energy =            693.4495073702919399
    One-Electron Energy =               -2163.9347463350227372
    Two-Electron Energy =                 891.8545194069226909
    Total Energy =                       -578.6307195578081064
  Basis Set: (AUG-CC-PVTZ AUX)
    Blend: AUG-CC-PVTZ-RI
    Molecular point group: c1

    Geometry (in Angstrom), charge = 0, multiplicity = 1:

       Center              X                  Y                   Z               Mass
    ------------   -----------------  -----------------  -----------------  -----------------
         O           -1.469748466589     2.564393388512     0.080698244922    15.994914619570
         N            1.919184533411    -0.583135611488    -0.055332755078    14.003074004430
         N           -1.910253466589     0.306092388512     0.048805244922    14.003074004430
         N           -0.342691466589    -1.467242611488    -0.038451755078    14.003074004430
         N            1.516669533411     1.640892388512    -0.010260755078    14.003074004430
         N           -2.629403466589    -1.916937611488     0.111377244922    14.003074004430
         C            0.557723533411    -0.436923611488    -0.029231755078    12.000000000000
         C            0.333782533411     0.939665388512    -0.009101755078    12.000000000000
         C           -1.022139466589     1.423704388512     0.035477244922    12.000000000000
         C            2.439087533411     0.689483388512    -0.069622755078    12.000000000000
         C           -1.573032466589    -1.026052611488     0.019102244922    12.000000000000
         C            2.635394533411    -1.845328611488    -0.065221755078    12.000000000000
         H            3.509286533411     0.859073388512    -0.086308755078     1.007825032230
         H            2.372959533411    -2.430433611488     0.818046244922     1.007825032230
         H            2.379497533411    -2.414085611488    -0.960208755078     1.007825032230
         H            3.704164533411    -1.630593611488    -0.058935755078     1.007825032230
         H           -2.892118566589     0.570408288512     0.119803944922     1.007825032230
         H           -2.325778466589    -2.867700611488    -0.063941755078     1.007825032230
         H           -3.459668466589    -1.672645611488    -0.417052755078     1.007825032230

  Basis Set: AUG-CC-PVTZ
    Blend: AUG-CC-PVTZ
  Basis Set: (AUG-CC-PVTZ AUX)
    Blend: AUG-CC-PVTZ-JKFIT
	 Reference Energy          =    -578.6307195578081064 [Eh]
	 Singles Energy            =      -0.0000000000000000 [Eh]
	 Same-Spin Energy          =      -0.6160707447165608 [Eh]
	 Opposite-Spin Energy      =      -1.8198121197408581 [Eh]
	 Correlation Energy        =      -2.4358828644574189 [Eh]
	 Total Energy              =    -581.0666024222655324 [Eh]

	 ================> DF-SCS-MP2 Energies <==================
	-----------------------------------------------------------
	 SCS Same-Spin Scale       =       0.3333333333333333 [-]
	 SCS Opposite-Spin Scale   =       1.2000000000000000 [-]
	 SCS Same-Spin Energy      =      -0.2053569149055202 [Eh]
	 SCS Opposite-Spin Energy  =      -2.1837745436890295 [Eh]
	 SCS Correlation Energy    =      -2.3891314585945498 [Eh]
	 SCS Total Energy          =    -581.0198510164026402 [Eh]
	-----------------------------------------------------------

  Dipole Moment: [D]
     X:    -0.0200      Y:    -6.7901      Z:    -1.0019     Total:     6.8637

*** Psi4 exiting successfully. Buy a developer a beer!
