                               Psi4 1.3.2 release

  ==> Input File <==

--------------------------------------------------------------------------
#psi4
#
memory 32 gb

molecule  {
0 1
  O       -1.4697740     2.5644010     0.0803940
  N        1.9191590    -0.5831280    -0.0556370
  N       -1.9102790     0.3061000     0.0485010
  N       -0.3427170    -1.4672350    -0.0387560
  N        1.5166440     1.6409000    -0.0105650
  N       -2.6294290    -1.9169300     0.1110730
  C        0.5576980    -0.4369160    -0.0295360
  C        0.3323834     0.9412782    -0.1093837
  C       -1.0221650     1.4237120     0.0351730
  C        2.4390620     0.6894910    -0.0699270
  C       -1.5730580    -1.0260450     0.0187980
  C        2.6353690    -1.8453210    -0.0655260
  H        3.5092610     0.8590810    -0.0866130
  H        2.3729340    -2.4304260     0.8177420
  H        2.3794720    -2.4140780    -0.9605130
  H        3.7041390    -1.6305860    -0.0592400
  H       -2.8879820     0.5691470     0.1693100
  H       -2.3258040    -2.8676930    -0.0642460
  H       -3.4596940    -1.6726380    -0.4173570
units angstrom
no_reorient  #important for SAPT in psi4, default
symmetry c1  #important for SAPT in psi4, default
}

set PROPERTIES_ORIGIN ["COM"]
properties('MP2/aug-cc-pvtz', properties = ['dipole'])
--------------------------------------------------------------------------

    Molecular point group: c1
  Charge       = 0
  Multiplicity = 1
  Basis Set: AUG-CC-PVTZ
    Blend: AUG-CC-PVTZ
  Basis Set: (AUG-CC-PVTZ AUX)
    Blend: AUG-CC-PVTZ-JKFIT

    Orbital Energies [Eh]
    ---------------------

    Doubly Occupied:

       1A    -20.521047     2A    -15.632957     3A    -15.629314
       4A    -15.610983     5A    -15.570956     6A    -15.559691
       7A    -11.396384     8A    -11.364535     9A    -11.319966
      10A    -11.307279    11A    -11.289429    12A    -11.247549
      13A     -1.390555    14A     -1.360422    15A     -1.334045
      16A     -1.219145    17A     -1.216103    18A     -1.190202
      19A     -1.028648    20A     -0.986150    21A     -0.900935
      22A     -0.882187    23A     -0.807612    24A     -0.765739
      25A     -0.740993    26A     -0.729019    27A     -0.692090
      28A     -0.671520    29A     -0.649178    30A     -0.642777
      31A     -0.625733    32A     -0.610237    33A     -0.592888
      34A     -0.578624    35A     -0.560380    36A     -0.541697
      37A     -0.493552    38A     -0.459455    39A     -0.440109
      40A     -0.430398    41A     -0.426702    42A     -0.392246
      43A     -0.298388

  @DF-RHF Final Energy:  -578.62741829569632

   => Energetics <=

    Nuclear Repulsion Energy =            693.2528773157412161
    One-Electron Energy =               -2163.5449591107781089
    Two-Electron Energy =                 891.6646634993405769
    Total Energy =                       -578.6274182956963159
  Basis Set: (AUG-CC-PVTZ AUX)
    Blend: AUG-CC-PVTZ-RI
    Molecular point group: c1

    Geometry (in Angstrom), charge = 0, multiplicity = 1:

       Center              X                  Y                   Z               Mass
    ------------   -----------------  -----------------  -----------------  -----------------
         O           -1.469674019995     2.564284440133     0.087662361579    15.994914619570
         N            1.919258980005    -0.583244559867    -0.048368638421    14.003074004430
         N           -1.910179019995     0.305983440133     0.055769361579    14.003074004430
         N           -0.342617019995    -1.467351559867    -0.031487638421    14.003074004430
         N            1.516743980005     1.640783440133    -0.003296638421    14.003074004430
         N           -2.629329019995    -1.917046559867     0.118341361579    14.003074004430
         C            0.557797980005    -0.437032559867    -0.022267638421    12.000000000000
         C            0.332483380005     0.941161640133    -0.102115338421    12.000000000000
         C           -1.022065019995     1.423595440133     0.042441361579    12.000000000000
         C            2.439161980005     0.689374440133    -0.062658638421    12.000000000000
         C           -1.572958019995    -1.026161559867     0.026066361579    12.000000000000
         C            2.635468980005    -1.845437559867    -0.058257638421    12.000000000000
         H            3.509360980005     0.858964440133    -0.079344638421     1.007825032230
         H            2.373033980005    -2.430542559867     0.825010361579     1.007825032230
         H            2.379571980005    -2.414194559867    -0.953244638421     1.007825032230
         H            3.704238980005    -1.630702559867    -0.051971638421     1.007825032230
         H           -2.887882019995     0.569030440133     0.176578361579     1.007825032230
         H           -2.325704019995    -2.867809559867    -0.056977638421     1.007825032230
         H           -3.459594019995    -1.672754559867    -0.410088638421     1.007825032230

  Basis Set: AUG-CC-PVTZ
    Blend: AUG-CC-PVTZ
  Basis Set: (AUG-CC-PVTZ AUX)
    Blend: AUG-CC-PVTZ-JKFIT
	 Reference Energy          =    -578.6274182956963159 [Eh]
	 Singles Energy            =      -0.0000000000000000 [Eh]
	 Same-Spin Energy          =      -0.6161405428891935 [Eh]
	 Opposite-Spin Energy      =      -1.8198238609671809 [Eh]
	 Correlation Energy        =      -2.4359644038563744 [Eh]
	 Total Energy              =    -581.0633826995526761 [Eh]

	 ================> DF-SCS-MP2 Energies <==================
	-----------------------------------------------------------
	 SCS Same-Spin Scale       =       0.3333333333333333 [-]
	 SCS Opposite-Spin Scale   =       1.2000000000000000 [-]
	 SCS Same-Spin Energy      =      -0.2053801809630645 [Eh]
	 SCS Opposite-Spin Energy  =      -2.1837886331606171 [Eh]
	 SCS Correlation Energy    =      -2.3891688141236815 [Eh]
	 SCS Total Energy          =    -581.0165871098199659 [Eh]
	-----------------------------------------------------------

  Dipole Moment: [D]
     X:    -0.0221      Y:    -6.7955      Z:    -0.9398     Total:     6.8602

*** Psi4 exiting successfully. Buy a developer a beer!
