                               Psi4 1.3.2 release

  ==> Input File <==

--------------------------------------------------------------------------
#psi4
#
memory 32 gb

molecule  {
0 1
  O       -1.4697740     2.5644010     0.0803940
  N        1.9191590    -0.5831280    -0.0556370
  N       -1.9102790     0.3061000     0.0485010
  N       -0.3427170    -1.4672350    -0.0387560
  N        1.5166440     1.6409000    -0.0105650
  N       -2.6294290    -1.9169300     0.1110730
  C        0.5576980    -0.4369160    -0.0295360
  C        0.3337570     0.9396730    -0.0094060
  C       -1.0221650     1.4237120     0.0351730
  C        2.4390620     0.6894910    -0.0699270
  C       -1.5730580    -1.0260450     0.0187980
  C        2.6353690    -1.8453210    -0.0655260
  H        3.5092610     0.8590810    -0.0866130
  H        2.3729340    -2.4304260     0.8177420
  H        2.3794720    -2.4140780    -0.9605130
  H        3.7041390    -1.6305860    -0.0592400
  H       -2.8879820     0.5691470     0.1693100
  H       -2.3258040    -2.8676930    -0.0642460
  H       -3.4111035    -1.6837648    -0.6110453
units angstrom
no_reorient  #important for SAPT in psi4, default
symmetry c1  #important for SAPT in psi4, default
}

set PROPERTIES_ORIGIN ["COM"]
properties('MP2/aug-cc-pvtz', properties = ['dipole'])
--------------------------------------------------------------------------

    Molecular point group: c1
  Charge       = 0
  Multiplicity = 1
  Basis Set: AUG-CC-PVTZ
    Blend: AUG-CC-PVTZ
  Basis Set: (AUG-CC-PVTZ AUX)
    Blend: AUG-CC-PVTZ-JKFIT

    Orbital Energies [Eh]
    ---------------------

    Doubly Occupied:

       1A    -20.521299     2A    -15.633821     3A    -15.629517
       4A    -15.616543     5A    -15.572868     6A    -15.560455
       7A    -11.394776     8A    -11.364699     9A    -11.319509
      10A    -11.308332    11A    -11.290090    12A    -11.248341
      13A     -1.391020    14A     -1.361316    15A     -1.333555
      16A     -1.217789    17A     -1.212820    18A     -1.191335
      19A     -1.028950    20A     -0.987223    21A     -0.902155
      22A     -0.879960    23A     -0.804540    24A     -0.765452
      25A     -0.740372    26A     -0.725443    27A     -0.681528
      28A     -0.669152    29A     -0.649776    30A     -0.642801
      31A     -0.620920    32A     -0.610956    33A     -0.594401
      34A     -0.579249    35A     -0.560372    36A     -0.541503
      37A     -0.494723    38A     -0.463345    39A     -0.440619
      40A     -0.429848    41A     -0.429200    42A     -0.393492
      43A     -0.300037

  @DF-RHF Final Energy:  -578.62360622770666

   => Energetics <=

    Nuclear Repulsion Energy =            693.1921133403773183
    One-Electron Energy =               -2163.4232371582488668
    Two-Electron Energy =                 891.6075175901648890
    Total Energy =                       -578.6236062277066594
  Basis Set: (AUG-CC-PVTZ AUX)
    Blend: AUG-CC-PVTZ-RI
    Molecular point group: c1

    Geometry (in Angstrom), charge = 0, multiplicity = 1:

       Center              X                  Y                   Z               Mass
    ------------   -----------------  -----------------  -----------------  -----------------
         O           -1.470070554079     2.564469071984     0.081576709754    15.994914619570
         N            1.918862445921    -0.583059928016    -0.054454290246    14.003074004430
         N           -1.910575554079     0.306168071984     0.049683709754    14.003074004430
         N           -0.343013554079    -1.467166928016    -0.037573290246    14.003074004430
         N            1.516347445921     1.640968071984    -0.009382290246    14.003074004430
         N           -2.629725554079    -1.916861928016     0.112255709754    14.003074004430
         C            0.557401445921    -0.436847928016    -0.028353290246    12.000000000000
         C            0.333460445921     0.939741071984    -0.008223290246    12.000000000000
         C           -1.022461554079     1.423780071984     0.036355709754    12.000000000000
         C            2.438765445921     0.689559071984    -0.068744290246    12.000000000000
         C           -1.573354554079    -1.025976928016     0.019980709754    12.000000000000
         C            2.635072445921    -1.845252928016    -0.064343290246    12.000000000000
         H            3.508964445921     0.859149071984    -0.085430290246     1.007825032230
         H            2.372637445921    -2.430357928016     0.818924709754     1.007825032230
         H            2.379175445921    -2.414009928016    -0.959330290246     1.007825032230
         H            3.703842445921    -1.630517928016    -0.058057290246     1.007825032230
         H           -2.888278554079     0.569215071984     0.170492709754     1.007825032230
         H           -2.326100554079    -2.867624928016    -0.063063290246     1.007825032230
         H           -3.411400054079    -1.683696728016    -0.609862590246     1.007825032230

  Basis Set: AUG-CC-PVTZ
    Blend: AUG-CC-PVTZ
  Basis Set: (AUG-CC-PVTZ AUX)
    Blend: AUG-CC-PVTZ-JKFIT
	 Reference Energy          =    -578.6236062277066594 [Eh]
	 Singles Energy            =      -0.0000000000000000 [Eh]
	 Same-Spin Energy          =      -0.6165953955860205 [Eh]
	 Opposite-Spin Energy      =      -1.8214423193295570 [Eh]
	 Correlation Energy        =      -2.4380377149155774 [Eh]
	 Total Energy              =    -581.0616439426222541 [Eh]

	 ================> DF-SCS-MP2 Energies <==================
	-----------------------------------------------------------
	 SCS Same-Spin Scale       =       0.3333333333333333 [-]
	 SCS Opposite-Spin Scale   =       1.2000000000000000 [-]
	 SCS Same-Spin Energy      =      -0.2055317985286735 [Eh]
	 SCS Opposite-Spin Energy  =      -2.1857307831954684 [Eh]
	 SCS Correlation Energy    =      -2.3912625817241420 [Eh]
	 SCS Total Energy          =    -581.0148688094308227 [Eh]
	-----------------------------------------------------------

  Dipole Moment: [D]
     X:     0.2643      Y:    -6.7354      Z:    -1.1316     Total:     6.8349

*** Psi4 exiting successfully. Buy a developer a beer!
