                               Psi4 1.3.2 release

  ==> Input File <==

--------------------------------------------------------------------------
#psi4
#
memory 32 gb

molecule  {
0 1
  O       -1.4697740     2.5644010     0.0803940
  N        1.9191590    -0.5831280    -0.0556370
  N       -1.9102790     0.3061000     0.0485010
  N       -0.3427170    -1.4672350    -0.0387560
  N        1.5166440     1.6409000    -0.0105650
  N       -2.6454112    -1.9187820    -0.1384087
  C        0.5576980    -0.4369160    -0.0295360
  C        0.3337570     0.9396730    -0.0094060
  C       -1.0221650     1.4237120     0.0351730
  C        2.4390620     0.6894910    -0.0699270
  C       -1.5730580    -1.0260450     0.0187980
  C        2.6353690    -1.8453210    -0.0655260
  H        3.5092610     0.8590810    -0.0866130
  H        2.3729340    -2.4304260     0.8177420
  H        2.3794720    -2.4140780    -0.9605130
  H        3.7041390    -1.6305860    -0.0592400
  H       -2.8879820     0.5691470     0.1693100
  H       -2.3258040    -2.8676930    -0.0642460
  H       -3.4596940    -1.6726380    -0.4173570
units angstrom
no_reorient  #important for SAPT in psi4, default
symmetry c1  #important for SAPT in psi4, default
}

set PROPERTIES_ORIGIN ["COM"]
properties('MP2/aug-cc-pvtz', properties = ['dipole'])
--------------------------------------------------------------------------

    Molecular point group: c1
  Charge       = 0
  Multiplicity = 1
  Basis Set: AUG-CC-PVTZ
    Blend: AUG-CC-PVTZ
  Basis Set: (AUG-CC-PVTZ AUX)
    Blend: AUG-CC-PVTZ-JKFIT

    Orbital Energies [Eh]
    ---------------------

    Doubly Occupied:

       1A    -20.520476     2A    -15.632242     3A    -15.629048
       4A    -15.597234     5A    -15.569727     6A    -15.559017
       7A    -11.400139     8A    -11.363802     9A    -11.319313
      10A    -11.306601    11A    -11.288927    12A    -11.246017
      13A     -1.389942    14A     -1.360027    15A     -1.332631
      16A     -1.225419    17A     -1.216200    18A     -1.190185
      19A     -1.031698    20A     -0.985979    21A     -0.901211
      22A     -0.887788    23A     -0.819714    24A     -0.773172
      25A     -0.746434    26A     -0.733426    27A     -0.709736
      28A     -0.671046    29A     -0.650305    30A     -0.640022
      31A     -0.627500    32A     -0.609837    33A     -0.593248
      34A     -0.578063    35A     -0.559595    36A     -0.540491
      37A     -0.493232    38A     -0.449809    39A     -0.439187
      40A     -0.429085    41A     -0.428349    42A     -0.392114
      43A     -0.296669

  @DF-RHF Final Energy:  -578.61446799371390

   => Energetics <=

    Nuclear Repulsion Energy =            693.4845084897601737
    One-Electron Energy =               -2163.9286410758818420
    Two-Electron Energy =                 891.8296645924077666
    Total Energy =                       -578.6144679937139017
  Basis Set: (AUG-CC-PVTZ AUX)
    Blend: AUG-CC-PVTZ-RI
    Molecular point group: c1

    Geometry (in Angstrom), charge = 0, multiplicity = 1:

       Center              X                  Y                   Z               Mass
    ------------   -----------------  -----------------  -----------------  -----------------
         O           -1.468418050201     2.564558247885     0.101558568988    15.994914619570
         N            1.920514949799    -0.582970752115    -0.034472431012    14.003074004430
         N           -1.908923050201     0.306257247885     0.069665568988    14.003074004430
         N           -0.341361050201    -1.467077752115    -0.017591431012    14.003074004430
         N            1.517999949799     1.641057247885     0.010599568988    14.003074004430
         N           -2.644055250201    -1.918624752115    -0.117244131012    14.003074004430
         C            0.559053949799    -0.436758752115    -0.008371431012    12.000000000000
         C            0.335112949799     0.939830247885     0.011758568988    12.000000000000
         C           -1.020809050201     1.423869247885     0.056337568988    12.000000000000
         C            2.440417949799     0.689648247885    -0.048762431012    12.000000000000
         C           -1.571702050201    -1.025887752115     0.039962568988    12.000000000000
         C            2.636724949799    -1.845163752115    -0.044361431012    12.000000000000
         H            3.510616949799     0.859238247885    -0.065448431012     1.007825032230
         H            2.374289949799    -2.430268752115     0.838906568988     1.007825032230
         H            2.380827949799    -2.413920752115    -0.939348431012     1.007825032230
         H            3.705494949799    -1.630428752115    -0.038075431012     1.007825032230
         H           -2.886626050201     0.569304247885     0.190474568988     1.007825032230
         H           -2.324448050201    -2.867535752115    -0.043081431012     1.007825032230
         H           -3.458338050201    -1.672480752115    -0.396192431012     1.007825032230

  Basis Set: AUG-CC-PVTZ
    Blend: AUG-CC-PVTZ
  Basis Set: (AUG-CC-PVTZ AUX)
    Blend: AUG-CC-PVTZ-JKFIT
	 Reference Energy          =    -578.6144679937139017 [Eh]
	 Singles Energy            =      -0.0000000000000000 [Eh]
	 Same-Spin Energy          =      -0.6156938303930608 [Eh]
	 Opposite-Spin Energy      =      -1.8183996267863640 [Eh]
	 Correlation Energy        =      -2.4340934571794248 [Eh]
	 Total Energy              =    -581.0485614508933168 [Eh]

	 ================> DF-SCS-MP2 Energies <==================
	-----------------------------------------------------------
	 SCS Same-Spin Scale       =       0.3333333333333333 [-]
	 SCS Opposite-Spin Scale   =       1.2000000000000000 [-]
	 SCS Same-Spin Energy      =      -0.2052312767976869 [Eh]
	 SCS Opposite-Spin Energy  =      -2.1820795521436369 [Eh]
	 SCS Correlation Energy    =      -2.3873108289413238 [Eh]
	 SCS Total Energy          =    -581.0017788226551829 [Eh]
	-----------------------------------------------------------

  Dipole Moment: [D]
     X:    -0.1801      Y:    -6.8384      Z:    -0.3430     Total:     6.8494

*** Psi4 exiting successfully. Buy a developer a beer!
