                               Psi4 1.3.2 release

  ==> Input File <==

--------------------------------------------------------------------------
#psi4
#
memory 32 gb

molecule  {
0 1
  O       -1.4697740     2.5644010     0.0803940
  N        1.9191590    -0.5831280    -0.0556370
  N       -1.9102790     0.3061000     0.0485010
  N       -0.3427170    -1.4672350    -0.0387560
  N        1.5166440     1.6409000    -0.0105650
  N       -2.6294290    -1.9169300     0.1110730
  C        0.5576980    -0.4369160    -0.0295360
  C        0.3337570     0.9396730    -0.0094060
  C       -1.0221650     1.4237120     0.0351730
  C        2.4390620     0.6894910    -0.0699270
  C       -1.5730580    -1.0260450     0.0187980
  C        2.6353690    -1.8453210    -0.0655260
  H        3.5092610     0.8590810    -0.0866130
  H        2.3729340    -2.4304260     0.8177420
  H        2.3794720    -2.4140780    -0.9605130
  H        3.7041390    -1.6305860    -0.0592400
  H       -2.8879820     0.5691470     0.1693100
  H       -2.3258040    -2.8676930    -0.0642460
  H       -3.4475464    -1.6754197    -0.4657791
units angstrom
no_reorient  #important for SAPT in psi4, default
symmetry c1  #important for SAPT in psi4, default
}

set PROPERTIES_ORIGIN ["COM"]
properties('MP2/aug-cc-pvtz', properties = ['dipole'])
--------------------------------------------------------------------------

    Molecular point group: c1
  Charge       = 0
  Multiplicity = 1
  Basis Set: AUG-CC-PVTZ
    Blend: AUG-CC-PVTZ
  Basis Set: (AUG-CC-PVTZ AUX)
    Blend: AUG-CC-PVTZ-JKFIT

    Orbital Energies [Eh]
    ---------------------

    Doubly Occupied:

       1A    -20.520994     2A    -15.633111     3A    -15.629385
       4A    -15.611884     5A    -15.571370     6A    -15.559809
       7A    -11.395706     8A    -11.364385     9A    -11.319220
      10A    -11.307541    11A    -11.289559    12A    -11.247306
      13A     -1.390772    14A     -1.360759    15A     -1.333929
      16A     -1.218358    17A     -1.215941    18A     -1.190832
      19A     -1.029323    20A     -0.986660    21A     -0.901761
      22A     -0.881628    23A     -0.806966    24A     -0.766413
      25A     -0.740927    26A     -0.728398    27A     -0.689655
      28A     -0.670951    29A     -0.649716    30A     -0.642384
      31A     -0.625510    32A     -0.610602    33A     -0.593888
      34A     -0.578717    35A     -0.560922    36A     -0.541601
      37A     -0.493981    38A     -0.460298    39A     -0.440102
      40A     -0.429458    41A     -0.428924    42A     -0.392914
      43A     -0.298823

  @DF-RHF Final Energy:  -578.62991219185960

   => Energetics <=

    Nuclear Repulsion Energy =            693.3979876352968859
    One-Electron Energy =               -2163.8330266346620192
    Two-Electron Energy =                 891.8051268075055305
    Total Energy =                       -578.6299121918596029
  Basis Set: (AUG-CC-PVTZ AUX)
    Blend: AUG-CC-PVTZ-RI
    Molecular point group: c1

    Geometry (in Angstrom), charge = 0, multiplicity = 1:

       Center              X                  Y                   Z               Mass
    ------------   -----------------  -----------------  -----------------  -----------------
         O           -1.469848047469     2.564418119949     0.080689769097    15.994914619570
         N            1.919084952531    -0.583110880051    -0.055341230903    14.003074004430
         N           -1.910353047469     0.306117119949     0.048796769097    14.003074004430
         N           -0.342791047469    -1.467217880051    -0.038460230903    14.003074004430
         N            1.516569952531     1.640917119949    -0.010269230903    14.003074004430
         N           -2.629503047469    -1.916912880051     0.111368769097    14.003074004430
         C            0.557623952531    -0.436898880051    -0.029240230903    12.000000000000
         C            0.333682952531     0.939690119949    -0.009110230903    12.000000000000
         C           -1.022239047469     1.423729119949     0.035468769097    12.000000000000
         C            2.438987952531     0.689508119949    -0.069631230903    12.000000000000
         C           -1.573132047469    -1.026027880051     0.019093769097    12.000000000000
         C            2.635294952531    -1.845303880051    -0.065230230903    12.000000000000
         H            3.509186952531     0.859098119949    -0.086317230903     1.007825032230
         H            2.372859952531    -2.430408880051     0.818037769097     1.007825032230
         H            2.379397952531    -2.414060880051    -0.960217230903     1.007825032230
         H            3.704064952531    -1.630568880051    -0.058944230903     1.007825032230
         H           -2.888056047469     0.569164119949     0.169605769097     1.007825032230
         H           -2.325878047469    -2.867675880051    -0.063950230903     1.007825032230
         H           -3.447620447469    -1.675402580051    -0.465483330903     1.007825032230

  Basis Set: AUG-CC-PVTZ
    Blend: AUG-CC-PVTZ
  Basis Set: (AUG-CC-PVTZ AUX)
    Blend: AUG-CC-PVTZ-JKFIT
	 Reference Energy          =    -578.6299121918596029 [Eh]
	 Singles Energy            =      -0.0000000000000000 [Eh]
	 Same-Spin Energy          =      -0.6161829421710103 [Eh]
	 Opposite-Spin Energy      =      -1.8201486545823808 [Eh]
	 Correlation Energy        =      -2.4363315967533912 [Eh]
	 Total Energy              =    -581.0662437886129510 [Eh]

	 ================> DF-SCS-MP2 Energies <==================
	-----------------------------------------------------------
	 SCS Same-Spin Scale       =       0.3333333333333333 [-]
	 SCS Opposite-Spin Scale   =       1.2000000000000000 [-]
	 SCS Same-Spin Energy      =      -0.2053943140570034 [Eh]
	 SCS Opposite-Spin Energy  =      -2.1841783854988570 [Eh]
	 SCS Correlation Energy    =      -2.3895726995558606 [Eh]
	 SCS Total Energy          =    -581.0194848914154591 [Eh]
	-----------------------------------------------------------

  Dipole Moment: [D]
     X:     0.0555      Y:    -6.7764      Z:    -0.9912     Total:     6.8488

*** Psi4 exiting successfully. Buy a developer a beer!
