                               Psi4 1.3.2 release

  ==> Input File <==

--------------------------------------------------------------------------
#psi4
#
memory 32 gb

molecule  {
0 1
  O       -1.4697740     2.5644010     0.0803940
  N        1.9191590    -0.5831280    -0.0556370
  N       -1.9102790     0.3061000     0.0485010
  N       -0.3427170    -1.4672350    -0.0387560
  N        1.5166440     1.6409000    -0.0105650
  N       -2.6294290    -1.9169300     0.1110730
  C        0.5576980    -0.4369160    -0.0295360
  C        0.3384830     0.9366343     0.1404887
  C       -1.0221650     1.4237120     0.0351730
  C        2.4390620     0.6894910    -0.0699270
  C       -1.5730580    -1.0260450     0.0187980
  C        2.6353690    -1.8453210    -0.0655260
  H        3.5092610     0.8590810    -0.0866130
  H        2.3729340    -2.4304260     0.8177420
  H        2.3794720    -2.4140780    -0.9605130
  H        3.7041390    -1.6305860    -0.0592400
  H       -2.8879820     0.5691470     0.1693100
  H       -2.3258040    -2.8676930    -0.0642460
  H       -3.4596940    -1.6726380    -0.4173570
units angstrom
no_reorient  #important for SAPT in psi4, default
symmetry c1  #important for SAPT in psi4, default
}

set PROPERTIES_ORIGIN ["COM"]
properties('MP2/aug-cc-pvtz', properties = ['dipole'])
--------------------------------------------------------------------------

    Molecular point group: c1
  Charge       = 0
  Multiplicity = 1
  Basis Set: AUG-CC-PVTZ
    Blend: AUG-CC-PVTZ
  Basis Set: (AUG-CC-PVTZ AUX)
    Blend: AUG-CC-PVTZ-JKFIT

    Orbital Energies [Eh]
    ---------------------

    Doubly Occupied:

       1A    -20.521309     2A    -15.632864     3A    -15.629260
       4A    -15.611162     5A    -15.571025     6A    -15.559515
       7A    -11.396809     8A    -11.364706     9A    -11.320648
      10A    -11.307082    11A    -11.289417    12A    -11.247848
      13A     -1.390541    14A     -1.360317    15A     -1.334099
      16A     -1.219222    17A     -1.216040    18A     -1.189789
      19A     -1.028043    20A     -0.985854    21A     -0.900333
      22A     -0.882255    23A     -0.807316    24A     -0.765046
      25A     -0.741018    26A     -0.729411    27A     -0.692857
      28A     -0.670463    29A     -0.648714    30A     -0.641237
      31A     -0.627907    32A     -0.610087    33A     -0.592409
      34A     -0.578499    35A     -0.560416    36A     -0.540472
      37A     -0.493142    38A     -0.460561    39A     -0.438808
      40A     -0.430764    41A     -0.425982    42A     -0.392139
      43A     -0.298381

  @DF-RHF Final Energy:  -578.62466267665945

   => Energetics <=

    Nuclear Repulsion Energy =            693.1420551239914403
    One-Electron Energy =               -2163.3259081079609132
    Two-Electron Energy =                 891.5591903073100184
    Total Energy =                       -578.6246626766594545
  Basis Set: (AUG-CC-PVTZ AUX)
    Blend: AUG-CC-PVTZ-RI
    Molecular point group: c1

    Geometry (in Angstrom), charge = 0, multiplicity = 1:

       Center              X                  Y                   Z               Mass
    ------------   -----------------  -----------------  -----------------  -----------------
         O           -1.470117452422     2.564622045196     0.069496986045    15.994914619570
         N            1.918815547578    -0.582906954804    -0.066534013955    14.003074004430
         N           -1.910622452422     0.306321045196     0.037603986045    14.003074004430
         N           -0.343060452422    -1.467013954804    -0.049653013955    14.003074004430
         N            1.516300547578     1.641121045196    -0.021462013955    14.003074004430
         N           -2.629772452422    -1.916708954804     0.100175986045    14.003074004430
         C            0.557354547578    -0.436694954804    -0.040433013955    12.000000000000
         C            0.338139547578     0.936855345196     0.129591686045    12.000000000000
         C           -1.022508452422     1.423933045196     0.024275986045    12.000000000000
         C            2.438718547578     0.689712045196    -0.080824013955    12.000000000000
         C           -1.573401452422    -1.025823954804     0.007900986045    12.000000000000
         C            2.635025547578    -1.845099954804    -0.076423013955    12.000000000000
         H            3.508917547578     0.859302045196    -0.097510013955     1.007825032230
         H            2.372590547578    -2.430204954804     0.806844986045     1.007825032230
         H            2.379128547578    -2.413856954804    -0.971410013955     1.007825032230
         H            3.703795547578    -1.630364954804    -0.070137013955     1.007825032230
         H           -2.888325452422     0.569368045196     0.158412986045     1.007825032230
         H           -2.326147452422    -2.867471954804    -0.075143013955     1.007825032230
         H           -3.460037452422    -1.672416954804    -0.428254013955     1.007825032230

  Basis Set: AUG-CC-PVTZ
    Blend: AUG-CC-PVTZ
  Basis Set: (AUG-CC-PVTZ AUX)
    Blend: AUG-CC-PVTZ-JKFIT
	 Reference Energy          =    -578.6246626766594545 [Eh]
	 Singles Energy            =      -0.0000000000000000 [Eh]
	 Same-Spin Energy          =      -0.6161768678950665 [Eh]
	 Opposite-Spin Energy      =      -1.8199453372715484 [Eh]
	 Correlation Energy        =      -2.4361222051666149 [Eh]
	 Total Energy              =    -581.0607848818260663 [Eh]

	 ================> DF-SCS-MP2 Energies <==================
	-----------------------------------------------------------
	 SCS Same-Spin Scale       =       0.3333333333333333 [-]
	 SCS Opposite-Spin Scale   =       1.2000000000000000 [-]
	 SCS Same-Spin Energy      =      -0.2053922892983555 [Eh]
	 SCS Opposite-Spin Energy  =      -2.1839344047258580 [Eh]
	 SCS Correlation Energy    =      -2.3893266940242137 [Eh]
	 SCS Total Energy          =    -581.0139893706837029 [Eh]
	-----------------------------------------------------------

  Dipole Moment: [D]
     X:    -0.0339      Y:    -6.7959      Z:    -0.9333     Total:     6.8597

*** Psi4 exiting successfully. Buy a developer a beer!
