                               Psi4 1.3.2 release

  ==> Input File <==

--------------------------------------------------------------------------
#psi4
#
memory 32 gb

molecule  {
0 1
  O       -1.4697740     2.5644010     0.0803940
  N        1.9191590    -0.5831280    -0.0556370
  N       -1.9102790     0.3061000     0.0485010
  N       -0.3427170    -1.4672350    -0.0387560
  N        1.5166440     1.6409000    -0.0105650
  N       -2.6294290    -1.9169300     0.1110730
  C        0.5576980    -0.4369160    -0.0295360
  C        0.3337570     0.9396730    -0.0094060
  C       -1.0221650     1.4237120     0.0351730
  C        2.4390620     0.6894910    -0.0699270
  C       -1.5730580    -1.0260450     0.0187980
  C        2.6353690    -1.8453210    -0.0655260
  H        3.5092610     0.8590810    -0.0866130
  H        2.3729340    -2.4304260     0.8177420
  H        2.3794720    -2.4140780    -0.9605130
  H        3.7041390    -1.6305860    -0.0592400
  H       -2.9129548     0.5767605    -0.1295518
  H       -2.3258040    -2.8676930    -0.0642460
  H       -3.4596940    -1.6726380    -0.4173570
units angstrom
no_reorient  #important for SAPT in psi4, default
symmetry c1  #important for SAPT in psi4, default
}

set PROPERTIES_ORIGIN ["COM"]
properties('MP2/aug-cc-pvtz', properties = ['dipole'])
--------------------------------------------------------------------------

    Molecular point group: c1
  Charge       = 0
  Multiplicity = 1
  Basis Set: AUG-CC-PVTZ
    Blend: AUG-CC-PVTZ
  Basis Set: (AUG-CC-PVTZ AUX)
    Blend: AUG-CC-PVTZ-JKFIT

    Orbital Energies [Eh]
    ---------------------

    Doubly Occupied:

       1A    -20.520834     2A    -15.632928     3A    -15.631537
       4A    -15.610700     5A    -15.570980     6A    -15.559598
       7A    -11.395784     8A    -11.364038     9A    -11.319151
      10A    -11.307247    11A    -11.289397    12A    -11.246926
      13A     -1.389929    14A     -1.360473    15A     -1.333494
      16A     -1.218184    17A     -1.215009    18A     -1.189826
      19A     -1.029261    20A     -0.986277    21A     -0.900430
      22A     -0.880585    23A     -0.807194    24A     -0.765952
      25A     -0.737574    26A     -0.726810    27A     -0.690710
      28A     -0.672103    29A     -0.649620    30A     -0.646490
      31A     -0.620401    32A     -0.610300    33A     -0.592670
      34A     -0.578406    35A     -0.560430    36A     -0.541874
      37A     -0.493959    38A     -0.458840    39A     -0.439828
      40A     -0.431743    41A     -0.425839    42A     -0.392754
      43A     -0.298356

  @DF-RHF Final Energy:  -578.62628792439477

   => Energetics <=

    Nuclear Repulsion Energy =            693.2531809301029853
    One-Electron Energy =               -2163.5700515739731600
    Two-Electron Energy =                 891.6905827194752874
    Total Energy =                       -578.6262879243947737
  Basis Set: (AUG-CC-PVTZ AUX)
    Blend: AUG-CC-PVTZ-RI
    Molecular point group: c1

    Geometry (in Angstrom), charge = 0, multiplicity = 1:

       Center              X                  Y                   Z               Mass
    ------------   -----------------  -----------------  -----------------  -----------------
         O           -1.469621404300     2.564354650776     0.082218859498    15.994914619570
         N            1.919311595700    -0.583174349224    -0.053812140502    14.003074004430
         N           -1.910126404300     0.306053650776     0.050325859498    14.003074004430
         N           -0.342564404300    -1.467281349224    -0.036931140502    14.003074004430
         N            1.516796595700     1.640853650776    -0.008740140502    14.003074004430
         N           -2.629276404300    -1.916976349224     0.112897859498    14.003074004430
         C            0.557850595700    -0.436962349224    -0.027711140502    12.000000000000
         C            0.333909595700     0.939626650776    -0.007581140502    12.000000000000
         C           -1.022012404300     1.423665650776     0.036997859498    12.000000000000
         C            2.439214595700     0.689444650776    -0.068102140502    12.000000000000
         C           -1.572905404300    -1.026091349224     0.020622859498    12.000000000000
         C            2.635521595700    -1.845367349224    -0.063701140502    12.000000000000
         H            3.509413595700     0.859034650776    -0.084788140502     1.007825032230
         H            2.373086595700    -2.430472349224     0.819566859498     1.007825032230
         H            2.379624595700    -2.414124349224    -0.958688140502     1.007825032230
         H            3.704291595700    -1.630632349224    -0.057415140502     1.007825032230
         H           -2.912802204300     0.576714150776    -0.127726940502     1.007825032230
         H           -2.325651404300    -2.867739349224    -0.062421140502     1.007825032230
         H           -3.459541404300    -1.672684349224    -0.415532140502     1.007825032230

  Basis Set: AUG-CC-PVTZ
    Blend: AUG-CC-PVTZ
  Basis Set: (AUG-CC-PVTZ AUX)
    Blend: AUG-CC-PVTZ-JKFIT
	 Reference Energy          =    -578.6262879243947737 [Eh]
	 Singles Energy            =      -0.0000000000000000 [Eh]
	 Same-Spin Energy          =      -0.6163748539724223 [Eh]
	 Opposite-Spin Energy      =      -1.8205479558814410 [Eh]
	 Correlation Energy        =      -2.4369228098538631 [Eh]
	 Total Energy              =    -581.0632107342486279 [Eh]

	 ================> DF-SCS-MP2 Energies <==================
	-----------------------------------------------------------
	 SCS Same-Spin Scale       =       0.3333333333333333 [-]
	 SCS Opposite-Spin Scale   =       1.2000000000000000 [-]
	 SCS Same-Spin Energy      =      -0.2054582846574741 [Eh]
	 SCS Opposite-Spin Energy  =      -2.1846575470577290 [Eh]
	 SCS Correlation Energy    =      -2.3901158317152031 [Eh]
	 SCS Total Energy          =    -581.0164037561099803 [Eh]
	-----------------------------------------------------------

  Dipole Moment: [D]
     X:    -0.0194      Y:    -6.7834      Z:    -1.3213     Total:     6.9109

*** Psi4 exiting successfully. Buy a developer a beer!
