                               Psi4 1.3.2 release

  ==> Input File <==

--------------------------------------------------------------------------
#psi4
#
memory 32 gb

molecule  {
0 1
  O       -1.4697740     2.5644010     0.0803940
  N        1.9191590    -0.5831280    -0.0556370
  N       -1.9102790     0.3061000     0.0485010
  N       -0.3427170    -1.4672350    -0.0387560
  N        1.5166440     1.6409000    -0.0105650
  N       -2.6294290    -1.9169300     0.1110730
  C        0.5576980    -0.4369160    -0.0295360
  C        0.3316966     0.9420808    -0.1593725
  C       -1.0221650     1.4237120     0.0351730
  C        2.4390620     0.6894910    -0.0699270
  C       -1.5730580    -1.0260450     0.0187980
  C        2.6353690    -1.8453210    -0.0655260
  H        3.5092610     0.8590810    -0.0866130
  H        2.3729340    -2.4304260     0.8177420
  H        2.3794720    -2.4140780    -0.9605130
  H        3.7041390    -1.6305860    -0.0592400
  H       -2.8879820     0.5691470     0.1693100
  H       -2.3258040    -2.8676930    -0.0642460
  H       -3.4596940    -1.6726380    -0.4173570
units angstrom
no_reorient  #important for SAPT in psi4, default
symmetry c1  #important for SAPT in psi4, default
}

set PROPERTIES_ORIGIN ["COM"]
properties('MP2/aug-cc-pvtz', properties = ['dipole'])
--------------------------------------------------------------------------

    Molecular point group: c1
  Charge       = 0
  Multiplicity = 1
  Basis Set: AUG-CC-PVTZ
    Blend: AUG-CC-PVTZ
  Basis Set: (AUG-CC-PVTZ AUX)
    Blend: AUG-CC-PVTZ-JKFIT

    Orbital Energies [Eh]
    ---------------------

    Doubly Occupied:

       1A    -20.521213     2A    -15.633048     3A    -15.629313
       4A    -15.611323     5A    -15.571077     6A    -15.559760
       7A    -11.396824     8A    -11.364770     9A    -11.321024
      10A    -11.307272    11A    -11.289495    12A    -11.248182
      13A     -1.390431    14A     -1.360232    15A     -1.334088
      16A     -1.219245    17A     -1.215984    18A     -1.189614
      19A     -1.027804    20A     -0.985802    21A     -0.900207
      22A     -0.882207    23A     -0.807279    24A     -0.764559
      25A     -0.740792    26A     -0.728799    27A     -0.692172
      28A     -0.671683    29A     -0.648667    30A     -0.643097
      31A     -0.625364    32A     -0.609965    33A     -0.591985
      34A     -0.578716    35A     -0.559728    36A     -0.541551
      37A     -0.493288    38A     -0.459874    39A     -0.439972
      40A     -0.430608    41A     -0.425400    42A     -0.391722
      43A     -0.298420

  @DF-RHF Final Energy:  -578.62353708735827

   => Energetics <=

    Nuclear Repulsion Energy =            693.0319332602682607
    One-Electron Energy =               -2163.1058266400532375
    Two-Electron Energy =                 891.4503562924267044
    Total Energy =                       -578.6235370873582724
  Basis Set: (AUG-CC-PVTZ AUX)
    Blend: AUG-CC-PVTZ-RI
    Molecular point group: c1

    Geometry (in Angstrom), charge = 0, multiplicity = 1:

       Center              X                  Y                   Z               Mass
    ------------   -----------------  -----------------  -----------------  -----------------
         O           -1.469624090592     2.564226092230     0.091296477730    15.994914619570
         N            1.919308909408    -0.583302907770    -0.044734522270    14.003074004430
         N           -1.910129090592     0.305925092230     0.059403477730    14.003074004430
         N           -0.342567090592    -1.467409907770    -0.027853522270    14.003074004430
         N            1.516793909408     1.640725092230     0.000337477730    14.003074004430
         N           -2.629279090592    -1.917104907770     0.121975477730    14.003074004430
         C            0.557847909408    -0.437090907770    -0.018633522270    12.000000000000
         C            0.331846509408     0.941905892230    -0.148470022270    12.000000000000
         C           -1.022015090592     1.423537092230     0.046075477730    12.000000000000
         C            2.439211909408     0.689316092230    -0.059024522270    12.000000000000
         C           -1.572908090592    -1.026219907770     0.029700477730    12.000000000000
         C            2.635518909408    -1.845495907770    -0.054623522270    12.000000000000
         H            3.509410909408     0.858906092230    -0.075710522270     1.007825032230
         H            2.373083909408    -2.430600907770     0.828644477730     1.007825032230
         H            2.379621909408    -2.414252907770    -0.949610522270     1.007825032230
         H            3.704288909408    -1.630760907770    -0.048337522270     1.007825032230
         H           -2.887832090592     0.568972092230     0.180212477730     1.007825032230
         H           -2.325654090592    -2.867867907770    -0.053343522270     1.007825032230
         H           -3.459544090592    -1.672812907770    -0.406454522270     1.007825032230

  Basis Set: AUG-CC-PVTZ
    Blend: AUG-CC-PVTZ
  Basis Set: (AUG-CC-PVTZ AUX)
    Blend: AUG-CC-PVTZ-JKFIT
	 Reference Energy          =    -578.6235370873582724 [Eh]
	 Singles Energy            =      -0.0000000000000000 [Eh]
	 Same-Spin Energy          =      -0.6162187132429794 [Eh]
	 Opposite-Spin Energy      =      -1.8200633187655346 [Eh]
	 Correlation Energy        =      -2.4362820320085139 [Eh]
	 Total Energy              =    -581.0598191193668072 [Eh]

	 ================> DF-SCS-MP2 Energies <==================
	-----------------------------------------------------------
	 SCS Same-Spin Scale       =       0.3333333333333333 [-]
	 SCS Opposite-Spin Scale   =       1.2000000000000000 [-]
	 SCS Same-Spin Energy      =      -0.2054062377476598 [Eh]
	 SCS Opposite-Spin Energy  =      -2.1840759825186415 [Eh]
	 SCS Correlation Energy    =      -2.3894822202663013 [Eh]
	 SCS Total Energy          =    -581.0130193076245178 [Eh]
	-----------------------------------------------------------

  Dipole Moment: [D]
     X:    -0.0327      Y:    -6.8017      Z:    -0.9384     Total:     6.8663

*** Psi4 exiting successfully. Buy a developer a beer!
