                               Psi4 1.3.2 release

  ==> Input File <==

--------------------------------------------------------------------------
#psi4
#
memory 32 gb

molecule  {
0 1
  O       -1.4697740     2.5644010     0.0803940
  N        1.9191590    -0.5831280    -0.0556370
  N       -1.9102790     0.3061000     0.0485010
  N       -0.3427170    -1.4672350    -0.0387560
  N        1.5166440     1.6409000    -0.0105650
  N       -2.6294290    -1.9169300     0.1110730
  C        0.5576980    -0.4369160    -0.0295360
  C        0.3337570     0.9396730    -0.0094060
  C       -1.0221650     1.4237120     0.0351730
  C        2.4390620     0.6894910    -0.0699270
  C       -1.5730580    -1.0260450     0.0187980
  C        2.6353690    -1.8453210    -0.0655260
  H        3.5092610     0.8590810    -0.0866130
  H        2.3729340    -2.4304260     0.8177420
  H        2.3794720    -2.4140780    -0.9605130
  H        3.7041390    -1.6305860    -0.0592400
  H       -2.8879820     0.5691470     0.1693100
  H       -2.3258040    -2.8676930    -0.0642460
  H       -3.4232511    -1.6809831    -0.5626232
units angstrom
no_reorient  #important for SAPT in psi4, default
symmetry c1  #important for SAPT in psi4, default
}

set PROPERTIES_ORIGIN ["COM"]
properties('MP2/aug-cc-pvtz', properties = ['dipole'])
--------------------------------------------------------------------------

    Molecular point group: c1
  Charge       = 0
  Multiplicity = 1
  Basis Set: AUG-CC-PVTZ
    Blend: AUG-CC-PVTZ
  Basis Set: (AUG-CC-PVTZ AUX)
    Blend: AUG-CC-PVTZ-JKFIT

    Orbital Energies [Eh]
    ---------------------

    Doubly Occupied:

       1A    -20.521205     2A    -15.633588     3A    -15.629494
       4A    -15.614828     5A    -15.572373     6A    -15.560243
       7A    -11.395065     8A    -11.364602     9A    -11.319412
      10A    -11.308073    11A    -11.289915    12A    -11.248003
      13A     -1.390946    14A     -1.361135    15A     -1.333696
      16A     -1.217783    17A     -1.214144    18A     -1.191177
      19A     -1.029086    20A     -0.987038    21A     -0.902028
      22A     -0.880503    23A     -0.805269    24A     -0.765734
      25A     -0.740523    26A     -0.726400    27A     -0.684136
      28A     -0.670060    29A     -0.649792    30A     -0.642728
      31A     -0.622724    32A     -0.610853    33A     -0.594242
      34A     -0.579085    35A     -0.560591    36A     -0.541557
      37A     -0.494484    38A     -0.462349    39A     -0.440451
      40A     -0.429724    41A     -0.429118    42A     -0.393303
      43A     -0.299648

  @DF-RHF Final Energy:  -578.62641147183331

   => Energetics <=

    Nuclear Repulsion Energy =            693.2673386493040653
    One-Electron Energy =               -2163.5732849203172918
    Two-Electron Energy =                 891.6795347991799190
    Total Energy =                       -578.6264114718333076
  Basis Set: (AUG-CC-PVTZ AUX)
    Blend: AUG-CC-PVTZ-RI
    Molecular point group: c1

    Geometry (in Angstrom), charge = 0, multiplicity = 1:

       Center              X                  Y                   Z               Mass
    ------------   -----------------  -----------------  -----------------  -----------------
         O           -1.469996385413     2.564452087972     0.081281062665    15.994914619570
         N            1.918936614587    -0.583076912028    -0.054749937335    14.003074004430
         N           -1.910501385413     0.306151087972     0.049388062665    14.003074004430
         N           -0.342939385413    -1.467183912028    -0.037868937335    14.003074004430
         N            1.516421614587     1.640951087972    -0.009677937335    14.003074004430
         N           -2.629651385413    -1.916878912028     0.111960062665    14.003074004430
         C            0.557475614587    -0.436864912028    -0.028648937335    12.000000000000
         C            0.333534614587     0.939724087972    -0.008518937335    12.000000000000
         C           -1.022387385413     1.423763087972     0.036060062665    12.000000000000
         C            2.438839614587     0.689542087972    -0.069039937335    12.000000000000
         C           -1.573280385413    -1.025993912028     0.019685062665    12.000000000000
         C            2.635146614587    -1.845269912028    -0.064638937335    12.000000000000
         H            3.509038614587     0.859132087972    -0.085725937335     1.007825032230
         H            2.372711614587    -2.430374912028     0.818629062665     1.007825032230
         H            2.379249614587    -2.414026912028    -0.959625937335     1.007825032230
         H            3.703916614587    -1.630534912028    -0.058352937335     1.007825032230
         H           -2.888204385413     0.569198087972     0.170197062665     1.007825032230
         H           -2.326026385413    -2.867641912028    -0.063358937335     1.007825032230
         H           -3.423473485413    -1.680932012028    -0.561736137335     1.007825032230

  Basis Set: AUG-CC-PVTZ
    Blend: AUG-CC-PVTZ
  Basis Set: (AUG-CC-PVTZ AUX)
    Blend: AUG-CC-PVTZ-JKFIT
	 Reference Energy          =    -578.6264114718333076 [Eh]
	 Singles Energy            =      -0.0000000000000000 [Eh]
	 Same-Spin Energy          =      -0.6164453547457094 [Eh]
	 Opposite-Spin Energy      =      -1.8209621529847577 [Eh]
	 Correlation Energy        =      -2.4374075077304669 [Eh]
	 Total Energy              =    -581.0638189795637345 [Eh]

	 ================> DF-SCS-MP2 Energies <==================
	-----------------------------------------------------------
	 SCS Same-Spin Scale       =       0.3333333333333333 [-]
	 SCS Opposite-Spin Scale   =       1.2000000000000000 [-]
	 SCS Same-Spin Energy      =      -0.2054817849152364 [Eh]
	 SCS Opposite-Spin Energy  =      -2.1851545835817090 [Eh]
	 SCS Correlation Energy    =      -2.3906363684969456 [Eh]
	 SCS Total Energy          =    -581.0170478403302923 [Eh]
	-----------------------------------------------------------

  Dipole Moment: [D]
     X:     0.1942      Y:    -6.7486      Z:    -1.0882     Total:     6.8385

*** Psi4 exiting successfully. Buy a developer a beer!
