                               Psi4 1.3.2 release

  ==> Input File <==

--------------------------------------------------------------------------
#psi4
#
memory 32 gb

molecule  {
0 1
  O       -1.4697740     2.5644010     0.0803940
  N        1.9191590    -0.5831280    -0.0556370
  N       -1.9102790     0.3061000     0.0485010
  N       -0.3427170    -1.4672350    -0.0387560
  N        1.5166440     1.6409000    -0.0105650
  N       -2.6294290    -1.9169300     0.1110730
  C        0.5576980    -0.4369160    -0.0295360
  C        0.3337570     0.9396730    -0.0094060
  C       -1.0221650     1.4237120     0.0351730
  C        2.4390620     0.6894910    -0.0699270
  C       -1.5730580    -1.0260450     0.0187980
  C        2.6295129    -1.8462953    -0.3654673
  H        3.5092610     0.8590810    -0.0866130
  H        2.3729340    -2.4304260     0.8177420
  H        2.3794720    -2.4140780    -0.9605130
  H        3.7041390    -1.6305860    -0.0592400
  H       -2.8879820     0.5691470     0.1693100
  H       -2.3258040    -2.8676930    -0.0642460
  H       -3.4596940    -1.6726380    -0.4173570
units angstrom
no_reorient  #important for SAPT in psi4, default
symmetry c1  #important for SAPT in psi4, default
}

set PROPERTIES_ORIGIN ["COM"]
properties('MP2/aug-cc-pvtz', properties = ['dipole'])
--------------------------------------------------------------------------

    Molecular point group: c1
  Charge       = 0
  Multiplicity = 1
  Basis Set: AUG-CC-PVTZ
    Blend: AUG-CC-PVTZ
  Basis Set: (AUG-CC-PVTZ AUX)
    Blend: AUG-CC-PVTZ-JKFIT

    Orbital Energies [Eh]
    ---------------------

    Doubly Occupied:

       1A    -20.521621     2A    -15.637320     3A    -15.629916
       4A    -15.610988     5A    -15.571260     6A    -15.561466
       7A    -11.396530     8A    -11.365009     9A    -11.319844
      10A    -11.308289    11A    -11.302322    12A    -11.248169
      13A     -1.391264    14A     -1.360657    15A     -1.334395
      16A     -1.219435    17A     -1.216725    18A     -1.189019
      19A     -1.030377    20A     -0.998246    21A     -0.904319
      22A     -0.882870    23A     -0.810679    24A     -0.781587
      25A     -0.744057    26A     -0.730452    27A     -0.703903
      28A     -0.682931    29A     -0.659021    30A     -0.635955
      31A     -0.629120    32A     -0.611412    33A     -0.596942
      34A     -0.575571    35A     -0.547277    36A     -0.510382
      37A     -0.486149    38A     -0.459695    39A     -0.440841
      40A     -0.429913    41A     -0.429452    42A     -0.387505
      43A     -0.299347

  @DF-RHF Final Energy:  -578.52577779267926

   => Energetics <=

    Nuclear Repulsion Energy =            693.0117133415614035
    One-Electron Energy =               -2162.7705133911740631
    Two-Electron Energy =                 891.2330222569332818
    Total Energy =                       -578.5257777926792642
  Basis Set: (AUG-CC-PVTZ AUX)
    Blend: AUG-CC-PVTZ-RI
    Molecular point group: c1

    Geometry (in Angstrom), charge = 0, multiplicity = 1:

       Center              X                  Y                   Z               Mass
    ------------   -----------------  -----------------  -----------------  -----------------
         O           -1.469348148487     2.564471966191     0.102199436850    15.994914619570
         N            1.919584851513    -0.583057033809    -0.033831563150    14.003074004430
         N           -1.909853148487     0.306170966191     0.070306436850    14.003074004430
         N           -0.342291148487    -1.467164033809    -0.016950563150    14.003074004430
         N            1.517069851513     1.640970966191     0.011240436850    14.003074004430
         N           -2.629003148487    -1.916859033809     0.132878436850    14.003074004430
         C            0.558123851513    -0.436845033809    -0.007730563150    12.000000000000
         C            0.334182851513     0.939743966191     0.012399436850    12.000000000000
         C           -1.021739148487     1.423782966191     0.056978436850    12.000000000000
         C            2.439487851513     0.689561966191    -0.048121563150    12.000000000000
         C           -1.572632148487    -1.025974033809     0.040603436850    12.000000000000
         C            2.629938751513    -1.846224333809    -0.343661863150    12.000000000000
         H            3.509686851513     0.859151966191    -0.064807563150     1.007825032230
         H            2.373359851513    -2.430355033809     0.839547436850     1.007825032230
         H            2.379897851513    -2.414007033809    -0.938707563150     1.007825032230
         H            3.704564851513    -1.630515033809    -0.037434563150     1.007825032230
         H           -2.887556148487     0.569217966191     0.191115436850     1.007825032230
         H           -2.325378148487    -2.867622033809    -0.042440563150     1.007825032230
         H           -3.459268148487    -1.672567033809    -0.395551563150     1.007825032230

  Basis Set: AUG-CC-PVTZ
    Blend: AUG-CC-PVTZ
  Basis Set: (AUG-CC-PVTZ AUX)
    Blend: AUG-CC-PVTZ-JKFIT
	 Reference Energy          =    -578.5257777926792642 [Eh]
	 Singles Energy            =      -0.0000000000000000 [Eh]
	 Same-Spin Energy          =      -0.6174192458783773 [Eh]
	 Opposite-Spin Energy      =      -1.8244058776347192 [Eh]
	 Correlation Energy        =      -2.4418251235130963 [Eh]
	 Total Energy              =    -580.9676029161923907 [Eh]

	 ================> DF-SCS-MP2 Energies <==================
	-----------------------------------------------------------
	 SCS Same-Spin Scale       =       0.3333333333333333 [-]
	 SCS Opposite-Spin Scale   =       1.2000000000000000 [-]
	 SCS Same-Spin Energy      =      -0.2058064152927924 [Eh]
	 SCS Opposite-Spin Energy  =      -2.1892870531616628 [Eh]
	 SCS Correlation Energy    =      -2.3950934684544554 [Eh]
	 SCS Total Energy          =    -580.9208712611336978 [Eh]
	-----------------------------------------------------------

  Dipole Moment: [D]
     X:    -0.0871      Y:    -6.6404      Z:    -1.1852     Total:     6.7459

*** Psi4 exiting successfully. Buy a developer a beer!
