                               Psi4 1.3.2 release

  ==> Input File <==

--------------------------------------------------------------------------
#psi4
#
memory 32 gb

molecule  {
0 1
  O       -1.4697740     2.5644010     0.0803940
  N        1.9191590    -0.5831280    -0.0556370
  N       -1.9102790     0.3061000     0.0485010
  N       -0.3427170    -1.4672350    -0.0387560
  N        1.5166440     1.6409000    -0.0105650
  N       -2.6294290    -1.9169300     0.1110730
  C        0.5576980    -0.4369160    -0.0295360
  C        0.3337570     0.9396730    -0.0094060
  C       -1.0221650     1.4237120     0.0351730
  C        2.4390620     0.6894910    -0.0699270
  C       -1.5730580    -1.0260450     0.0187980
  C        2.6353690    -1.8453210    -0.0655260
  H        3.5092610     0.8590810    -0.0866130
  H        2.3729340    -2.4304260     0.8177420
  H        2.3794720    -2.4140780    -0.9605130
  H        3.7041390    -1.6305860    -0.0592400
  H       -2.9004684     0.5729537     0.0198791
  H       -2.3258040    -2.8676930    -0.0642460
  H       -3.4596940    -1.6726380    -0.4173570
units angstrom
no_reorient  #important for SAPT in psi4, default
symmetry c1  #important for SAPT in psi4, default
}

set PROPERTIES_ORIGIN ["COM"]
properties('MP2/aug-cc-pvtz', properties = ['dipole'])
--------------------------------------------------------------------------

    Molecular point group: c1
  Charge       = 0
  Multiplicity = 1
  Basis Set: AUG-CC-PVTZ
    Blend: AUG-CC-PVTZ
  Basis Set: (AUG-CC-PVTZ AUX)
    Blend: AUG-CC-PVTZ-JKFIT

    Orbital Energies [Eh]
    ---------------------

    Doubly Occupied:

       1A    -20.520793     2A    -15.632850     3A    -15.629933
       4A    -15.610774     5A    -15.570871     6A    -15.559576
       7A    -11.396045     8A    -11.364240     9A    -11.319098
      10A    -11.307248    11A    -11.289361    12A    -11.246942
      13A     -1.390507    14A     -1.360518    15A     -1.333920
      16A     -1.218890    17A     -1.216042    18A     -1.190496
      19A     -1.029380    20A     -0.986416    21A     -0.901432
      22A     -0.882000    23A     -0.807752    24A     -0.766566
      25A     -0.740859    26A     -0.728755    27A     -0.691621
      28A     -0.671639    29A     -0.649622    30A     -0.644682
      31A     -0.623682    32A     -0.610399    33A     -0.593681
      34A     -0.578448    35A     -0.560794    36A     -0.541818
      37A     -0.493919    38A     -0.459120    39A     -0.439882
      40A     -0.430544    41A     -0.427281    42A     -0.392712
      43A     -0.298368

  @DF-RHF Final Energy:  -578.62992062758099

   => Energetics <=

    Nuclear Repulsion Energy =            693.4072575176179498
    One-Electron Energy =               -2163.8554038190613937
    Two-Electron Energy =                 891.8182256738625711
    Total Energy =                       -578.6299206275809865
  Basis Set: (AUG-CC-PVTZ AUX)
    Blend: AUG-CC-PVTZ-RI
    Molecular point group: c1

    Geometry (in Angstrom), charge = 0, multiplicity = 1:

       Center              X                  Y                   Z               Mass
    ------------   -----------------  -----------------  -----------------  -----------------
         O           -1.469697641551     2.564377893662     0.081306490753    15.994914619570
         N            1.919235358449    -0.583151106338    -0.054724509247    14.003074004430
         N           -1.910202641551     0.306076893662     0.049413490753    14.003074004430
         N           -0.342640641551    -1.467258106338    -0.037843509247    14.003074004430
         N            1.516720358449     1.640876893662    -0.009652509247    14.003074004430
         N           -2.629352641551    -1.916953106338     0.111985490753    14.003074004430
         C            0.557774358449    -0.436939106338    -0.028623509247    12.000000000000
         C            0.333833358449     0.939649893662    -0.008493509247    12.000000000000
         C           -1.022088641551     1.423688893662     0.036085490753    12.000000000000
         C            2.439138358449     0.689467893662    -0.069014509247    12.000000000000
         C           -1.572981641551    -1.026068106338     0.019710490753    12.000000000000
         C            2.635445358449    -1.845344106338    -0.064613509247    12.000000000000
         H            3.509337358449     0.859057893662    -0.085700509247     1.007825032230
         H            2.373010358449    -2.430449106338     0.818654490753     1.007825032230
         H            2.379548358449    -2.414101106338    -0.959600509247     1.007825032230
         H            3.704215358449    -1.630609106338    -0.058327509247     1.007825032230
         H           -2.900392041551     0.572930593662     0.020791590753     1.007825032230
         H           -2.325727641551    -2.867716106338    -0.063333509247     1.007825032230
         H           -3.459617641551    -1.672661106338    -0.416444509247     1.007825032230

  Basis Set: AUG-CC-PVTZ
    Blend: AUG-CC-PVTZ
  Basis Set: (AUG-CC-PVTZ AUX)
    Blend: AUG-CC-PVTZ-JKFIT
	 Reference Energy          =    -578.6299206275809865 [Eh]
	 Singles Energy            =      -0.0000000000000000 [Eh]
	 Same-Spin Energy          =      -0.6161292186483204 [Eh]
	 Opposite-Spin Energy      =      -1.8199548404356403 [Eh]
	 Correlation Energy        =      -2.4360840590839605 [Eh]
	 Total Energy              =    -581.0660046866649964 [Eh]

	 ================> DF-SCS-MP2 Energies <==================
	-----------------------------------------------------------
	 SCS Same-Spin Scale       =       0.3333333333333333 [-]
	 SCS Opposite-Spin Scale   =       1.2000000000000000 [-]
	 SCS Same-Spin Energy      =      -0.2053764062161068 [Eh]
	 SCS Opposite-Spin Energy  =      -2.1839458085227683 [Eh]
	 SCS Correlation Energy    =      -2.3893222147388751 [Eh]
	 SCS Total Energy          =    -581.0192428423198407 [Eh]
	-----------------------------------------------------------

  Dipole Moment: [D]
     X:    -0.0271      Y:    -6.7879      Z:    -1.1305     Total:     6.8814

*** Psi4 exiting successfully. Buy a developer a beer!
