                               Psi4 1.3.2 release

  ==> Input File <==

--------------------------------------------------------------------------
#psi4
#
memory 32 gb

molecule  {
0 1
  O       -1.4697740     2.5644010     0.0803940
  N        1.9191590    -0.5831280    -0.0556370
  N       -1.9102790     0.3061000     0.0485010
  N       -0.3427170    -1.4672350    -0.0387560
  N        1.5166440     1.6409000    -0.0105650
  N       -2.6326254    -1.9173004     0.0611767
  C        0.5576980    -0.4369160    -0.0295360
  C        0.3337570     0.9396730    -0.0094060
  C       -1.0221650     1.4237120     0.0351730
  C        2.4390620     0.6894910    -0.0699270
  C       -1.5730580    -1.0260450     0.0187980
  C        2.6353690    -1.8453210    -0.0655260
  H        3.5092610     0.8590810    -0.0866130
  H        2.3729340    -2.4304260     0.8177420
  H        2.3794720    -2.4140780    -0.9605130
  H        3.7041390    -1.6305860    -0.0592400
  H       -2.8879820     0.5691470     0.1693100
  H       -2.3258040    -2.8676930    -0.0642460
  H       -3.4596940    -1.6726380    -0.4173570
units angstrom
no_reorient  #important for SAPT in psi4, default
symmetry c1  #important for SAPT in psi4, default
}

set PROPERTIES_ORIGIN ["COM"]
properties('MP2/aug-cc-pvtz', properties = ['dipole'])
--------------------------------------------------------------------------

    Molecular point group: c1
  Charge       = 0
  Multiplicity = 1
  Basis Set: AUG-CC-PVTZ
    Blend: AUG-CC-PVTZ
  Basis Set: (AUG-CC-PVTZ AUX)
    Blend: AUG-CC-PVTZ-JKFIT

    Orbital Energies [Eh]
    ---------------------

    Doubly Occupied:

       1A    -20.520657     2A    -15.632509     3A    -15.629044
       4A    -15.607114     5A    -15.570106     6A    -15.559258
       7A    -11.396712     8A    -11.364019     9A    -11.318950
      10A    -11.306869    11A    -11.289141    12A    -11.246411
      13A     -1.390441    14A     -1.360259    15A     -1.334015
      16A     -1.220930    17A     -1.216168    18A     -1.190342
      19A     -1.029692    20A     -0.986195    21A     -0.901411
      22A     -0.883514    23A     -0.809867    24A     -0.767797
      25A     -0.741749    26A     -0.731132    27A     -0.699632
      28A     -0.671056    29A     -0.649856    30A     -0.641199
      31A     -0.628016    32A     -0.610250    33A     -0.593400
      34A     -0.578290    35A     -0.560735    36A     -0.541278
      37A     -0.493392    38A     -0.456559    39A     -0.439666
      40A     -0.429130    41A     -0.428533    42A     -0.392403
      43A     -0.297704

  @DF-RHF Final Energy:  -578.63112958829686

   => Energetics <=

    Nuclear Repulsion Energy =            693.5551820674056671
    One-Electron Energy =               -2164.1418188006714445
    Two-Electron Energy =                 891.9555071449689194
    Total Energy =                       -578.6311295882968579
  Basis Set: (AUG-CC-PVTZ AUX)
    Blend: AUG-CC-PVTZ-RI
    Molecular point group: c1

    Geometry (in Angstrom), charge = 0, multiplicity = 1:

       Center              X                  Y                   Z               Mass
    ------------   -----------------  -----------------  -----------------  -----------------
         O           -1.469502716476     2.564432558327     0.084627008010    15.994914619570
         N            1.919430283524    -0.583096441673    -0.051403991990    14.003074004430
         N           -1.910007716476     0.306131558327     0.052734008010    14.003074004430
         N           -0.342445716476    -1.467203441673    -0.034522991990    14.003074004430
         N            1.516915283524     1.640931558327    -0.006331991990    14.003074004430
         N           -2.632354116476    -1.917268841673     0.065409708010    14.003074004430
         C            0.557969283524    -0.436884441673    -0.025302991990    12.000000000000
         C            0.334028283524     0.939704558327    -0.005172991990    12.000000000000
         C           -1.021893716476     1.423743558327     0.039406008010    12.000000000000
         C            2.439333283524     0.689522558327    -0.065693991990    12.000000000000
         C           -1.572786716476    -1.026013441673     0.023031008010    12.000000000000
         C            2.635640283524    -1.845289441673    -0.061292991990    12.000000000000
         H            3.509532283524     0.859112558327    -0.082379991990     1.007825032230
         H            2.373205283524    -2.430394441673     0.821975008010     1.007825032230
         H            2.379743283524    -2.414046441673    -0.956279991990     1.007825032230
         H            3.704410283524    -1.630554441673    -0.055006991990     1.007825032230
         H           -2.887710716476     0.569178558327     0.173543008010     1.007825032230
         H           -2.325532716476    -2.867661441673    -0.060012991990     1.007825032230
         H           -3.459422716476    -1.672606441673    -0.413123991990     1.007825032230

  Basis Set: AUG-CC-PVTZ
    Blend: AUG-CC-PVTZ
  Basis Set: (AUG-CC-PVTZ AUX)
    Blend: AUG-CC-PVTZ-JKFIT
	 Reference Energy          =    -578.6311295882968579 [Eh]
	 Singles Energy            =      -0.0000000000000000 [Eh]
	 Same-Spin Energy          =      -0.6158605296863069 [Eh]
	 Opposite-Spin Energy      =      -1.8191440549210178 [Eh]
	 Correlation Energy        =      -2.4350045846073245 [Eh]
	 Total Energy              =    -581.0661341729041851 [Eh]

	 ================> DF-SCS-MP2 Energies <==================
	-----------------------------------------------------------
	 SCS Same-Spin Scale       =       0.3333333333333333 [-]
	 SCS Opposite-Spin Scale   =       1.2000000000000000 [-]
	 SCS Same-Spin Energy      =      -0.2052868432287689 [Eh]
	 SCS Opposite-Spin Energy  =      -2.1829728659052212 [Eh]
	 SCS Correlation Energy    =      -2.3882597091339903 [Eh]
	 SCS Total Energy          =    -581.0193892974308483 [Eh]
	-----------------------------------------------------------

  Dipole Moment: [D]
     X:    -0.0837      Y:    -6.8239      Z:    -0.8357     Total:     6.8754

*** Psi4 exiting successfully. Buy a developer a beer!
