                               Psi4 1.3.2 release

  ==> Input File <==

--------------------------------------------------------------------------
#psi4
#
memory 32 gb

molecule  {
0 1
  O       -1.4697740     2.5644010     0.0803940
  N        1.9191590    -0.5831280    -0.0556370
  N       -1.9102790     0.3061000     0.0485010
  N       -0.3427170    -1.4672350    -0.0387560
  N        1.5166440     1.6409000    -0.0105650
  N       -2.6294290    -1.9169300     0.1110730
  C        0.5576980    -0.4369160    -0.0295360
  C        0.3337570     0.9396730    -0.0094060
  C       -1.0260775     1.4273431    -0.1647558
  C        2.4390620     0.6894910    -0.0699270
  C       -1.5730580    -1.0260450     0.0187980
  C        2.6353690    -1.8453210    -0.0655260
  H        3.5092610     0.8590810    -0.0866130
  H        2.3729340    -2.4304260     0.8177420
  H        2.3794720    -2.4140780    -0.9605130
  H        3.7041390    -1.6305860    -0.0592400
  H       -2.8879820     0.5691470     0.1693100
  H       -2.3258040    -2.8676930    -0.0642460
  H       -3.4596940    -1.6726380    -0.4173570
units angstrom
no_reorient  #important for SAPT in psi4, default
symmetry c1  #important for SAPT in psi4, default
}

set PROPERTIES_ORIGIN ["COM"]
properties('MP2/aug-cc-pvtz', properties = ['dipole'])
--------------------------------------------------------------------------

    Molecular point group: c1
  Charge       = 0
  Multiplicity = 1
  Basis Set: AUG-CC-PVTZ
    Blend: AUG-CC-PVTZ
  Basis Set: (AUG-CC-PVTZ AUX)
    Blend: AUG-CC-PVTZ-JKFIT

    Orbital Energies [Eh]
    ---------------------

    Doubly Occupied:

       1A    -20.523743     2A    -15.632925     3A    -15.629385
       4A    -15.609865     5A    -15.570657     6A    -15.559407
       7A    -11.394863     8A    -11.370191     9A    -11.319141
      10A    -11.307984    11A    -11.289426    12A    -11.249746
      13A     -1.385830    14A     -1.357242    15A     -1.331117
      16A     -1.216752    17A     -1.214231    18A     -1.190162
      19A     -1.028149    20A     -0.985882    21A     -0.900088
      22A     -0.879187    23A     -0.806846    24A     -0.765737
      25A     -0.740149    26A     -0.728425    27A     -0.692553
      28A     -0.670374    29A     -0.648350    30A     -0.639073
      31A     -0.625849    32A     -0.606311    33A     -0.593164
      34A     -0.577937    35A     -0.560276    36A     -0.537272
      37A     -0.493510    38A     -0.458589    39A     -0.439259
      40A     -0.429249    41A     -0.425738    42A     -0.391221
      43A     -0.297270

  @DF-RHF Final Energy:  -578.61044778488179

   => Energetics <=

    Nuclear Repulsion Energy =            692.7014387778468745
    One-Electron Energy =               -2162.4775279992431933
    Two-Electron Energy =                 891.1656414365146475
    Total Energy =                       -578.6104477848817851
  Basis Set: (AUG-CC-PVTZ AUX)
    Blend: AUG-CC-PVTZ-RI
    Molecular point group: c1

    Geometry (in Angstrom), charge = 0, multiplicity = 1:

       Center              X                  Y                   Z               Mass
    ------------   -----------------  -----------------  -----------------  -----------------
         O           -1.469489445501     2.564137160024     0.094928667367    15.994914619570
         N            1.919443554499    -0.583391839976    -0.041102332633    14.003074004430
         N           -1.909994445501     0.305836160024     0.063035667367    14.003074004430
         N           -0.342432445501    -1.467498839976    -0.024221332633    14.003074004430
         N            1.516928554499     1.640636160024     0.003969667367    14.003074004430
         N           -2.629144445501    -1.917193839976     0.125607667367    14.003074004430
         C            0.557982554499    -0.437179839976    -0.015001332633    12.000000000000
         C            0.334041554499     0.939409160024     0.005128667367    12.000000000000
         C           -1.025792945501     1.427079260024    -0.150221132633    12.000000000000
         C            2.439346554499     0.689227160024    -0.055392332633    12.000000000000
         C           -1.572773445501    -1.026308839976     0.033332667367    12.000000000000
         C            2.635653554499    -1.845584839976    -0.050991332633    12.000000000000
         H            3.509545554499     0.858817160024    -0.072078332633     1.007825032230
         H            2.373218554499    -2.430689839976     0.832276667367     1.007825032230
         H            2.379756554499    -2.414341839976    -0.945978332633     1.007825032230
         H            3.704423554499    -1.630849839976    -0.044705332633     1.007825032230
         H           -2.887697445501     0.568883160024     0.183844667367     1.007825032230
         H           -2.325519445501    -2.867956839976    -0.049711332633     1.007825032230
         H           -3.459409445501    -1.672901839976    -0.402822332633     1.007825032230

  Basis Set: AUG-CC-PVTZ
    Blend: AUG-CC-PVTZ
  Basis Set: (AUG-CC-PVTZ AUX)
    Blend: AUG-CC-PVTZ-JKFIT
	 Reference Energy          =    -578.6104477848817851 [Eh]
	 Singles Energy            =      -0.0000000000000000 [Eh]
	 Same-Spin Energy          =      -0.6174626407387678 [Eh]
	 Opposite-Spin Energy      =      -1.8228065883607747 [Eh]
	 Correlation Energy        =      -2.4402692290995427 [Eh]
	 Total Energy              =    -581.0507170139812843 [Eh]

	 ================> DF-SCS-MP2 Energies <==================
	-----------------------------------------------------------
	 SCS Same-Spin Scale       =       0.3333333333333333 [-]
	 SCS Opposite-Spin Scale   =       1.2000000000000000 [-]
	 SCS Same-Spin Energy      =      -0.2058208802462559 [Eh]
	 SCS Opposite-Spin Energy  =      -2.1873679060329296 [Eh]
	 SCS Correlation Energy    =      -2.3931887862791856 [Eh]
	 SCS Total Energy          =    -581.0036365711609960 [Eh]
	-----------------------------------------------------------

  Dipole Moment: [D]
     X:     0.0183      Y:    -6.7432      Z:    -1.1430     Total:     6.8394

*** Psi4 exiting successfully. Buy a developer a beer!
