                               Psi4 1.3.2 release

  ==> Input File <==

--------------------------------------------------------------------------
#psi4
#
memory 32 gb

molecule  {
0 1
  O       -1.4697740     2.5644010     0.0803940
  N        1.9191590    -0.5831280    -0.0556370
  N       -1.9102790     0.3061000     0.0485010
  N       -0.3427170    -1.4672350    -0.0387560
  N        1.5166440     1.6409000    -0.0105650
  N       -2.6294290    -1.9169300     0.1110730
  C        0.5576980    -0.4369160    -0.0295360
  C        0.3369076     0.9376472     0.0905238
  C       -1.0221650     1.4237120     0.0351730
  C        2.4390620     0.6894910    -0.0699270
  C       -1.5730580    -1.0260450     0.0187980
  C        2.6353690    -1.8453210    -0.0655260
  H        3.5092610     0.8590810    -0.0866130
  H        2.3729340    -2.4304260     0.8177420
  H        2.3794720    -2.4140780    -0.9605130
  H        3.7041390    -1.6305860    -0.0592400
  H       -2.8879820     0.5691470     0.1693100
  H       -2.3258040    -2.8676930    -0.0642460
  H       -3.4596940    -1.6726380    -0.4173570
units angstrom
no_reorient  #important for SAPT in psi4, default
symmetry c1  #important for SAPT in psi4, default
}

set PROPERTIES_ORIGIN ["COM"]
properties('MP2/aug-cc-pvtz', properties = ['dipole'])
--------------------------------------------------------------------------

    Molecular point group: c1
  Charge       = 0
  Multiplicity = 1
  Basis Set: AUG-CC-PVTZ
    Blend: AUG-CC-PVTZ
  Basis Set: (AUG-CC-PVTZ AUX)
    Blend: AUG-CC-PVTZ-JKFIT

    Orbital Energies [Eh]
    ---------------------

    Doubly Occupied:

       1A    -20.521114     2A    -15.632835     3A    -15.629279
       4A    -15.610876     5A    -15.570922     6A    -15.559519
       7A    -11.396375     8A    -11.364491     9A    -11.319711
      10A    -11.307153    11A    -11.289378    12A    -11.247321
      13A     -1.390630    14A     -1.360481    15A     -1.334054
      16A     -1.219132    17A     -1.216143    18A     -1.190315
      19A     -1.028808    20A     -0.986184    21A     -0.901024
      22A     -0.882219    23A     -0.807645    24A     -0.766070
      25A     -0.741137    26A     -0.729438    27A     -0.692555
      28A     -0.670691    29A     -0.649220    30A     -0.641512
      31A     -0.627463    32A     -0.610318    33A     -0.593163
      34A     -0.578472    35A     -0.560843    36A     -0.540970
      37A     -0.493454    38A     -0.459947    39A     -0.439302
      40A     -0.430293    41A     -0.427305    42A     -0.392521
      43A     -0.298365

  @DF-RHF Final Energy:  -578.62816801411327

   => Energetics <=

    Nuclear Repulsion Energy =            693.3267685868599983
    One-Electron Energy =               -2163.6925805422788471
    Two-Electron Energy =                 891.7376439413055778
    Total Energy =                       -578.6281680141132711
  Basis Set: (AUG-CC-PVTZ AUX)
    Blend: AUG-CC-PVTZ-RI
    Molecular point group: c1

    Geometry (in Angstrom), charge = 0, multiplicity = 1:

       Center              X                  Y                   Z               Mass
    ------------   -----------------  -----------------  -----------------  -----------------
         O           -1.470002923036     2.564548408776     0.073129364699    15.994914619570
         N            1.918930076964    -0.582980591224    -0.062901635301    14.003074004430
         N           -1.910507923036     0.306247408776     0.041236364699    14.003074004430
         N           -0.342945923036    -1.467087591224    -0.046020635301    14.003074004430
         N            1.516415076964     1.641047408776    -0.017829635301    14.003074004430
         N           -2.629657923036    -1.916782591224     0.103808364699    14.003074004430
         C            0.557469076964    -0.436768591224    -0.036800635301    12.000000000000
         C            0.336678676964     0.937794608776     0.083259164699    12.000000000000
         C           -1.022393923036     1.423859408776     0.027908364699    12.000000000000
         C            2.438833076964     0.689638408776    -0.077191635301    12.000000000000
         C           -1.573286923036    -1.025897591224     0.011533364699    12.000000000000
         C            2.635140076964    -1.845173591224    -0.072790635301    12.000000000000
         H            3.509032076964     0.859228408776    -0.093877635301     1.007825032230
         H            2.372705076964    -2.430278591224     0.810477364699     1.007825032230
         H            2.379243076964    -2.413930591224    -0.967777635301     1.007825032230
         H            3.703910076964    -1.630438591224    -0.066504635301     1.007825032230
         H           -2.888210923036     0.569294408776     0.162045364699     1.007825032230
         H           -2.326032923036    -2.867545591224    -0.071510635301     1.007825032230
         H           -3.459922923036    -1.672490591224    -0.424621635301     1.007825032230

  Basis Set: AUG-CC-PVTZ
    Blend: AUG-CC-PVTZ
  Basis Set: (AUG-CC-PVTZ AUX)
    Blend: AUG-CC-PVTZ-JKFIT
	 Reference Energy          =    -578.6281680141132711 [Eh]
	 Singles Energy            =      -0.0000000000000000 [Eh]
	 Same-Spin Energy          =      -0.6161130041481947 [Eh]
	 Opposite-Spin Energy      =      -1.8197746338969174 [Eh]
	 Correlation Energy        =      -2.4358876380451120 [Eh]
	 Total Energy              =    -581.0640556521583449 [Eh]

	 ================> DF-SCS-MP2 Energies <==================
	-----------------------------------------------------------
	 SCS Same-Spin Scale       =       0.3333333333333333 [-]
	 SCS Opposite-Spin Scale   =       1.2000000000000000 [-]
	 SCS Same-Spin Energy      =      -0.2053710013827316 [Eh]
	 SCS Opposite-Spin Energy  =      -2.1837295606763010 [Eh]
	 SCS Correlation Energy    =      -2.3891005620590327 [Eh]
	 SCS Total Energy          =    -581.0172685761723415 [Eh]
	-----------------------------------------------------------

  Dipole Moment: [D]
     X:    -0.0228      Y:    -6.7917      Z:    -0.9339     Total:     6.8556

*** Psi4 exiting successfully. Buy a developer a beer!
