                               Psi4 1.3.2 release

  ==> Input File <==

--------------------------------------------------------------------------
#psi4
#
memory 32 gb

molecule  {
0 1
  O       -1.4697740     2.5644010     0.0803940
  N        1.9191590    -0.5831280    -0.0556370
  N       -1.9102790     0.3061000     0.0485010
  N       -0.3427170    -1.4672350    -0.0387560
  N        1.5166440     1.6409000    -0.0105650
  N       -2.6294290    -1.9169300     0.1110730
  C        0.5576980    -0.4369160    -0.0295360
  C        0.3337570     0.9396730    -0.0094060
  C       -1.0221650     1.4237120     0.0351730
  C        2.4390620     0.6894910    -0.0699270
  C       -1.5730580    -1.0260450     0.0187980
  C        2.6353690    -1.8453210    -0.0655260
  H        3.5076359     0.8597995    -0.1365814
  H        2.3729340    -2.4304260     0.8177420
  H        2.3794720    -2.4140780    -0.9605130
  H        3.7041390    -1.6305860    -0.0592400
  H       -2.8879820     0.5691470     0.1693100
  H       -2.3258040    -2.8676930    -0.0642460
  H       -3.4596940    -1.6726380    -0.4173570
units angstrom
no_reorient  #important for SAPT in psi4, default
symmetry c1  #important for SAPT in psi4, default
}

set PROPERTIES_ORIGIN ["COM"]
properties('MP2/aug-cc-pvtz', properties = ['dipole'])
--------------------------------------------------------------------------

    Molecular point group: c1
  Charge       = 0
  Multiplicity = 1
  Basis Set: AUG-CC-PVTZ
    Blend: AUG-CC-PVTZ
  Basis Set: (AUG-CC-PVTZ AUX)
    Blend: AUG-CC-PVTZ-JKFIT

    Orbital Energies [Eh]
    ---------------------

    Doubly Occupied:

       1A    -20.520871     2A    -15.632850     3A    -15.629294
       4A    -15.610692     5A    -15.570863     6A    -15.559560
       7A    -11.396037     8A    -11.364256     9A    -11.319119
      10A    -11.307354    11A    -11.289370    12A    -11.246951
      13A     -1.390664    14A     -1.360559    15A     -1.333999
      16A     -1.219074    17A     -1.216193    18A     -1.190639
      19A     -1.029393    20A     -0.986459    21A     -0.901594
      22A     -0.882174    23A     -0.807873    24A     -0.766785
      25A     -0.741180    26A     -0.729301    27A     -0.692094
      28A     -0.671455    29A     -0.649624    30A     -0.641837
      31A     -0.626634    32A     -0.610455    33A     -0.593699
      34A     -0.578460    35A     -0.561163    36A     -0.541548
      37A     -0.493742    38A     -0.459158    39A     -0.439979
      40A     -0.429375    41A     -0.428662    42A     -0.392722
      43A     -0.298347

  @DF-RHF Final Energy:  -578.63064175669706

   => Energetics <=

    Nuclear Repulsion Energy =            693.4487376563266707
    One-Electron Energy =               -2163.9346370673470119
    Two-Electron Energy =                 891.8552576543233954
    Total Energy =                       -578.6306417566970595
  Basis Set: (AUG-CC-PVTZ AUX)
    Blend: AUG-CC-PVTZ-RI
    Molecular point group: c1

    Geometry (in Angstrom), charge = 0, multiplicity = 1:

       Center              X                  Y                   Z               Mass
    ------------   -----------------  -----------------  -----------------  -----------------
         O           -1.469763956555     2.564396749047     0.080699210221    15.994914619570
         N            1.919169043445    -0.583132250953    -0.055331789779    14.003074004430
         N           -1.910268956555     0.306095749047     0.048806210221    14.003074004430
         N           -0.342706956555    -1.467239250953    -0.038450789779    14.003074004430
         N            1.516654043445     1.640895749047    -0.010259789779    14.003074004430
         N           -2.629418956555    -1.916934250953     0.111378210221    14.003074004430
         C            0.557708043445    -0.436920250953    -0.029230789779    12.000000000000
         C            0.333767043445     0.939668749047    -0.009100789779    12.000000000000
         C           -1.022154956555     1.423707749047     0.035478210221    12.000000000000
         C            2.439072043445     0.689486749047    -0.069621789779    12.000000000000
         C           -1.573047956555    -1.026049250953     0.019103210221    12.000000000000
         C            2.635379043445    -1.845325250953    -0.065220789779    12.000000000000
         H            3.507645943445     0.859795249047    -0.136276189779     1.007825032230
         H            2.372944043445    -2.430430250953     0.818047210221     1.007825032230
         H            2.379482043445    -2.414082250953    -0.960207789779     1.007825032230
         H            3.704149043445    -1.630590250953    -0.058934789779     1.007825032230
         H           -2.887971956555     0.569142749047     0.169615210221     1.007825032230
         H           -2.325793956555    -2.867697250953    -0.063940789779     1.007825032230
         H           -3.459683956555    -1.672642250953    -0.417051789779     1.007825032230

  Basis Set: AUG-CC-PVTZ
    Blend: AUG-CC-PVTZ
  Basis Set: (AUG-CC-PVTZ AUX)
    Blend: AUG-CC-PVTZ-JKFIT
	 Reference Energy          =    -578.6306417566970595 [Eh]
	 Singles Energy            =      -0.0000000000000000 [Eh]
	 Same-Spin Energy          =      -0.6160772643169656 [Eh]
	 Opposite-Spin Energy      =      -1.8198229840113944 [Eh]
	 Correlation Energy        =      -2.4359002483283598 [Eh]
	 Total Energy              =    -581.0665420050254397 [Eh]

	 ================> DF-SCS-MP2 Energies <==================
	-----------------------------------------------------------
	 SCS Same-Spin Scale       =       0.3333333333333333 [-]
	 SCS Opposite-Spin Scale   =       1.2000000000000000 [-]
	 SCS Same-Spin Energy      =      -0.2053590881056552 [Eh]
	 SCS Opposite-Spin Energy  =      -2.1837875808136733 [Eh]
	 SCS Correlation Energy    =      -2.3891466689193286 [Eh]
	 SCS Total Energy          =    -581.0197884256164116 [Eh]
	-----------------------------------------------------------

  Dipole Moment: [D]
     X:    -0.0134      Y:    -6.7903      Z:    -0.9725     Total:     6.8596

*** Psi4 exiting successfully. Buy a developer a beer!
