                               Psi4 1.3.2 release

  ==> Input File <==

--------------------------------------------------------------------------
#psi4
#
memory 32 gb

molecule  {
0 1
  O       -1.4697740     2.5644010     0.0803940
  N        1.9191590    -0.5831280    -0.0556370
  N       -1.9102790     0.3061000     0.0485010
  N       -0.3427170    -1.4672350    -0.0387560
  N        1.5166440     1.6409000    -0.0105650
  N       -2.6422148    -1.9184116    -0.0885124
  C        0.5576980    -0.4369160    -0.0295360
  C        0.3337570     0.9396730    -0.0094060
  C       -1.0221650     1.4237120     0.0351730
  C        2.4390620     0.6894910    -0.0699270
  C       -1.5730580    -1.0260450     0.0187980
  C        2.6353690    -1.8453210    -0.0655260
  H        3.5092610     0.8590810    -0.0866130
  H        2.3729340    -2.4304260     0.8177420
  H        2.3794720    -2.4140780    -0.9605130
  H        3.7041390    -1.6305860    -0.0592400
  H       -2.8879820     0.5691470     0.1693100
  H       -2.3258040    -2.8676930    -0.0642460
  H       -3.4596940    -1.6726380    -0.4173570
units angstrom
no_reorient  #important for SAPT in psi4, default
symmetry c1  #important for SAPT in psi4, default
}

set PROPERTIES_ORIGIN ["COM"]
properties('MP2/aug-cc-pvtz', properties = ['dipole'])
--------------------------------------------------------------------------

    Molecular point group: c1
  Charge       = 0
  Multiplicity = 1
  Basis Set: AUG-CC-PVTZ
    Blend: AUG-CC-PVTZ
  Basis Set: (AUG-CC-PVTZ AUX)
    Blend: AUG-CC-PVTZ-JKFIT

    Orbital Energies [Eh]
    ---------------------

    Doubly Occupied:

       1A    -20.520399     2A    -15.632110     3A    -15.628868
       4A    -15.599080     5A    -15.569373     6A    -15.558895
       7A    -11.399241     8A    -11.363722     9A    -11.319056
      10A    -11.306442    11A    -11.288855    12A    -11.245815
      13A     -1.389982    14A     -1.359916    15A     -1.333171
      16A     -1.224810    17A     -1.216045    18A     -1.190044
      19A     -1.031063    20A     -0.985884    21A     -0.901133
      22A     -0.886914    23A     -0.817430    24A     -0.771892
      25A     -0.745193    26A     -0.733255    27A     -0.710195
      28A     -0.670932    29A     -0.650166    30A     -0.639768
      31A     -0.628613    32A     -0.609868    33A     -0.593104
      34A     -0.577994    35A     -0.559858    36A     -0.540620
      37A     -0.493071    38A     -0.450786    39A     -0.439228
      40A     -0.428978    41A     -0.428234    42A     -0.392021
      43A     -0.296615

  @DF-RHF Final Energy:  -578.62090466491134

   => Energetics <=

    Nuclear Repulsion Energy =            693.5770867809521860
    One-Electron Energy =               -2164.1387075667585123
    Two-Electron Energy =                 891.9407161208949901
    Total Energy =                       -578.6209046649113361
  Basis Set: (AUG-CC-PVTZ AUX)
    Blend: AUG-CC-PVTZ-RI
    Molecular point group: c1

    Geometry (in Angstrom), charge = 0, multiplicity = 1:

       Center              X                  Y                   Z               Mass
    ------------   -----------------  -----------------  -----------------  -----------------
         O           -1.468689212528     2.564526825496     0.097325682985    15.994914619570
         N            1.920243787472    -0.583002174504    -0.038705317015    14.003074004430
         N           -1.909194212528     0.306225825496     0.065432682985    14.003074004430
         N           -0.341632212528    -1.467109174504    -0.021824317015    14.003074004430
         N            1.517728787472     1.641025825496     0.006366682985    14.003074004430
         N           -2.641130012528    -1.918285774504    -0.071580717015    14.003074004430
         C            0.558782787472    -0.436790174504    -0.012604317015    12.000000000000
         C            0.334841787472     0.939798825496     0.007525682985    12.000000000000
         C           -1.021080212528     1.423837825496     0.052104682985    12.000000000000
         C            2.440146787472     0.689616825496    -0.052995317015    12.000000000000
         C           -1.571973212528    -1.025919174504     0.035729682985    12.000000000000
         C            2.636453787472    -1.845195174504    -0.048594317015    12.000000000000
         H            3.510345787472     0.859206825496    -0.069681317015     1.007825032230
         H            2.374018787472    -2.430300174504     0.834673682985     1.007825032230
         H            2.380556787472    -2.413952174504    -0.943581317015     1.007825032230
         H            3.705223787472    -1.630460174504    -0.042308317015     1.007825032230
         H           -2.886897212528     0.569272825496     0.186241682985     1.007825032230
         H           -2.324719212528    -2.867567174504    -0.047314317015     1.007825032230
         H           -3.458609212528    -1.672512174504    -0.400425317015     1.007825032230

  Basis Set: AUG-CC-PVTZ
    Blend: AUG-CC-PVTZ
  Basis Set: (AUG-CC-PVTZ AUX)
    Blend: AUG-CC-PVTZ-JKFIT
	 Reference Energy          =    -578.6209046649113361 [Eh]
	 Singles Energy            =      -0.0000000000000000 [Eh]
	 Same-Spin Energy          =      -0.6156459177448679 [Eh]
	 Opposite-Spin Energy      =      -1.8183115341244496 [Eh]
	 Correlation Energy        =      -2.4339574518693174 [Eh]
	 Total Energy              =    -581.0548621167806687 [Eh]

	 ================> DF-SCS-MP2 Energies <==================
	-----------------------------------------------------------
	 SCS Same-Spin Scale       =       0.3333333333333333 [-]
	 SCS Opposite-Spin Scale   =       1.2000000000000000 [-]
	 SCS Same-Spin Energy      =      -0.2052153059149560 [Eh]
	 SCS Opposite-Spin Energy  =      -2.1819738409493392 [Eh]
	 SCS Correlation Energy    =      -2.3871891468642952 [Eh]
	 SCS Total Energy          =    -581.0080938117756659 [Eh]
	-----------------------------------------------------------

  Dipole Moment: [D]
     X:    -0.1870      Y:    -6.8546      Z:    -0.4782     Total:     6.8738

*** Psi4 exiting successfully. Buy a developer a beer!
