                               Psi4 1.3.2 release

  ==> Input File <==

--------------------------------------------------------------------------
#psi4
#
memory 32 gb

molecule  {
0 1
  O       -1.4697740     2.5644010     0.0803940
  N        1.9191590    -0.5831280    -0.0556370
  N       -1.9102790     0.3061000     0.0485010
  N       -0.3427170    -1.4672350    -0.0387560
  N        1.5166440     1.6409000    -0.0105650
  N       -2.6294290    -1.9169300     0.1110730
  C        0.5576980    -0.4369160    -0.0295360
  C        0.3337570     0.9396730    -0.0094060
  C       -1.0221650     1.4237120     0.0351730
  C        2.4390620     0.6894910    -0.0699270
  C       -1.5730580    -1.0260450     0.0187980
  C        2.6304889    -1.8461329    -0.3154770
  H        3.5092610     0.8590810    -0.0866130
  H        2.3729340    -2.4304260     0.8177420
  H        2.3794720    -2.4140780    -0.9605130
  H        3.7041390    -1.6305860    -0.0592400
  H       -2.8879820     0.5691470     0.1693100
  H       -2.3258040    -2.8676930    -0.0642460
  H       -3.4596940    -1.6726380    -0.4173570
units angstrom
no_reorient  #important for SAPT in psi4, default
symmetry c1  #important for SAPT in psi4, default
}

set PROPERTIES_ORIGIN ["COM"]
properties('MP2/aug-cc-pvtz', properties = ['dipole'])
--------------------------------------------------------------------------

    Molecular point group: c1
  Charge       = 0
  Multiplicity = 1
  Basis Set: AUG-CC-PVTZ
    Blend: AUG-CC-PVTZ
  Basis Set: (AUG-CC-PVTZ AUX)
    Blend: AUG-CC-PVTZ-JKFIT

    Orbital Energies [Eh]
    ---------------------

    Doubly Occupied:

       1A    -20.521398     2A    -15.636065     3A    -15.629728
       4A    -15.610890     5A    -15.571130     6A    -15.560891
       7A    -11.396377     8A    -11.364783     9A    -11.319621
      10A    -11.307969    11A    -11.298385    12A    -11.247804
      13A     -1.391083    14A     -1.360631    15A     -1.334273
      16A     -1.219321    17A     -1.216561    18A     -1.189507
      19A     -1.030051    20A     -0.994283    21A     -0.903535
      22A     -0.882662    23A     -0.809579    24A     -0.776881
      25A     -0.743599    26A     -0.730154    27A     -0.700951
      28A     -0.681850    29A     -0.657853    30A     -0.636529
      31A     -0.630152    32A     -0.611030    33A     -0.596375
      34A     -0.577223    35A     -0.547487    36A     -0.517108
      37A     -0.489441    38A     -0.459554    39A     -0.440558
      40A     -0.429720    41A     -0.429240    42A     -0.389402
      43A     -0.299057

  @DF-RHF Final Energy:  -578.55884905663561

   => Energetics <=

    Nuclear Repulsion Energy =            693.1418739814212131
    One-Electron Energy =               -2163.1200677975921280
    Two-Electron Energy =                 891.4193447595353064
    Total Energy =                       -578.5588490566356086
  Basis Set: (AUG-CC-PVTZ AUX)
    Blend: AUG-CC-PVTZ-RI
    Molecular point group: c1

    Geometry (in Angstrom), charge = 0, multiplicity = 1:

       Center              X                  Y                   Z               Mass
    ------------   -----------------  -----------------  -----------------  -----------------
         O           -1.469419102328     2.564460159937     0.098565211652    15.994914619570
         N            1.919513897672    -0.583068840063    -0.037465788348    14.003074004430
         N           -1.909924102328     0.306159159937     0.066672211652    14.003074004430
         N           -0.342362102328    -1.467175840063    -0.020584788348    14.003074004430
         N            1.516998897672     1.640959159937     0.007606211652    14.003074004430
         N           -2.629074102328    -1.916870840063     0.129244211652    14.003074004430
         C            0.558052897672    -0.436856840063    -0.011364788348    12.000000000000
         C            0.334111897672     0.939732159937     0.008765211652    12.000000000000
         C           -1.021810102328     1.423771159937     0.053344211652    12.000000000000
         C            2.439416897672     0.689550159937    -0.051755788348    12.000000000000
         C           -1.572703102328    -1.025985840063     0.036969211652    12.000000000000
         C            2.630843797672    -1.846073740063    -0.297305788348    12.000000000000
         H            3.509615897672     0.859140159937    -0.068441788348     1.007825032230
         H            2.373288897672    -2.430366840063     0.835913211652     1.007825032230
         H            2.379826897672    -2.414018840063    -0.942341788348     1.007825032230
         H            3.704493897672    -1.630526840063    -0.041068788348     1.007825032230
         H           -2.887627102328     0.569206159937     0.187481211652     1.007825032230
         H           -2.325449102328    -2.867633840063    -0.046074788348     1.007825032230
         H           -3.459339102328    -1.672578840063    -0.399185788348     1.007825032230

  Basis Set: AUG-CC-PVTZ
    Blend: AUG-CC-PVTZ
  Basis Set: (AUG-CC-PVTZ AUX)
    Blend: AUG-CC-PVTZ-JKFIT
	 Reference Energy          =    -578.5588490566356086 [Eh]
	 Singles Energy            =      -0.0000000000000000 [Eh]
	 Same-Spin Energy          =      -0.6170007251890135 [Eh]
	 Opposite-Spin Energy      =      -1.8229291628610960 [Eh]
	 Correlation Energy        =      -2.4399298880501092 [Eh]
	 Total Energy              =    -580.9987789446856823 [Eh]

	 ================> DF-SCS-MP2 Energies <==================
	-----------------------------------------------------------
	 SCS Same-Spin Scale       =       0.3333333333333333 [-]
	 SCS Opposite-Spin Scale   =       1.2000000000000000 [-]
	 SCS Same-Spin Energy      =      -0.2056669083963378 [Eh]
	 SCS Opposite-Spin Energy  =      -2.1875149954333151 [Eh]
	 SCS Correlation Energy    =      -2.3931819038296531 [Eh]
	 SCS Total Energy          =    -580.9520309604652084 [Eh]
	-----------------------------------------------------------

  Dipole Moment: [D]
     X:    -0.0643      Y:    -6.6836      Z:    -1.1567     Total:     6.7833

*** Psi4 exiting successfully. Buy a developer a beer!
