                               Psi4 1.3.2 release

  ==> Input File <==

--------------------------------------------------------------------------
#psi4
#
memory 32 gb

molecule  {
0 1
  O       -1.4697740     2.5644010     0.0803940
  N        1.9191590    -0.5831280    -0.0556370
  N       -1.9102790     0.3061000     0.0485010
  N       -0.3427170    -1.4672350    -0.0387560
  N        1.5166440     1.6409000    -0.0105650
  N       -2.6294290    -1.9169300     0.1110730
  C        0.5576980    -0.4369160    -0.0295360
  C        0.3337570     0.9396730    -0.0094060
  C       -1.0231431     1.4246198    -0.0148092
  C        2.4390620     0.6894910    -0.0699270
  C       -1.5730580    -1.0260450     0.0187980
  C        2.6353690    -1.8453210    -0.0655260
  H        3.5092610     0.8590810    -0.0866130
  H        2.3729340    -2.4304260     0.8177420
  H        2.3794720    -2.4140780    -0.9605130
  H        3.7041390    -1.6305860    -0.0592400
  H       -2.8879820     0.5691470     0.1693100
  H       -2.3258040    -2.8676930    -0.0642460
  H       -3.4596940    -1.6726380    -0.4173570
units angstrom
no_reorient  #important for SAPT in psi4, default
symmetry c1  #important for SAPT in psi4, default
}

set PROPERTIES_ORIGIN ["COM"]
properties('MP2/aug-cc-pvtz', properties = ['dipole'])
--------------------------------------------------------------------------

    Molecular point group: c1
  Charge       = 0
  Multiplicity = 1
  Basis Set: AUG-CC-PVTZ
    Blend: AUG-CC-PVTZ
  Basis Set: (AUG-CC-PVTZ AUX)
    Blend: AUG-CC-PVTZ-JKFIT

    Orbital Energies [Eh]
    ---------------------

    Doubly Occupied:

       1A    -20.521077     2A    -15.632870     3A    -15.629366
       4A    -15.610597     5A    -15.570806     6A    -15.559589
       7A    -11.395942     8A    -11.364798     9A    -11.319149
      10A    -11.307357    11A    -11.289384    12A    -11.247203
      13A     -1.390182    14A     -1.360280    15A     -1.333754
      16A     -1.218757    17A     -1.216097    18A     -1.190610
      19A     -1.029367    20A     -0.986453    21A     -0.901590
      22A     -0.881883    23A     -0.807769    24A     -0.766734
      25A     -0.741199    26A     -0.729241    27A     -0.692393
      28A     -0.671040    29A     -0.649534    30A     -0.641592
      31A     -0.626759    32A     -0.610083    33A     -0.593784
      34A     -0.578442    35A     -0.561032    36A     -0.541155
      37A     -0.493691    38A     -0.459210    39A     -0.439914
      40A     -0.429281    41A     -0.428539    42A     -0.392549
      43A     -0.298322

  @DF-RHF Final Energy:  -578.62927034552695

   => Energetics <=

    Nuclear Repulsion Energy =            693.3904538248631297
    One-Electron Energy =               -2163.8206984608809762
    Two-Electron Energy =                 891.8009742904910127
    Total Energy =                       -578.6292703455269475
  Basis Set: (AUG-CC-PVTZ AUX)
    Blend: AUG-CC-PVTZ-RI
    Molecular point group: c1

    Geometry (in Angstrom), charge = 0, multiplicity = 1:

       Center              X                  Y                   Z               Mass
    ------------   -----------------  -----------------  -----------------  -----------------
         O           -1.469702772295     2.564335140141     0.084027758347    15.994914619570
         N            1.919230227705    -0.583193859859    -0.052003241653    14.003074004430
         N           -1.910207772295     0.306034140141     0.052134758347    14.003074004430
         N           -0.342645772295    -1.467300859859    -0.035122241653    14.003074004430
         N            1.516715227705     1.640834140141    -0.006931241653    14.003074004430
         N           -2.629357772295    -1.916995859859     0.114706758347    14.003074004430
         C            0.557769227705    -0.436981859859    -0.025902241653    12.000000000000
         C            0.333828227705     0.939607140141    -0.005772241653    12.000000000000
         C           -1.023071872295     1.424553940141    -0.011175441653    12.000000000000
         C            2.439133227705     0.689425140141    -0.066293241653    12.000000000000
         C           -1.572986772295    -1.026110859859     0.022431758347    12.000000000000
         C            2.635440227705    -1.845386859859    -0.061892241653    12.000000000000
         H            3.509332227705     0.859015140141    -0.082979241653     1.007825032230
         H            2.373005227705    -2.430491859859     0.821375758347     1.007825032230
         H            2.379543227705    -2.414143859859    -0.956879241653     1.007825032230
         H            3.704210227705    -1.630651859859    -0.055606241653     1.007825032230
         H           -2.887910772295     0.569081140141     0.172943758347     1.007825032230
         H           -2.325732772295    -2.867758859859    -0.060612241653     1.007825032230
         H           -3.459622772295    -1.672703859859    -0.413723241653     1.007825032230

  Basis Set: AUG-CC-PVTZ
    Blend: AUG-CC-PVTZ
  Basis Set: (AUG-CC-PVTZ AUX)
    Blend: AUG-CC-PVTZ-JKFIT
	 Reference Energy          =    -578.6292703455269475 [Eh]
	 Singles Energy            =      -0.0000000000000000 [Eh]
	 Same-Spin Energy          =      -0.6161830426003290 [Eh]
	 Opposite-Spin Energy      =      -1.8200124083513252 [Eh]
	 Correlation Energy        =      -2.4361954509516544 [Eh]
	 Total Energy              =    -581.0654657964786338 [Eh]

	 ================> DF-SCS-MP2 Energies <==================
	-----------------------------------------------------------
	 SCS Same-Spin Scale       =       0.3333333333333333 [-]
	 SCS Opposite-Spin Scale   =       1.2000000000000000 [-]
	 SCS Same-Spin Energy      =      -0.2053943475334430 [Eh]
	 SCS Opposite-Spin Energy  =      -2.1840148900215901 [Eh]
	 SCS Correlation Energy    =      -2.3894092375550331 [Eh]
	 SCS Total Energy          =    -581.0186795830819619 [Eh]
	-----------------------------------------------------------

  Dipole Moment: [D]
     X:    -0.0113      Y:    -6.7856      Z:    -0.9919     Total:     6.8577

*** Psi4 exiting successfully. Buy a developer a beer!
