                               Psi4 1.3.2 release

  ==> Input File <==

--------------------------------------------------------------------------
#psi4
#
memory 32 gb

molecule  {
0 1
  O       -1.4697740     2.5644010     0.0803940
  N        1.9191590    -0.5831280    -0.0556370
  N       -1.9102790     0.3061000     0.0485010
  N       -0.3427170    -1.4672350    -0.0387560
  N        1.5166440     1.6409000    -0.0105650
  N       -2.6294290    -1.9169300     0.1110730
  C        0.5576980    -0.4369160    -0.0295360
  C        0.3337570     0.9396730    -0.0094060
  C       -1.0241212     1.4255275    -0.0647914
  C        2.4390620     0.6894910    -0.0699270
  C       -1.5730580    -1.0260450     0.0187980
  C        2.6353690    -1.8453210    -0.0655260
  H        3.5092610     0.8590810    -0.0866130
  H        2.3729340    -2.4304260     0.8177420
  H        2.3794720    -2.4140780    -0.9605130
  H        3.7041390    -1.6305860    -0.0592400
  H       -2.8879820     0.5691470     0.1693100
  H       -2.3258040    -2.8676930    -0.0642460
  H       -3.4596940    -1.6726380    -0.4173570
units angstrom
no_reorient  #important for SAPT in psi4, default
symmetry c1  #important for SAPT in psi4, default
}

set PROPERTIES_ORIGIN ["COM"]
properties('MP2/aug-cc-pvtz', properties = ['dipole'])
--------------------------------------------------------------------------

    Molecular point group: c1
  Charge       = 0
  Multiplicity = 1
  Basis Set: AUG-CC-PVTZ
    Blend: AUG-CC-PVTZ
  Basis Set: (AUG-CC-PVTZ AUX)
    Blend: AUG-CC-PVTZ-JKFIT

    Orbital Energies [Eh]
    ---------------------

    Doubly Occupied:

       1A    -20.521621     2A    -15.632879     3A    -15.629409
       4A    -15.610428     5A    -15.570750     6A    -15.559559
       7A    -11.395708     8A    -11.365993     9A    -11.319158
      10A    -11.307504    11A    -11.289392    12A    -11.247760
      13A     -1.389151    14A     -1.359646    15A     -1.333209
      16A     -1.218131    17A     -1.215851    18A     -1.190520
      19A     -1.029135    20A     -0.986351    21A     -0.901324
      22A     -0.881271    23A     -0.807547    24A     -0.766535
      25A     -0.741027    26A     -0.729058    27A     -0.692528
      28A     -0.670874    29A     -0.649268    30A     -0.640908
      31A     -0.626695    32A     -0.609262    33A     -0.593733
      34A     -0.578324    35A     -0.560902    36A     -0.540276
      37A     -0.493645    38A     -0.459079    39A     -0.439794
      40A     -0.429273    41A     -0.427913    42A     -0.392238
      43A     -0.298109

  @DF-RHF Final Energy:  -578.62540238037570

   => Energetics <=

    Nuclear Repulsion Energy =            693.2439381505131450
    One-Electron Energy =               -2163.5352010151636932
    Two-Electron Energy =                 891.6658604842747309
    Total Energy =                       -578.6254023803757036
  Basis Set: (AUG-CC-PVTZ AUX)
    Blend: AUG-CC-PVTZ-RI
    Molecular point group: c1

    Geometry (in Angstrom), charge = 0, multiplicity = 1:

       Center              X                  Y                   Z               Mass
    ------------   -----------------  -----------------  -----------------  -----------------
         O           -1.469631665787     2.564269151615     0.087661394687    15.994914619570
         N            1.919301334213    -0.583259848385    -0.048369605313    14.003074004430
         N           -1.910136665787     0.305968151615     0.055768394687    14.003074004430
         N           -0.342574665787    -1.467366848385    -0.031488605313    14.003074004430
         N            1.516786334213     1.640768151615    -0.003297605313    14.003074004430
         N           -2.629286665787    -1.917061848385     0.118340394687    14.003074004430
         C            0.557840334213    -0.437047848385    -0.022268605313    12.000000000000
         C            0.333899334213     0.939541151615    -0.002138605313    12.000000000000
         C           -1.023978865787     1.425395651615    -0.057524005313    12.000000000000
         C            2.439204334213     0.689359151615    -0.062659605313    12.000000000000
         C           -1.572915665787    -1.026176848385     0.026065394687    12.000000000000
         C            2.635511334213    -1.845452848385    -0.058258605313    12.000000000000
         H            3.509403334213     0.858949151615    -0.079345605313     1.007825032230
         H            2.373076334213    -2.430557848385     0.825009394687     1.007825032230
         H            2.379614334213    -2.414209848385    -0.953245605313     1.007825032230
         H            3.704281334213    -1.630717848385    -0.051972605313     1.007825032230
         H           -2.887839665787     0.569015151615     0.176577394687     1.007825032230
         H           -2.325661665787    -2.867824848385    -0.056978605313     1.007825032230
         H           -3.459551665787    -1.672769848385    -0.410089605313     1.007825032230

  Basis Set: AUG-CC-PVTZ
    Blend: AUG-CC-PVTZ
  Basis Set: (AUG-CC-PVTZ AUX)
    Blend: AUG-CC-PVTZ-JKFIT
	 Reference Energy          =    -578.6254023803757036 [Eh]
	 Singles Energy            =      -0.0000000000000000 [Eh]
	 Same-Spin Energy          =      -0.6164506036836659 [Eh]
	 Opposite-Spin Energy      =      -1.8205333244685389 [Eh]
	 Correlation Energy        =      -2.4369839281522045 [Eh]
	 Total Energy              =    -581.0623863085279481 [Eh]

	 ================> DF-SCS-MP2 Energies <==================
	-----------------------------------------------------------
	 SCS Same-Spin Scale       =       0.3333333333333333 [-]
	 SCS Opposite-Spin Scale   =       1.2000000000000000 [-]
	 SCS Same-Spin Energy      =      -0.2054835345612220 [Eh]
	 SCS Opposite-Spin Energy  =      -2.1846399893622466 [Eh]
	 SCS Correlation Energy    =      -2.3901235239234686 [Eh]
	 SCS Total Energy          =    -581.0155259042991247 [Eh]
	-----------------------------------------------------------

  Dipole Moment: [D]
     X:    -0.0057      Y:    -6.7758      Z:    -1.0449     Total:     6.8559

*** Psi4 exiting successfully. Buy a developer a beer!
