                               Psi4 1.3.2 release

  ==> Input File <==

--------------------------------------------------------------------------
#psi4
#
memory 32 gb

molecule  {
0 1
  O       -1.4697740     2.5644010     0.0803940
  N        1.9191590    -0.5831280    -0.0556370
  N       -1.9102790     0.3061000     0.0485010
  N       -0.3427170    -1.4672350    -0.0387560
  N        1.5166440     1.6409000    -0.0105650
  N       -2.6294290    -1.9169300     0.1110730
  C        0.5576980    -0.4369160    -0.0295360
  C        0.3310098     0.9428834    -0.2093614
  C       -1.0221650     1.4237120     0.0351730
  C        2.4390620     0.6894910    -0.0699270
  C       -1.5730580    -1.0260450     0.0187980
  C        2.6353690    -1.8453210    -0.0655260
  H        3.5092610     0.8590810    -0.0866130
  H        2.3729340    -2.4304260     0.8177420
  H        2.3794720    -2.4140780    -0.9605130
  H        3.7041390    -1.6305860    -0.0592400
  H       -2.8879820     0.5691470     0.1693100
  H       -2.3258040    -2.8676930    -0.0642460
  H       -3.4596940    -1.6726380    -0.4173570
units angstrom
no_reorient  #important for SAPT in psi4, default
symmetry c1  #important for SAPT in psi4, default
}

set PROPERTIES_ORIGIN ["COM"]
properties('MP2/aug-cc-pvtz', properties = ['dipole'])
--------------------------------------------------------------------------

    Molecular point group: c1
  Charge       = 0
  Multiplicity = 1
  Basis Set: AUG-CC-PVTZ
    Blend: AUG-CC-PVTZ
  Basis Set: (AUG-CC-PVTZ AUX)
    Blend: AUG-CC-PVTZ-JKFIT

    Orbital Energies [Eh]
    ---------------------

    Doubly Occupied:

       1A    -20.521442     2A    -15.633175     3A    -15.629310
       4A    -15.611795     5A    -15.571257     6A    -15.559813
       7A    -11.397450     8A    -11.365052     9A    -11.322488
      10A    -11.307266    11A    -11.289591    12A    -11.249016
      13A     -1.390271    14A     -1.359976    15A     -1.334150
      16A     -1.219402    17A     -1.215841    18A     -1.188760
      19A     -1.026670    20A     -0.985332    21A     -0.899250
      22A     -0.882235    23A     -0.806857    24A     -0.762984
      25A     -0.740512    26A     -0.728546    27A     -0.692342
      28A     -0.671828    29A     -0.647993    30A     -0.643408
      31A     -0.625039    32A     -0.609581    33A     -0.590746
      34A     -0.578830    35A     -0.558886    36A     -0.541270
      37A     -0.492902    38A     -0.460462    39A     -0.439708
      40A     -0.430601    41A     -0.423955    42A     -0.391001
      43A     -0.298494

  @DF-RHF Final Energy:  -578.61817632681937

   => Energetics <=

    Nuclear Repulsion Energy =            692.7321643475868314
    One-Electron Energy =               -2162.5097074403633997
    Two-Electron Energy =                 891.1593667659572020
    Total Energy =                       -578.6181763268193663
  Basis Set: (AUG-CC-PVTZ AUX)
    Blend: AUG-CC-PVTZ-RI
    Molecular point group: c1

    Geometry (in Angstrom), charge = 0, multiplicity = 1:

       Center              X                  Y                   Z               Mass
    ------------   -----------------  -----------------  -----------------  -----------------
         O           -1.469574161188     2.564167744328     0.094930601150    15.994914619570
         N            1.919358838812    -0.583361255672    -0.041100398850    14.003074004430
         N           -1.910079161188     0.305866744328     0.063037601150    14.003074004430
         N           -0.342517161188    -1.467468255672    -0.024219398850    14.003074004430
         N            1.516843838812     1.640666744328     0.003971601150    14.003074004430
         N           -2.629229161188    -1.917163255672     0.125609601150    14.003074004430
         C            0.557897838812    -0.437149255672    -0.014999398850    12.000000000000
         C            0.331209638812     0.942650144328    -0.194824798850    12.000000000000
         C           -1.021965161188     1.423478744328     0.049709601150    12.000000000000
         C            2.439261838812     0.689257744328    -0.055390398850    12.000000000000
         C           -1.572858161188    -1.026278255672     0.033334601150    12.000000000000
         C            2.635568838812    -1.845554255672    -0.050989398850    12.000000000000
         H            3.509460838812     0.858847744328    -0.072076398850     1.007825032230
         H            2.373133838812    -2.430659255672     0.832278601150     1.007825032230
         H            2.379671838812    -2.414311255672    -0.945976398850     1.007825032230
         H            3.704338838812    -1.630819255672    -0.044703398850     1.007825032230
         H           -2.887782161188     0.568913744328     0.183846601150     1.007825032230
         H           -2.325604161188    -2.867926255672    -0.049709398850     1.007825032230
         H           -3.459494161188    -1.672871255672    -0.402820398850     1.007825032230

  Basis Set: AUG-CC-PVTZ
    Blend: AUG-CC-PVTZ
  Basis Set: (AUG-CC-PVTZ AUX)
    Blend: AUG-CC-PVTZ-JKFIT
	 Reference Energy          =    -578.6181763268193663 [Eh]
	 Singles Energy            =      -0.0000000000000000 [Eh]
	 Same-Spin Energy          =      -0.6163248326338330 [Eh]
	 Opposite-Spin Energy      =      -1.8204977695645339 [Eh]
	 Correlation Energy        =      -2.4368226021983670 [Eh]
	 Total Energy              =    -581.0549989290177564 [Eh]

	 ================> DF-SCS-MP2 Energies <==================
	-----------------------------------------------------------
	 SCS Same-Spin Scale       =       0.3333333333333333 [-]
	 SCS Opposite-Spin Scale   =       1.2000000000000000 [-]
	 SCS Same-Spin Energy      =      -0.2054416108779443 [Eh]
	 SCS Opposite-Spin Energy  =      -2.1845973234774405 [Eh]
	 SCS Correlation Energy    =      -2.3900389343553847 [Eh]
	 SCS Total Energy          =    -581.0082152611747688 [Eh]
	-----------------------------------------------------------

  Dipole Moment: [D]
     X:    -0.0476      Y:    -6.8108      Z:    -0.9344     Total:     6.8748

*** Psi4 exiting successfully. Buy a developer a beer!
