                               Psi4 1.3.2 release

  ==> Input File <==

--------------------------------------------------------------------------
#psi4
#
memory 32 gb

molecule  {
0 1
  O       -1.4697740     2.5644010     0.0803940
  N        1.9191590    -0.5831280    -0.0556370
  N       -1.9102790     0.3061000     0.0485010
  N       -0.3427170    -1.4672350    -0.0387560
  N        1.5166440     1.6409000    -0.0105650
  N       -2.6294290    -1.9169300     0.1110730
  C        0.5576980    -0.4369160    -0.0295360
  C        0.3337570     0.9396730    -0.0094060
  C       -1.0250993     1.4264353    -0.1147736
  C        2.4390620     0.6894910    -0.0699270
  C       -1.5730580    -1.0260450     0.0187980
  C        2.6353690    -1.8453210    -0.0655260
  H        3.5092610     0.8590810    -0.0866130
  H        2.3729340    -2.4304260     0.8177420
  H        2.3794720    -2.4140780    -0.9605130
  H        3.7041390    -1.6305860    -0.0592400
  H       -2.8879820     0.5691470     0.1693100
  H       -2.3258040    -2.8676930    -0.0642460
  H       -3.4596940    -1.6726380    -0.4173570
units angstrom
no_reorient  #important for SAPT in psi4, default
symmetry c1  #important for SAPT in psi4, default
}

set PROPERTIES_ORIGIN ["COM"]
properties('MP2/aug-cc-pvtz', properties = ['dipole'])
--------------------------------------------------------------------------

    Molecular point group: c1
  Charge       = 0
  Multiplicity = 1
  Basis Set: AUG-CC-PVTZ
    Blend: AUG-CC-PVTZ
  Basis Set: (AUG-CC-PVTZ AUX)
    Blend: AUG-CC-PVTZ-JKFIT

    Orbital Energies [Eh]
    ---------------------

    Doubly Occupied:

       1A    -20.522510     2A    -15.632897     3A    -15.629420
       4A    -15.610184     5A    -15.570700     6A    -15.559497
       7A    -11.395347     8A    -11.367810     9A    -11.319154
      10A    -11.307712    11A    -11.289406    12A    -11.248613
      13A     -1.387660    14A     -1.358641    15A     -1.332345
      16A     -1.217369    17A     -1.215314    18A     -1.190374
      19A     -1.028724    20A     -0.986160    21A     -0.900824
      22A     -0.880364    23A     -0.807237    24A     -0.766201
      25A     -0.740672    26A     -0.728789    27A     -0.692581
      28A     -0.670649    29A     -0.648863    30A     -0.640075
      31A     -0.626389    32A     -0.608000    33A     -0.593532
      34A     -0.578160    35A     -0.560650    36A     -0.538973
      37A     -0.493584    38A     -0.458870    39A     -0.439570
      40A     -0.429269    41A     -0.426968    42A     -0.391791
      43A     -0.297757

  @DF-RHF Final Energy:  -578.61913309644899

   => Energetics <=

    Nuclear Repulsion Energy =            693.0134438024573456
    One-Electron Energy =               -2163.0859469497504506
    Two-Electron Energy =                 891.4533700508440006
    Total Energy =                       -578.6191330964489907
  Basis Set: (AUG-CC-PVTZ AUX)
    Blend: AUG-CC-PVTZ-RI
    Molecular point group: c1

    Geometry (in Angstrom), charge = 0, multiplicity = 1:

       Center              X                  Y                   Z               Mass
    ------------   -----------------  -----------------  -----------------  -----------------
         O           -1.469560559279     2.564203155820     0.091295031027    15.994914619570
         N            1.919372440721    -0.583325844180    -0.044735968973    14.003074004430
         N           -1.910065559279     0.305902155820     0.059402031027    14.003074004430
         N           -0.342503559279    -1.467432844180    -0.027854968973    14.003074004430
         N            1.516857440721     1.640702155820     0.000336031027    14.003074004430
         N           -2.629215559279    -1.917127844180     0.121974031027    14.003074004430
         C            0.557911440721    -0.437113844180    -0.018634968973    12.000000000000
         C            0.333970440721     0.939475155820     0.001495031027    12.000000000000
         C           -1.024885859279     1.426237455820    -0.103872568973    12.000000000000
         C            2.439275440721     0.689293155820    -0.059025968973    12.000000000000
         C           -1.572844559279    -1.026242844180     0.029699031027    12.000000000000
         C            2.635582440721    -1.845518844180    -0.054624968973    12.000000000000
         H            3.509474440721     0.858883155820    -0.075711968973     1.007825032230
         H            2.373147440721    -2.430623844180     0.828643031027     1.007825032230
         H            2.379685440721    -2.414275844180    -0.949611968973     1.007825032230
         H            3.704352440721    -1.630783844180    -0.048338968973     1.007825032230
         H           -2.887768559279     0.568949155820     0.180211031027     1.007825032230
         H           -2.325590559279    -2.867890844180    -0.053344968973     1.007825032230
         H           -3.459480559279    -1.672835844180    -0.406455968973     1.007825032230

  Basis Set: AUG-CC-PVTZ
    Blend: AUG-CC-PVTZ
  Basis Set: (AUG-CC-PVTZ AUX)
    Blend: AUG-CC-PVTZ-JKFIT
	 Reference Energy          =    -578.6191330964489907 [Eh]
	 Singles Energy            =      -0.0000000000000000 [Eh]
	 Same-Spin Energy          =      -0.6168774320551567 [Eh]
	 Opposite-Spin Energy      =      -1.8214530192361098 [Eh]
	 Correlation Energy        =      -2.4383304512912662 [Eh]
	 Total Energy              =    -581.0574635477402126 [Eh]

	 ================> DF-SCS-MP2 Energies <==================
	-----------------------------------------------------------
	 SCS Same-Spin Scale       =       0.3333333333333333 [-]
	 SCS Opposite-Spin Scale   =       1.2000000000000000 [-]
	 SCS Same-Spin Energy      =      -0.2056258106850522 [Eh]
	 SCS Opposite-Spin Energy  =      -2.1857436230833316 [Eh]
	 SCS Correlation Energy    =      -2.3913694337683840 [Eh]
	 SCS Total Energy          =    -581.0105025302174226 [Eh]
	-----------------------------------------------------------

  Dipole Moment: [D]
     X:     0.0041      Y:    -6.7616      Z:    -1.0956     Total:     6.8498

*** Psi4 exiting successfully. Buy a developer a beer!
