                               Psi4 1.3.2 release

  ==> Input File <==

--------------------------------------------------------------------------
#psi4
#
memory 32 gb

molecule  {
0 1
  O       -1.4697740     2.5644010     0.0803940
  N        1.9191590    -0.5831280    -0.0556370
  N       -1.9102790     0.3061000     0.0485010
  N       -0.3427170    -1.4672350    -0.0387560
  N        1.5166440     1.6409000    -0.0105650
  N       -2.6294290    -1.9169300     0.1110730
  C        0.5576980    -0.4369160    -0.0295360
  C        0.3303230     0.9436860    -0.2593502
  C       -1.0221650     1.4237120     0.0351730
  C        2.4390620     0.6894910    -0.0699270
  C       -1.5730580    -1.0260450     0.0187980
  C        2.6353690    -1.8453210    -0.0655260
  H        3.5092610     0.8590810    -0.0866130
  H        2.3729340    -2.4304260     0.8177420
  H        2.3794720    -2.4140780    -0.9605130
  H        3.7041390    -1.6305860    -0.0592400
  H       -2.8879820     0.5691470     0.1693100
  H       -2.3258040    -2.8676930    -0.0642460
  H       -3.4596940    -1.6726380    -0.4173570
units angstrom
no_reorient  #important for SAPT in psi4, default
symmetry c1  #important for SAPT in psi4, default
}

set PROPERTIES_ORIGIN ["COM"]
properties('MP2/aug-cc-pvtz', properties = ['dipole'])
--------------------------------------------------------------------------

    Molecular point group: c1
  Charge       = 0
  Multiplicity = 1
  Basis Set: AUG-CC-PVTZ
    Blend: AUG-CC-PVTZ
  Basis Set: (AUG-CC-PVTZ AUX)
    Blend: AUG-CC-PVTZ-JKFIT

    Orbital Energies [Eh]
    ---------------------

    Doubly Occupied:

       1A    -20.521740     2A    -15.633341     3A    -15.629308
       4A    -15.612401     5A    -15.571500     6A    -15.559823
       7A    -11.398266     8A    -11.365361     9A    -11.324335
      10A    -11.307267    11A    -11.289717    12A    -11.250033
      13A     -1.390086    14A     -1.359669    15A     -1.334232
      16A     -1.219627    17A     -1.215697    18A     -1.187615
      19A     -1.025268    20A     -0.984742    21A     -0.898098
      22A     -0.882265    23A     -0.806383    24A     -0.761069
      25A     -0.740136    26A     -0.728266    27A     -0.692603
      28A     -0.671957    29A     -0.647189    30A     -0.643694
      31A     -0.624765    32A     -0.609082    33A     -0.589174
      34A     -0.578960    35A     -0.557880    36A     -0.540854
      37A     -0.492393    38A     -0.461171    39A     -0.439347
      40A     -0.430373    41A     -0.422389    42A     -0.390078
      43A     -0.298631

  @DF-RHF Final Energy:  -578.61133533070097

   => Energetics <=

    Nuclear Repulsion Energy =            692.3561036050202802
    One-Electron Energy =               -2161.7613070119241456
    Two-Electron Energy =                 890.7938680762028980
    Total Energy =                       -578.6113353307009675
  Basis Set: (AUG-CC-PVTZ AUX)
    Blend: AUG-CC-PVTZ-RI
    Molecular point group: c1

    Geometry (in Angstrom), charge = 0, multiplicity = 1:

       Center              X                  Y                   Z               Mass
    ------------   -----------------  -----------------  -----------------  -----------------
         O           -1.469524231785     2.564109396425     0.098564717301    15.994914619570
         N            1.919408768215    -0.583419603575    -0.037466282699    14.003074004430
         N           -1.910029231785     0.305808396425     0.066671717301    14.003074004430
         N           -0.342467231785    -1.467526603575    -0.020585282699    14.003074004430
         N            1.516893768215     1.640608396425     0.007605717301    14.003074004430
         N           -2.629179231785    -1.917221603575     0.129243717301    14.003074004430
         C            0.557947768215    -0.437207603575    -0.011365282699    12.000000000000
         C            0.330572768215     0.943394396425    -0.241179482699    12.000000000000
         C           -1.021915231785     1.423420396425     0.053343717301    12.000000000000
         C            2.439311768215     0.689199396425    -0.051756282699    12.000000000000
         C           -1.572808231785    -1.026336603575     0.036968717301    12.000000000000
         C            2.635618768215    -1.845612603575    -0.047355282699    12.000000000000
         H            3.509510768215     0.858789396425    -0.068442282699     1.007825032230
         H            2.373183768215    -2.430717603575     0.835912717301     1.007825032230
         H            2.379721768215    -2.414369603575    -0.942342282699     1.007825032230
         H            3.704388768215    -1.630877603575    -0.041069282699     1.007825032230
         H           -2.887732231785     0.568855396425     0.187480717301     1.007825032230
         H           -2.325554231785    -2.867984603575    -0.046075282699     1.007825032230
         H           -3.459444231785    -1.672929603575    -0.399186282699     1.007825032230

  Basis Set: AUG-CC-PVTZ
    Blend: AUG-CC-PVTZ
  Basis Set: (AUG-CC-PVTZ AUX)
    Blend: AUG-CC-PVTZ-JKFIT
	 Reference Energy          =    -578.6113353307009675 [Eh]
	 Singles Energy            =      -0.0000000000000000 [Eh]
	 Same-Spin Energy          =      -0.6164546165673501 [Eh]
	 Opposite-Spin Energy      =      -1.8211178816870568 [Eh]
	 Correlation Energy        =      -2.4375724982544069 [Eh]
	 Total Energy              =    -581.0489078289554072 [Eh]

	 ================> DF-SCS-MP2 Energies <==================
	-----------------------------------------------------------
	 SCS Same-Spin Scale       =       0.3333333333333333 [-]
	 SCS Opposite-Spin Scale   =       1.2000000000000000 [-]
	 SCS Same-Spin Energy      =      -0.2054848721891167 [Eh]
	 SCS Opposite-Spin Energy  =      -2.1853414580244679 [Eh]
	 SCS Correlation Energy    =      -2.3908263302135846 [Eh]
	 SCS Total Energy          =    -581.0021616609145667 [Eh]
	-----------------------------------------------------------

  Dipole Moment: [D]
     X:    -0.0668      Y:    -6.8230      Z:    -0.9271     Total:     6.8860

*** Psi4 exiting successfully. Buy a developer a beer!
