                               Psi4 1.3.2 release

  ==> Input File <==

--------------------------------------------------------------------------
#psi4
#
memory 32 gb

molecule  {
0 1
  O       -1.4697740     2.5644010     0.0803940
  N        1.9191590    -0.5831280    -0.0556370
  N       -1.9102790     0.3061000     0.0485010
  N       -0.3427170    -1.4672350    -0.0387560
  N        1.5166440     1.6409000    -0.0105650
  N       -2.6294290    -1.9169300     0.1110730
  C        0.5576980    -0.4369160    -0.0295360
  C        0.3337570     0.9396730    -0.0094060
  C       -1.0221650     1.4237120     0.0351730
  C        2.4390620     0.6894910    -0.0699270
  C       -1.5730580    -1.0260450     0.0187980
  C        2.6343930    -1.8454834    -0.1155162
  H        3.5092610     0.8590810    -0.0866130
  H        2.3729340    -2.4304260     0.8177420
  H        2.3794720    -2.4140780    -0.9605130
  H        3.7041390    -1.6305860    -0.0592400
  H       -2.8879820     0.5691470     0.1693100
  H       -2.3258040    -2.8676930    -0.0642460
  H       -3.4596940    -1.6726380    -0.4173570
units angstrom
no_reorient  #important for SAPT in psi4, default
symmetry c1  #important for SAPT in psi4, default
}

set PROPERTIES_ORIGIN ["COM"]
properties('MP2/aug-cc-pvtz', properties = ['dipole'])
--------------------------------------------------------------------------

    Molecular point group: c1
  Charge       = 0
  Multiplicity = 1
  Basis Set: AUG-CC-PVTZ
    Blend: AUG-CC-PVTZ
  Basis Set: (AUG-CC-PVTZ AUX)
    Blend: AUG-CC-PVTZ-JKFIT

    Orbital Energies [Eh]
    ---------------------

    Doubly Occupied:

       1A    -20.520897     2A    -15.633035     3A    -15.629315
       4A    -15.610693     5A    -15.570872     6A    -15.559623
       7A    -11.396056     8A    -11.364280     9A    -11.319137
      10A    -11.307282    11A    -11.289723    12A    -11.246982
      13A     -1.390684    14A     -1.360567    15A     -1.334012
      16A     -1.219085    17A     -1.216210    18A     -1.190598
      19A     -1.029430    20A     -0.986731    21A     -0.901692
      22A     -0.882199    23A     -0.807938    24A     -0.767083
      25A     -0.741283    26A     -0.729353    27A     -0.692605
      28A     -0.672283    29A     -0.650360    30A     -0.639860
      31A     -0.629319    32A     -0.610311    33A     -0.594002
      34A     -0.577449    35A     -0.559321    36A     -0.541084
      37A     -0.493590    38A     -0.459263    39A     -0.439938
      40A     -0.429317    41A     -0.428809    42A     -0.392748
      43A     -0.298415

  @DF-RHF Final Energy:  -578.62802810233450

   => Energetics <=

    Nuclear Repulsion Energy =            693.4373564054842518
    One-Electron Energy =               -2163.9039045105696459
    Two-Electron Energy =                 891.8385200027508972
    Total Energy =                       -578.6280281023344969
  Basis Set: (AUG-CC-PVTZ AUX)
    Blend: AUG-CC-PVTZ-RI
    Molecular point group: c1

    Geometry (in Angstrom), charge = 0, multiplicity = 1:

       Center              X                  Y                   Z               Mass
    ------------   -----------------  -----------------  -----------------  -----------------
         O           -1.469702924962     2.564412942191     0.084028339936    15.994914619570
         N            1.919230075038    -0.583116057809    -0.052002660064    14.003074004430
         N           -1.910207924962     0.306111942191     0.052135339936    14.003074004430
         N           -0.342645924962    -1.467223057809    -0.035121660064    14.003074004430
         N            1.516715075038     1.640911942191    -0.006930660064    14.003074004430
         N           -2.629357924962    -1.916918057809     0.114707339936    14.003074004430
         C            0.557769075038    -0.436904057809    -0.025901660064    12.000000000000
         C            0.333828075038     0.939684942191    -0.005771660064    12.000000000000
         C           -1.022093924962     1.423723942191     0.038807339936    12.000000000000
         C            2.439133075038     0.689502942191    -0.066292660064    12.000000000000
         C           -1.572986924962    -1.026033057809     0.022432339936    12.000000000000
         C            2.634464075038    -1.845471457809    -0.111881860064    12.000000000000
         H            3.509332075038     0.859092942191    -0.082978660064     1.007825032230
         H            2.373005075038    -2.430414057809     0.821376339936     1.007825032230
         H            2.379543075038    -2.414066057809    -0.956878660064     1.007825032230
         H            3.704210075038    -1.630574057809    -0.055605660064     1.007825032230
         H           -2.887910924962     0.569158942191     0.172944339936     1.007825032230
         H           -2.325732924962    -2.867681057809    -0.060611660064     1.007825032230
         H           -3.459622924962    -1.672626057809    -0.413722660064     1.007825032230

  Basis Set: AUG-CC-PVTZ
    Blend: AUG-CC-PVTZ
  Basis Set: (AUG-CC-PVTZ AUX)
    Blend: AUG-CC-PVTZ-JKFIT
	 Reference Energy          =    -578.6280281023344969 [Eh]
	 Singles Energy            =      -0.0000000000000000 [Eh]
	 Same-Spin Energy          =      -0.6161123903329568 [Eh]
	 Opposite-Spin Energy      =      -1.8199331869943909 [Eh]
	 Correlation Energy        =      -2.4360455773273477 [Eh]
	 Total Energy              =    -581.0640736796618739 [Eh]

	 ================> DF-SCS-MP2 Energies <==================
	-----------------------------------------------------------
	 SCS Same-Spin Scale       =       0.3333333333333333 [-]
	 SCS Opposite-Spin Scale   =       1.2000000000000000 [-]
	 SCS Same-Spin Energy      =      -0.2053707967776523 [Eh]
	 SCS Opposite-Spin Energy  =      -2.1839198243932691 [Eh]
	 SCS Correlation Energy    =      -2.3892906211709213 [Eh]
	 SCS Total Energy          =    -581.0173187235054684 [Eh]
	-----------------------------------------------------------

  Dipole Moment: [D]
     X:    -0.0157      Y:    -6.7874      Z:    -0.9871     Total:     6.8588

*** Psi4 exiting successfully. Buy a developer a beer!
