                               Psi4 1.3.2 release

  ==> Input File <==

--------------------------------------------------------------------------
#psi4
#
memory 32 gb

molecule  {
0 1
  O       -1.4697740     2.5644010     0.0803940
  N        1.9191590    -0.5831280    -0.0556370
  N       -1.9102790     0.3061000     0.0485010
  N       -0.3427170    -1.4672350    -0.0387560
  N        1.5166440     1.6409000    -0.0105650
  N       -2.6294290    -1.9169300     0.1110730
  C        0.5576980    -0.4369160    -0.0295360
  C        0.3337570     0.9396730    -0.0094060
  C       -1.0221650     1.4237120     0.0351730
  C        2.4390620     0.6894910    -0.0699270
  C       -1.5730580    -1.0260450     0.0187980
  C        2.6353690    -1.8453210    -0.0655260
  H        3.5060108     0.8605181    -0.1865498
  H        2.3729340    -2.4304260     0.8177420
  H        2.3794720    -2.4140780    -0.9605130
  H        3.7041390    -1.6305860    -0.0592400
  H       -2.8879820     0.5691470     0.1693100
  H       -2.3258040    -2.8676930    -0.0642460
  H       -3.4596940    -1.6726380    -0.4173570
units angstrom
no_reorient  #important for SAPT in psi4, default
symmetry c1  #important for SAPT in psi4, default
}

set PROPERTIES_ORIGIN ["COM"]
properties('MP2/aug-cc-pvtz', properties = ['dipole'])
--------------------------------------------------------------------------

    Molecular point group: c1
  Charge       = 0
  Multiplicity = 1
  Basis Set: AUG-CC-PVTZ
    Blend: AUG-CC-PVTZ
  Basis Set: (AUG-CC-PVTZ AUX)
    Blend: AUG-CC-PVTZ-JKFIT

    Orbital Energies [Eh]
    ---------------------

    Doubly Occupied:

       1A    -20.520903     2A    -15.632818     3A    -15.629316
       4A    -15.610721     5A    -15.570883     6A    -15.559601
       7A    -11.396064     8A    -11.364285     9A    -11.319158
      10A    -11.307588    11A    -11.289337    12A    -11.246999
      13A     -1.390688    14A     -1.360570    15A     -1.334019
      16A     -1.219098    17A     -1.216216    18A     -1.190653
      19A     -1.029348    20A     -0.986444    21A     -0.901466
      22A     -0.882174    23A     -0.807693    24A     -0.766798
      25A     -0.741193    26A     -0.729142    27A     -0.691999
      28A     -0.671789    29A     -0.649599    30A     -0.641433
      31A     -0.626699    32A     -0.610475    33A     -0.593435
      34A     -0.578378    35A     -0.561178    36A     -0.541515
      37A     -0.493788    38A     -0.459071    39A     -0.440071
      40A     -0.429459    41A     -0.428529    42A     -0.392734
      43A     -0.298323

  @DF-RHF Final Energy:  -578.63024447838507

   => Energetics <=

    Nuclear Repulsion Energy =            693.4366458831989348
    One-Electron Energy =               -2163.9104727197777720
    Two-Electron Energy =                 891.8435823581937711
    Total Energy =                       -578.6302444783850660
  Basis Set: (AUG-CC-PVTZ AUX)
    Blend: AUG-CC-PVTZ-RI
    Molecular point group: c1

    Geometry (in Angstrom), charge = 0, multiplicity = 1:

       Center              X                  Y                   Z               Mass
    ------------   -----------------  -----------------  -----------------  -----------------
         O           -1.469754034307     2.564392361547     0.081004298436    15.994914619570
         N            1.919178965693    -0.583136638453    -0.055026701564    14.003074004430
         N           -1.910259034307     0.306091361547     0.049111298436    14.003074004430
         N           -0.342697034307    -1.467243638453    -0.038145701564    14.003074004430
         N            1.516663965693     1.640891361547    -0.009954701564    14.003074004430
         N           -2.629409034307    -1.916938638453     0.111683298436    14.003074004430
         C            0.557717965693    -0.436924638453    -0.028925701564    12.000000000000
         C            0.333776965693     0.939664361547    -0.008795701564    12.000000000000
         C           -1.022145034307     1.423703361547     0.035783298436    12.000000000000
         C            2.439081965693     0.689482361547    -0.069316701564    12.000000000000
         C           -1.573038034307    -1.026053638453     0.019408298436    12.000000000000
         C            2.635388965693    -1.845329638453    -0.064915701564    12.000000000000
         H            3.506030765693     0.860509461547    -0.185939501564     1.007825032230
         H            2.372953965693    -2.430434638453     0.818352298436     1.007825032230
         H            2.379491965693    -2.414086638453    -0.959902701564     1.007825032230
         H            3.704158965693    -1.630594638453    -0.058629701564     1.007825032230
         H           -2.887962034307     0.569138361547     0.169920298436     1.007825032230
         H           -2.325784034307    -2.867701638453    -0.063635701564     1.007825032230
         H           -3.459674034307    -1.672646638453    -0.416746701564     1.007825032230

  Basis Set: AUG-CC-PVTZ
    Blend: AUG-CC-PVTZ
  Basis Set: (AUG-CC-PVTZ AUX)
    Blend: AUG-CC-PVTZ-JKFIT
	 Reference Energy          =    -578.6302444783850660 [Eh]
	 Singles Energy            =      -0.0000000000000000 [Eh]
	 Same-Spin Energy          =      -0.6161043760941702 [Eh]
	 Opposite-Spin Energy      =      -1.8198729579966366 [Eh]
	 Correlation Energy        =      -2.4359773340908069 [Eh]
	 Total Energy              =    -581.0662218124758738 [Eh]

	 ================> DF-SCS-MP2 Energies <==================
	-----------------------------------------------------------
	 SCS Same-Spin Scale       =       0.3333333333333333 [-]
	 SCS Opposite-Spin Scale   =       1.2000000000000000 [-]
	 SCS Same-Spin Energy      =      -0.2053681253647234 [Eh]
	 SCS Opposite-Spin Energy  =      -2.1838475495959639 [Eh]
	 SCS Correlation Energy    =      -2.3892156749606874 [Eh]
	 SCS Total Energy          =    -581.0194601533457899 [Eh]
	-----------------------------------------------------------

  Dipole Moment: [D]
     X:    -0.0202      Y:    -6.7896      Z:    -1.0072     Total:     6.8639

*** Psi4 exiting successfully. Buy a developer a beer!
