                               Psi4 1.3.2 release

  ==> Input File <==

--------------------------------------------------------------------------
#psi4
#
memory 32 gb

molecule  {
0 1
  O       -1.4697740     2.5644010     0.0803940
  N        1.9191590    -0.5831280    -0.0556370
  N       -1.9102790     0.3061000     0.0485010
  N       -0.3427170    -1.4672350    -0.0387560
  N        1.5166440     1.6409000    -0.0105650
  N       -2.6294290    -1.9169300     0.1110730
  C        0.5576980    -0.4369160    -0.0295360
  C        0.3353323     0.9386601     0.0405589
  C       -1.0221650     1.4237120     0.0351730
  C        2.4390620     0.6894910    -0.0699270
  C       -1.5730580    -1.0260450     0.0187980
  C        2.6353690    -1.8453210    -0.0655260
  H        3.5092610     0.8590810    -0.0866130
  H        2.3729340    -2.4304260     0.8177420
  H        2.3794720    -2.4140780    -0.9605130
  H        3.7041390    -1.6305860    -0.0592400
  H       -2.8879820     0.5691470     0.1693100
  H       -2.3258040    -2.8676930    -0.0642460
  H       -3.4596940    -1.6726380    -0.4173570
units angstrom
no_reorient  #important for SAPT in psi4, default
symmetry c1  #important for SAPT in psi4, default
}

set PROPERTIES_ORIGIN ["COM"]
properties('MP2/aug-cc-pvtz', properties = ['dipole'])
--------------------------------------------------------------------------

    Molecular point group: c1
  Charge       = 0
  Multiplicity = 1
  Basis Set: AUG-CC-PVTZ
    Blend: AUG-CC-PVTZ
  Basis Set: (AUG-CC-PVTZ AUX)
    Blend: AUG-CC-PVTZ-JKFIT

    Orbital Energies [Eh]
    ---------------------

    Doubly Occupied:

       1A    -20.520971     2A    -15.632837     3A    -15.629293
       4A    -15.610719     5A    -15.570870     6A    -15.559540
       7A    -11.396121     8A    -11.364340     9A    -11.319201
      10A    -11.307217    11A    -11.289365    12A    -11.247018
      13A     -1.390675    14A     -1.360565    15A     -1.334023
      16A     -1.219086    17A     -1.216199    18A     -1.190597
      19A     -1.029268    20A     -0.986389    21A     -0.901458
      22A     -0.882194    23A     -0.807846    24A     -0.766657
      25A     -0.741192    26A     -0.729413    27A     -0.692326
      28A     -0.670919    29A     -0.649529    30A     -0.641815
      31A     -0.627017    32A     -0.610442    33A     -0.593593
      34A     -0.578480    35A     -0.561053    36A     -0.541345
      37A     -0.493647    38A     -0.459500    39A     -0.439681
      40A     -0.429649    41A     -0.428414    42A     -0.392713
      43A     -0.298372

  @DF-RHF Final Energy:  -578.63019790339195

   => Energetics <=

    Nuclear Repulsion Energy =            693.4301880049541751
    One-Electron Energy =               -2163.8976759827196474
    Two-Electron Energy =                 891.8372900743734135
    Total Energy =                       -578.6301979033919451
  Basis Set: (AUG-CC-PVTZ AUX)
    Blend: AUG-CC-PVTZ-RI
    Molecular point group: c1

    Geometry (in Angstrom), charge = 0, multiplicity = 1:

       Center              X                  Y                   Z               Mass
    ------------   -----------------  -----------------  -----------------  -----------------
         O           -1.469888400919     2.564474772357     0.076761743353    15.994914619570
         N            1.919044599081    -0.583054227643    -0.059269256647    14.003074004430
         N           -1.910393400919     0.306173772357     0.044868743353    14.003074004430
         N           -0.342831400919    -1.467161227643    -0.042388256647    14.003074004430
         N            1.516529599081     1.640973772357    -0.014197256647    14.003074004430
         N           -2.629543400919    -1.916856227643     0.107440743353    14.003074004430
         C            0.557583599081    -0.436842227643    -0.033168256647    12.000000000000
         C            0.335217899081     0.938733872357     0.036926643353    12.000000000000
         C           -1.022279400919     1.423785772357     0.031540743353    12.000000000000
         C            2.438947599081     0.689564772357    -0.073559256647    12.000000000000
         C           -1.573172400919    -1.025971227643     0.015165743353    12.000000000000
         C            2.635254599081    -1.845247227643    -0.069158256647    12.000000000000
         H            3.509146599081     0.859154772357    -0.090245256647     1.007825032230
         H            2.372819599081    -2.430352227643     0.814109743353     1.007825032230
         H            2.379357599081    -2.414004227643    -0.964145256647     1.007825032230
         H            3.704024599081    -1.630512227643    -0.062872256647     1.007825032230
         H           -2.888096400919     0.569220772357     0.165677743353     1.007825032230
         H           -2.325918400919    -2.867619227643    -0.067878256647     1.007825032230
         H           -3.459808400919    -1.672564227643    -0.420989256647     1.007825032230

  Basis Set: AUG-CC-PVTZ
    Blend: AUG-CC-PVTZ
  Basis Set: (AUG-CC-PVTZ AUX)
    Blend: AUG-CC-PVTZ-JKFIT
	 Reference Energy          =    -578.6301979033919451 [Eh]
	 Singles Energy            =      -0.0000000000000000 [Eh]
	 Same-Spin Energy          =      -0.6160794651617090 [Eh]
	 Opposite-Spin Energy      =      -1.8197783272684744 [Eh]
	 Correlation Energy        =      -2.4358577924301832 [Eh]
	 Total Energy              =    -581.0660556958221150 [Eh]

	 ================> DF-SCS-MP2 Energies <==================
	-----------------------------------------------------------
	 SCS Same-Spin Scale       =       0.3333333333333333 [-]
	 SCS Opposite-Spin Scale   =       1.2000000000000000 [-]
	 SCS Same-Spin Energy      =      -0.2053598217205697 [Eh]
	 SCS Opposite-Spin Energy  =      -2.1837339927221691 [Eh]
	 SCS Correlation Energy    =      -2.3890938144427389 [Eh]
	 SCS Total Energy          =    -581.0192917178346761 [Eh]
	-----------------------------------------------------------

  Dipole Moment: [D]
     X:    -0.0158      Y:    -6.7901      Z:    -0.9356     Total:     6.8543

*** Psi4 exiting successfully. Buy a developer a beer!
