                               Psi4 1.3.2 release

  ==> Input File <==

--------------------------------------------------------------------------
#psi4
#
memory 32 gb

molecule  {
0 1
  O       -1.4697740     2.5644010     0.0803940
  N        1.9191590    -0.5831280    -0.0556370
  N       -1.9102790     0.3061000     0.0485010
  N       -0.3427170    -1.4672350    -0.0387560
  N        1.5166440     1.6409000    -0.0105650
  N       -2.6294290    -1.9169300     0.1110730
  C        0.5576980    -0.4369160    -0.0295360
  C        0.3416336     0.9346084     0.2404186
  C       -1.0221650     1.4237120     0.0351730
  C        2.4390620     0.6894910    -0.0699270
  C       -1.5730580    -1.0260450     0.0187980
  C        2.6353690    -1.8453210    -0.0655260
  H        3.5092610     0.8590810    -0.0866130
  H        2.3729340    -2.4304260     0.8177420
  H        2.3794720    -2.4140780    -0.9605130
  H        3.7041390    -1.6305860    -0.0592400
  H       -2.8879820     0.5691470     0.1693100
  H       -2.3258040    -2.8676930    -0.0642460
  H       -3.4596940    -1.6726380    -0.4173570
units angstrom
no_reorient  #important for SAPT in psi4, default
symmetry c1  #important for SAPT in psi4, default
}

set PROPERTIES_ORIGIN ["COM"]
properties('MP2/aug-cc-pvtz', properties = ['dipole'])
--------------------------------------------------------------------------

    Molecular point group: c1
  Charge       = 0
  Multiplicity = 1
  Basis Set: AUG-CC-PVTZ
    Blend: AUG-CC-PVTZ
  Basis Set: (AUG-CC-PVTZ AUX)
    Blend: AUG-CC-PVTZ-JKFIT

    Orbital Energies [Eh]
    ---------------------

    Doubly Occupied:

       1A    -20.521876     2A    -15.633028     3A    -15.629214
       4A    -15.612131     5A    -15.571402     6A    -15.559485
       7A    -11.398231     8A    -11.365268     9A    -11.323737
      10A    -11.306942    11A    -11.289584    12A    -11.249514
      13A     -1.390251    14A     -1.359790    15A     -1.334240
      16A     -1.219571    17A     -1.215765    18A     -1.187933
      19A     -1.025655    20A     -0.984826    21A     -0.898272
      22A     -0.882347    23A     -0.806382    24A     -0.761812
      25A     -0.740562    26A     -0.729196    27A     -0.693683
      28A     -0.670028    29A     -0.647174    30A     -0.640797
      31A     -0.628757    32A     -0.609284    33A     -0.589927
      34A     -0.578652    35A     -0.558986    36A     -0.539126
      37A     -0.492153    38A     -0.462104    39A     -0.437597
      40A     -0.431144    41A     -0.422793    42A     -0.390791
      43A     -0.298544

  @DF-RHF Final Energy:  -578.61321661076329

   => Energetics <=

    Nuclear Repulsion Energy =            692.5359091419519473
    One-Electron Energy =               -2162.1211387236348855
    Two-Electron Energy =                 890.9720129709197636
    Total Energy =                       -578.6132166107632884
  Basis Set: (AUG-CC-PVTZ AUX)
    Blend: AUG-CC-PVTZ-RI
    Molecular point group: c1

    Geometry (in Angstrom), charge = 0, multiplicity = 1:

       Center              X                  Y                   Z               Mass
    ------------   -----------------  -----------------  -----------------  -----------------
         O           -1.470346496655     2.564769325305     0.062232221467    15.994914619570
         N            1.918586503345    -0.582759674695    -0.073798778533    14.003074004430
         N           -1.910851496655     0.306468325305     0.030339221467    14.003074004430
         N           -0.343289496655    -1.466866674695    -0.056917778533    14.003074004430
         N            1.516071503345     1.641268325305    -0.028726778533    14.003074004430
         N           -2.630001496655    -1.916561674695     0.092911221467    14.003074004430
         C            0.557125503345    -0.436547674695    -0.047697778533    12.000000000000
         C            0.341061103345     0.934976725305     0.222256821467    12.000000000000
         C           -1.022737496655     1.424080325305     0.017011221467    12.000000000000
         C            2.438489503345     0.689859325305    -0.088088778533    12.000000000000
         C           -1.573630496655    -1.025676674695     0.000636221467    12.000000000000
         C            2.634796503345    -1.844952674695    -0.083687778533    12.000000000000
         H            3.508688503345     0.859449325305    -0.104774778533     1.007825032230
         H            2.372361503345    -2.430057674695     0.799580221467     1.007825032230
         H            2.378899503345    -2.413709674695    -0.978674778533     1.007825032230
         H            3.703566503345    -1.630217674695    -0.077401778533     1.007825032230
         H           -2.888554496655     0.569515325305     0.151148221467     1.007825032230
         H           -2.326376496655    -2.867324674695    -0.082407778533     1.007825032230
         H           -3.460266496655    -1.672269674695    -0.435518778533     1.007825032230

  Basis Set: AUG-CC-PVTZ
    Blend: AUG-CC-PVTZ
  Basis Set: (AUG-CC-PVTZ AUX)
    Blend: AUG-CC-PVTZ-JKFIT
	 Reference Energy          =    -578.6132166107632884 [Eh]
	 Singles Energy            =      -0.0000000000000000 [Eh]
	 Same-Spin Energy          =      -0.6163864798547765 [Eh]
	 Opposite-Spin Energy      =      -1.8208659821305484 [Eh]
	 Correlation Energy        =      -2.4372524619853246 [Eh]
	 Total Energy              =    -581.0504690727485695 [Eh]

	 ================> DF-SCS-MP2 Energies <==================
	-----------------------------------------------------------
	 SCS Same-Spin Scale       =       0.3333333333333333 [-]
	 SCS Opposite-Spin Scale   =       1.2000000000000000 [-]
	 SCS Same-Spin Energy      =      -0.2054621599515921 [Eh]
	 SCS Opposite-Spin Energy  =      -2.1850391785566581 [Eh]
	 SCS Correlation Energy    =      -2.3905013385082503 [Eh]
	 SCS Total Energy          =    -581.0037179492715040 [Eh]
	-----------------------------------------------------------

  Dipole Moment: [D]
     X:    -0.0688      Y:    -6.8128      Z:    -0.9389     Total:     6.8775

*** Psi4 exiting successfully. Buy a developer a beer!
