                               Psi4 1.3.2 release

  ==> Input File <==

--------------------------------------------------------------------------
#psi4
#
memory 32 gb

molecule  {
0 1
  O       -1.4697740     2.5644010     0.0803940
  N        1.9191590    -0.5831280    -0.0556370
  N       -1.9102790     0.3061000     0.0485010
  N       -0.3427170    -1.4672350    -0.0387560
  N        1.5166440     1.6409000    -0.0105650
  N       -2.6294290    -1.9169300     0.1110730
  C        0.5576980    -0.4369160    -0.0295360
  C        0.3337570     0.9396730    -0.0094060
  C       -1.0221650     1.4237120     0.0351730
  C        2.4390620     0.6894910    -0.0699270
  C       -1.5730580    -1.0260450     0.0187980
  C        2.6353690    -1.8453210    -0.0655260
  H        3.5092610     0.8590810    -0.0866130
  H        2.3729340    -2.4304260     0.8177420
  H        2.3794720    -2.4140780    -0.9605130
  H        3.7041390    -1.6305860    -0.0592400
  H       -2.8879820     0.5691470     0.1693100
  H       -2.3258040    -2.8676930    -0.0642460
  H       -3.3989558    -1.6865465    -0.6594674
units angstrom
no_reorient  #important for SAPT in psi4, default
symmetry c1  #important for SAPT in psi4, default
}

set PROPERTIES_ORIGIN ["COM"]
properties('MP2/aug-cc-pvtz', properties = ['dipole'])
--------------------------------------------------------------------------

    Molecular point group: c1
  Charge       = 0
  Multiplicity = 1
  Basis Set: AUG-CC-PVTZ
    Blend: AUG-CC-PVTZ
  Basis Set: (AUG-CC-PVTZ AUX)
    Blend: AUG-CC-PVTZ-JKFIT

    Orbital Energies [Eh]
    ---------------------

    Doubly Occupied:

       1A    -20.521387     2A    -15.634050     3A    -15.629518
       4A    -15.618393     5A    -15.573356     6A    -15.560664
       7A    -11.394512     8A    -11.364787     9A    -11.319607
      10A    -11.308585    11A    -11.290264    12A    -11.248672
      13A     -1.391086    14A     -1.361493    15A     -1.333406
      16A     -1.217853    17A     -1.211398    18A     -1.191482
      19A     -1.028810    20A     -0.987404    21A     -0.902279
      22A     -0.879445    23A     -0.803899    24A     -0.765216
      25A     -0.740248    26A     -0.724566    27A     -0.679370
      28A     -0.667783    29A     -0.649715    30A     -0.642786
      31A     -0.618785    32A     -0.611028    33A     -0.594543
      34A     -0.579395    35A     -0.560113    36A     -0.541429
      37A     -0.494950    38A     -0.464309    39A     -0.440783
      40A     -0.429968    41A     -0.429271    42A     -0.393677
      43A     -0.300409

  @DF-RHF Final Energy:  -578.62005010415612

   => Energetics <=

    Nuclear Repulsion Energy =            693.1115752645309840
    One-Electron Energy =               -2163.2618609096175533
    Two-Electron Energy =                 891.5302355409304482
    Total Energy =                       -578.6200501041561211
  Basis Set: (AUG-CC-PVTZ AUX)
    Blend: AUG-CC-PVTZ-RI
    Molecular point group: c1

    Geometry (in Angstrom), charge = 0, multiplicity = 1:

       Center              X                  Y                   Z               Mass
    ------------   -----------------  -----------------  -----------------  -----------------
         O           -1.470144723356     2.564486055995     0.081872356843    15.994914619570
         N            1.918788276644    -0.583042944005    -0.054158643157    14.003074004430
         N           -1.910649723356     0.306185055995     0.049979356843    14.003074004430
         N           -0.343087723356    -1.467149944005    -0.037277643157    14.003074004430
         N            1.516273276644     1.640985055995    -0.009086643157    14.003074004430
         N           -2.629799723356    -1.916844944005     0.112551356843    14.003074004430
         C            0.557327276644    -0.436830944005    -0.028057643157    12.000000000000
         C            0.333386276644     0.939758055995    -0.007927643157    12.000000000000
         C           -1.022535723356     1.423797055995     0.036651356843    12.000000000000
         C            2.438691276644     0.689576055995    -0.068448643157    12.000000000000
         C           -1.573428723356    -1.025959944005     0.020276356843    12.000000000000
         C            2.634998276644    -1.845235944005    -0.064047643157    12.000000000000
         H            3.508890276644     0.859166055995    -0.085134643157     1.007825032230
         H            2.372563276644    -2.430340944005     0.819220356843     1.007825032230
         H            2.379101276644    -2.413992944005    -0.959034643157     1.007825032230
         H            3.703768276644    -1.630500944005    -0.057761643157     1.007825032230
         H           -2.888352723356     0.569232055995     0.170788356843     1.007825032230
         H           -2.326174723356    -2.867607944005    -0.062767643157     1.007825032230
         H           -3.399326523356    -1.686461444005    -0.657989043157     1.007825032230

  Basis Set: AUG-CC-PVTZ
    Blend: AUG-CC-PVTZ
  Basis Set: (AUG-CC-PVTZ AUX)
    Blend: AUG-CC-PVTZ-JKFIT
	 Reference Energy          =    -578.6200501041561211 [Eh]
	 Singles Energy            =      -0.0000000000000000 [Eh]
	 Same-Spin Energy          =      -0.6167554920906702 [Eh]
	 Opposite-Spin Energy      =      -1.8219703534749823 [Eh]
	 Correlation Energy        =      -2.4387258455656524 [Eh]
	 Total Energy              =    -581.0587759497217348 [Eh]

	 ================> DF-SCS-MP2 Energies <==================
	-----------------------------------------------------------
	 SCS Same-Spin Scale       =       0.3333333333333333 [-]
	 SCS Opposite-Spin Scale   =       1.2000000000000000 [-]
	 SCS Same-Spin Energy      =      -0.2055851640302234 [Eh]
	 SCS Opposite-Spin Energy  =      -2.1863644241699784 [Eh]
	 SCS Correlation Energy    =      -2.3919495882002018 [Eh]
	 SCS Total Energy          =    -581.0119996923563122 [Eh]
	-----------------------------------------------------------

  Dipole Moment: [D]
     X:     0.3346      Y:    -6.7228      Z:    -1.1714     Total:     6.8322

*** Psi4 exiting successfully. Buy a developer a beer!
