                               Psi4 1.3.2 release

  ==> Input File <==

--------------------------------------------------------------------------
#psi4
#
memory 32 gb

molecule  {
0 1
  O       -1.4697740     2.5644010     0.0803940
  N        1.9191590    -0.5831280    -0.0556370
  N       -1.9102790     0.3061000     0.0485010
  N       -0.3427170    -1.4672350    -0.0387560
  N        1.5166440     1.6409000    -0.0105650
  N       -2.6294290    -1.9169300     0.1110730
  C        0.5576980    -0.4369160    -0.0295360
  C        0.3432089     0.9335955     0.2903835
  C       -1.0221650     1.4237120     0.0351730
  C        2.4390620     0.6894910    -0.0699270
  C       -1.5730580    -1.0260450     0.0187980
  C        2.6353690    -1.8453210    -0.0655260
  H        3.5092610     0.8590810    -0.0866130
  H        2.3729340    -2.4304260     0.8177420
  H        2.3794720    -2.4140780    -0.9605130
  H        3.7041390    -1.6305860    -0.0592400
  H       -2.8879820     0.5691470     0.1693100
  H       -2.3258040    -2.8676930    -0.0642460
  H       -3.4596940    -1.6726380    -0.4173570
units angstrom
no_reorient  #important for SAPT in psi4, default
symmetry c1  #important for SAPT in psi4, default
}

set PROPERTIES_ORIGIN ["COM"]
properties('MP2/aug-cc-pvtz', properties = ['dipole'])
--------------------------------------------------------------------------

    Molecular point group: c1
  Charge       = 0
  Multiplicity = 1
  Basis Set: AUG-CC-PVTZ
    Blend: AUG-CC-PVTZ
  Basis Set: (AUG-CC-PVTZ AUX)
    Blend: AUG-CC-PVTZ-JKFIT

    Orbital Energies [Eh]
    ---------------------

    Doubly Occupied:

       1A    -20.522261     2A    -15.633170     3A    -15.629194
       4A    -15.612819     5A    -15.571691     6A    -15.559405
       7A    -11.399225     8A    -11.365574     9A    -11.325840
      10A    -11.306890    11A    -11.289713    12A    -11.250618
      13A     -1.390068    14A     -1.359456    15A     -1.334339
      16A     -1.219850    17A     -1.215643    18A     -1.186556
      19A     -1.024079    20A     -0.984134    21A     -0.896967
      22A     -0.882389    23A     -0.805849    24A     -0.759721
      25A     -0.740193    26A     -0.729008    27A     -0.694208
      28A     -0.669829    29A     -0.646187    30A     -0.640647
      31A     -0.629152    32A     -0.608698    33A     -0.588200
      34A     -0.578771    35A     -0.558036    36A     -0.538292
      37A     -0.491476    38A     -0.462946    39A     -0.436953
      40A     -0.430992    41A     -0.420994    42A     -0.389815
      43A     -0.298735

  @DF-RHF Final Energy:  -578.60527714421289

   => Energetics <=

    Nuclear Repulsion Energy =            692.1196380240229473
    One-Electron Energy =               -2161.2926577452235506
    Two-Electron Energy =                 890.5677425769875981
    Total Energy =                       -578.6052771442128915
  Basis Set: (AUG-CC-PVTZ AUX)
    Blend: AUG-CC-PVTZ-RI
    Molecular point group: c1

    Geometry (in Angstrom), charge = 0, multiplicity = 1:

       Center              X                  Y                   Z               Mass
    ------------   -----------------  -----------------  -----------------  -----------------
         O           -1.470461018771     2.564842961724     0.058599842813    15.994914619570
         N            1.918471981229    -0.582686038276    -0.077431157187    14.003074004430
         N           -1.910966018771     0.306541961724     0.026706842813    14.003074004430
         N           -0.343404018771    -1.466793038276    -0.060550157187    14.003074004430
         N            1.515956981229     1.641341961724    -0.032359157187    14.003074004430
         N           -2.630116018771    -1.916488038276     0.089278842813    14.003074004430
         C            0.557010981229    -0.436474038276    -0.051330157187    12.000000000000
         C            0.342521881229     0.934037461724     0.268589342813    12.000000000000
         C           -1.022852018771     1.424153961724     0.013378842813    12.000000000000
         C            2.438374981229     0.689932961724    -0.091721157187    12.000000000000
         C           -1.573745018771    -1.025603038276    -0.002996157187    12.000000000000
         C            2.634681981229    -1.844879038276    -0.087320157187    12.000000000000
         H            3.508573981229     0.859522961724    -0.108407157187     1.007825032230
         H            2.372246981229    -2.429984038276     0.795947842813     1.007825032230
         H            2.378784981229    -2.413636038276    -0.982307157187     1.007825032230
         H            3.703451981229    -1.630144038276    -0.081034157187     1.007825032230
         H           -2.888669018771     0.569588961724     0.147515842813     1.007825032230
         H           -2.326491018771    -2.867251038276    -0.086040157187     1.007825032230
         H           -3.460381018771    -1.672196038276    -0.439151157187     1.007825032230

  Basis Set: AUG-CC-PVTZ
    Blend: AUG-CC-PVTZ
  Basis Set: (AUG-CC-PVTZ AUX)
    Blend: AUG-CC-PVTZ-JKFIT
	 Reference Energy          =    -578.6052771442128915 [Eh]
	 Singles Energy            =      -0.0000000000000000 [Eh]
	 Same-Spin Energy          =      -0.6165230909380919 [Eh]
	 Opposite-Spin Energy      =      -1.8216002074744266 [Eh]
	 Correlation Energy        =      -2.4381232984125187 [Eh]
	 Total Energy              =    -581.0434004426253978 [Eh]

	 ================> DF-SCS-MP2 Energies <==================
	-----------------------------------------------------------
	 SCS Same-Spin Scale       =       0.3333333333333333 [-]
	 SCS Opposite-Spin Scale   =       1.2000000000000000 [-]
	 SCS Same-Spin Energy      =      -0.2055076969793639 [Eh]
	 SCS Opposite-Spin Energy  =      -2.1859202489693117 [Eh]
	 SCS Correlation Energy    =      -2.3914279459486756 [Eh]
	 SCS Total Energy          =    -580.9967050901615266 [Eh]
	-----------------------------------------------------------

  Dipole Moment: [D]
     X:    -0.0929      Y:    -6.8260      Z:    -0.9463     Total:     6.8919

*** Psi4 exiting successfully. Buy a developer a beer!
