                               Psi4 1.3.2 release

  ==> Input File <==

--------------------------------------------------------------------------
#psi4
#
memory 32 gb

molecule  {
0 1
  O       -1.4697740     2.5644010     0.0803940
  N        1.9191590    -0.5831280    -0.0556370
  N       -1.9102790     0.3061000     0.0485010
  N       -0.3427170    -1.4672350    -0.0387560
  N        1.5166440     1.6409000    -0.0105650
  N       -2.6294290    -1.9169300     0.1110730
  C        0.5576980    -0.4369160    -0.0295360
  C        0.3337570     0.9396730    -0.0094060
  C       -1.0221650     1.4237120     0.0351730
  C        2.4390620     0.6894910    -0.0699270
  C       -1.5730580    -1.0260450     0.0187980
  C        2.6353690    -1.8453210    -0.0655260
  H        3.5092610     0.8590810    -0.0866130
  H        2.3729340    -2.4304260     0.8177420
  H        2.3794720    -2.4140780    -0.9605130
  H        3.7041390    -1.6305860    -0.0592400
  H       -2.9046305     0.5742227    -0.0299312
  H       -2.3258040    -2.8676930    -0.0642460
  H       -3.4596940    -1.6726380    -0.4173570
units angstrom
no_reorient  #important for SAPT in psi4, default
symmetry c1  #important for SAPT in psi4, default
}

set PROPERTIES_ORIGIN ["COM"]
properties('MP2/aug-cc-pvtz', properties = ['dipole'])
--------------------------------------------------------------------------

    Molecular point group: c1
  Charge       = 0
  Multiplicity = 1
  Basis Set: AUG-CC-PVTZ
    Blend: AUG-CC-PVTZ
  Basis Set: (AUG-CC-PVTZ AUX)
    Blend: AUG-CC-PVTZ-JKFIT

    Orbital Energies [Eh]
    ---------------------

    Doubly Occupied:

       1A    -20.520795     2A    -15.632865     3A    -15.630367
       4A    -15.610768     5A    -15.570896     6A    -15.559579
       7A    -11.395985     8A    -11.364190     9A    -11.319107
      10A    -11.307245    11A    -11.289367    12A    -11.246937
      13A     -1.390355    14A     -1.360503    15A     -1.333813
      16A     -1.218669    17A     -1.215817    18A     -1.190332
      19A     -1.029348    20A     -0.986378    21A     -0.901169
      22A     -0.881655    23A     -0.807603    24A     -0.766388
      25A     -0.740010    26A     -0.728335    27A     -0.691363
      28A     -0.671800    29A     -0.649617    30A     -0.645378
      31A     -0.622606    32A     -0.610372    33A     -0.593465
      34A     -0.578431    35A     -0.560687    36A     -0.541855
      37A     -0.493952    38A     -0.459041    39A     -0.439866
      40A     -0.430950    41A     -0.426787    42A     -0.392721
      43A     -0.298362

  @DF-RHF Final Energy:  -578.62909014807235

   => Energetics <=

    Nuclear Repulsion Energy =            693.3674482975336559
    One-Electron Energy =               -2163.7816211233721333
    Two-Electron Energy =                 891.7850826777661268
    Total Energy =                       -578.6290901480723505
  Basis Set: (AUG-CC-PVTZ AUX)
    Blend: AUG-CC-PVTZ-RI
    Molecular point group: c1

    Geometry (in Angstrom), charge = 0, multiplicity = 1:

       Center              X                  Y                   Z               Mass
    ------------   -----------------  -----------------  -----------------  -----------------
         O           -1.469672229338     2.564370145627     0.081610613668    15.994914619570
         N            1.919260770662    -0.583158854373    -0.054420386332    14.003074004430
         N           -1.910177229338     0.306069145627     0.049717613668    14.003074004430
         N           -0.342615229338    -1.467265854373    -0.037539386332    14.003074004430
         N            1.516745770662     1.640869145627    -0.009348386332    14.003074004430
         N           -2.629327229338    -1.916960854373     0.112289613668    14.003074004430
         C            0.557799770662    -0.436946854373    -0.028319386332    12.000000000000
         C            0.333858770662     0.939642145627    -0.008189386332    12.000000000000
         C           -1.022063229338     1.423681145627     0.036389613668    12.000000000000
         C            2.439163770662     0.689460145627    -0.068710386332    12.000000000000
         C           -1.572956229338    -1.026075854373     0.020014613668    12.000000000000
         C            2.635470770662    -1.845351854373    -0.064309386332    12.000000000000
         H            3.509362770662     0.859050145627    -0.085396386332     1.007825032230
         H            2.373035770662    -2.430456854373     0.818958613668     1.007825032230
         H            2.379573770662    -2.414108854373    -0.959296386332     1.007825032230
         H            3.704240770662    -1.630616854373    -0.058023386332     1.007825032230
         H           -2.904528729338     0.574191845627    -0.028714586332     1.007825032230
         H           -2.325702229338    -2.867723854373    -0.063029386332     1.007825032230
         H           -3.459592229338    -1.672668854373    -0.416140386332     1.007825032230

  Basis Set: AUG-CC-PVTZ
    Blend: AUG-CC-PVTZ
  Basis Set: (AUG-CC-PVTZ AUX)
    Blend: AUG-CC-PVTZ-JKFIT
	 Reference Energy          =    -578.6290901480723505 [Eh]
	 Singles Energy            =      -0.0000000000000000 [Eh]
	 Same-Spin Energy          =      -0.6161903770761297 [Eh]
	 Opposite-Spin Energy      =      -1.8201010561698787 [Eh]
	 Correlation Energy        =      -2.4362914332460086 [Eh]
	 Total Energy              =    -581.0653815813183201 [Eh]

	 ================> DF-SCS-MP2 Energies <==================
	-----------------------------------------------------------
	 SCS Same-Spin Scale       =       0.3333333333333333 [-]
	 SCS Opposite-Spin Scale   =       1.2000000000000000 [-]
	 SCS Same-Spin Energy      =      -0.2053967923587099 [Eh]
	 SCS Opposite-Spin Energy  =      -2.1841212674038544 [Eh]
	 SCS Correlation Energy    =      -2.3895180597625645 [Eh]
	 SCS Total Energy          =    -581.0186082078348591 [Eh]
	-----------------------------------------------------------

  Dipole Moment: [D]
     X:    -0.0270      Y:    -6.7865      Z:    -1.1944     Total:     6.8909

*** Psi4 exiting successfully. Buy a developer a beer!
