                               Psi4 1.4a2.dev612

  ==> Input File <==

--------------------------------------------------------------------------
#psi4
#
memory 32 gb

molecule  {
0 1
  S        1.8142300     0.7226310    -0.3411240
  O       -1.8432130    -0.9348080    -0.8000930
  O        0.4941690    -1.0618130     1.1146640
  C       -0.8690378     0.7622073     0.3504263
  C       -3.3832440     0.5955310     0.2374230
  C       -2.0096370     0.0521440    -0.0950140
  C        0.4326040    -0.0039200     0.5084100
  C       -4.5116740    -0.2794210    -0.2844450
  C        3.0576300    -0.5565920    -0.0082180
  C        4.4432860    -0.0468870    -0.3740170
  H       -0.6942050     1.7459430    -0.1201930
  H       -1.0474180     1.1506300     1.5016930
  H       -3.4528060     0.7235440     1.3254800
  H       -3.4442640     1.6111560    -0.1826160
  H       -5.4818800     0.1657790    -0.0500790
  H       -4.4326880    -0.4035450    -1.3660960
  H       -4.4661600    -1.2732880     0.1669010
  H        2.9964590    -0.8086780     1.0500210
  H        2.8025100    -1.4530070    -0.5759610
  H        4.5013120     0.2245390    -1.4310650
  H        4.7086350     0.8297180     0.2214350
  H        5.1861620    -0.8265290    -0.1846820
units angstrom
no_reorient  #important for SAPT in psi4, default
symmetry c1  #important for SAPT in psi4, default
}

set PROPERTIES_ORIGIN ["COM"]
properties('MP2/aug-cc-pvtz', properties = ['dipole'])
--------------------------------------------------------------------------

    Molecular point group: c1
  Charge       = 0
  Multiplicity = 1
  Basis Set: AUG-CC-PVTZ
    Blend: AUG-CC-PVTZ
  Basis Set: (AUG-CC-PVTZ AUX)
    Blend: AUG-CC-PVTZ-JKFIT

    Orbital Energies [Eh]
    ---------------------

    Doubly Occupied:

       1A    -91.973564     2A    -20.555735     3A    -20.551435
       4A    -11.370420     5A    -11.337595     6A    -11.273920
       7A    -11.263708     8A    -11.249586     9A    -11.232306
      10A    -11.221902    11A     -8.975161    12A     -6.656319
      13A     -6.655190    14A     -6.654566    15A     -1.399289
      16A     -1.384794    17A     -1.097575    18A     -1.081201
      19A     -1.044508    20A     -0.976461    21A     -0.896856
      22A     -0.840437    23A     -0.772662    24A     -0.723146
      25A     -0.687082    26A     -0.665807    27A     -0.649826
      28A     -0.638396    29A     -0.634076    30A     -0.605375
      31A     -0.583717    32A     -0.560785    33A     -0.541753
      34A     -0.536590    35A     -0.526295    36A     -0.520657
      37A     -0.510625    38A     -0.499726    39A     -0.481114
      40A     -0.461696    41A     -0.434001    42A     -0.410024
      43A     -0.372238

  @DF-RHF Final Energy:  -819.47397427011924

   => Energetics <=

    Nuclear Repulsion Energy =            604.9501579277707606
    One-Electron Energy =               -2325.8320275419523568
    Two-Electron Energy =                 901.4078953440623536
    Total Energy =                       -819.4739742701192426
  Basis Set: (AUG-CC-PVTZ AUX)
    Blend: AUG-CC-PVTZ-RI
    Molecular point group: c1

    Geometry (in Angstrom), charge = 0, multiplicity = 1:

       Center              X                  Y                   Z               Mass
    ------------   -----------------  -----------------  -----------------  -----------------
         S            1.817356847536     0.727976435773    -0.331736609514    31.972071174400
         O           -1.840086152464    -0.929462564227    -0.790705609514    15.994914619570
         O            0.497295847536    -1.056467564227     1.124051390486    15.994914619570
         C           -0.865910952464     0.767552735773     0.359813690486    12.000000000000
         C           -3.380117152464     0.600876435773     0.246810390486    12.000000000000
         C           -2.006510152464     0.057489435773    -0.085626609514    12.000000000000
         C            0.435730847536     0.001425435773     0.517797390486    12.000000000000
         C           -4.508547152464    -0.274075564227    -0.275057609514    12.000000000000
         C            3.060756847536    -0.551246564227     0.001169390486    12.000000000000
         C            4.446412847536    -0.041541564227    -0.364629609514    12.000000000000
         H           -0.691078152464     1.751288435773    -0.110805609514     1.007825032230
         H           -1.044291152464     1.155975435773     1.511080390486     1.007825032230
         H           -3.449679152464     0.728889435773     1.334867390486     1.007825032230
         H           -3.441137152464     1.616501435773    -0.173228609514     1.007825032230
         H           -5.478753152464     0.171124435773    -0.040691609514     1.007825032230
         H           -4.429561152464    -0.398199564227    -1.356708609514     1.007825032230
         H           -4.463033152464    -1.267942564227     0.176288390486     1.007825032230
         H            2.999585847536    -0.803332564227     1.059408390486     1.007825032230
         H            2.805636847536    -1.447661564227    -0.566573609514     1.007825032230
         H            4.504438847536     0.229884435773    -1.421677609514     1.007825032230
         H            4.711761847536     0.835063435773     0.230822390486     1.007825032230
         H            5.189288847536    -0.821183564227    -0.175294609514     1.007825032230

  Basis Set: AUG-CC-PVTZ
    Blend: AUG-CC-PVTZ
  Basis Set: (AUG-CC-PVTZ AUX)
    Blend: AUG-CC-PVTZ-JKFIT
	 Reference Energy          =    -819.4739742701192426 [Eh]
	 Singles Energy            =      -0.0000000000000000 [Eh]
	 Same-Spin Energy          =      -0.4853170090656916 [Eh]
	 Opposite-Spin Energy      =      -1.5728444683377920 [Eh]
	 Correlation Energy        =      -2.0581614774034835 [Eh]
	 Total Energy              =    -821.5321357475227160 [Eh]

	 ================> DF-SCS-MP2 Energies <==================
	-----------------------------------------------------------
	 SCS Same-Spin Scale       =       0.3333333333333333 [-]
	 SCS Opposite-Spin Scale   =       1.2000000000000000 [-]
	 SCS Same-Spin Energy      =      -0.1617723363552305 [Eh]
	 SCS Opposite-Spin Energy  =      -1.8874133620053504 [Eh]
	 SCS Correlation Energy    =      -2.0491856983605810 [Eh]
	 SCS Total Energy          =    -821.5231599684798312 [Eh]
	-----------------------------------------------------------

  Dipole Moment: [D]
     X:     0.1818      Y:     2.8959      Z:     0.6675     Total:     2.9774

*** Psi4 exiting successfully. Buy a developer a beer!
