                               Psi4 1.4a2.dev612

  ==> Input File <==

--------------------------------------------------------------------------
#psi4
#
memory 32 gb

molecule  {
0 1
  S        1.8142300     0.7226310    -0.3411240
  O       -1.8432130    -0.9348080    -0.8000930
  O        0.4941690    -1.0618130     1.1146640
  C       -0.8273310     0.8335030     0.4756360
  C       -3.3899833     0.4226093     0.4824795
  C       -2.0096370     0.0521440    -0.0950140
  C        0.4326040    -0.0039200     0.5084100
  C       -4.5116740    -0.2794210    -0.2844450
  C        3.0576300    -0.5565920    -0.0082180
  C        4.4432860    -0.0468870    -0.3740170
  H       -0.6942050     1.7459430    -0.1201930
  H       -1.0474180     1.1506300     1.5016930
  H       -3.4528060     0.7235440     1.3254800
  H       -3.4442640     1.6111560    -0.1826160
  H       -5.4818800     0.1657790    -0.0500790
  H       -4.4326880    -0.4035450    -1.3660960
  H       -4.4661600    -1.2732880     0.1669010
  H        2.9964590    -0.8086780     1.0500210
  H        2.8025100    -1.4530070    -0.5759610
  H        4.5013120     0.2245390    -1.4310650
  H        4.7086350     0.8297180     0.2214350
  H        5.1861620    -0.8265290    -0.1846820
units angstrom
no_reorient  #important for SAPT in psi4, default
symmetry c1  #important for SAPT in psi4, default
}

set PROPERTIES_ORIGIN ["COM"]
properties('MP2/aug-cc-pvtz', properties = ['dipole'])
--------------------------------------------------------------------------

    Molecular point group: c1
  Charge       = 0
  Multiplicity = 1
  Basis Set: AUG-CC-PVTZ
    Blend: AUG-CC-PVTZ
  Basis Set: (AUG-CC-PVTZ AUX)
    Blend: AUG-CC-PVTZ-JKFIT

    Orbital Energies [Eh]
    ---------------------

    Doubly Occupied:

       1A    -91.972339     2A    -20.555583     3A    -20.555307
       4A    -11.368014     5A    -11.352926     6A    -11.267142
       7A    -11.263080     8A    -11.262649     9A    -11.231665
      10A    -11.229212    11A     -8.973919    12A     -6.655065
      13A     -6.653937    14A     -6.653323    15A     -1.397922
      16A     -1.384411    17A     -1.094185    18A     -1.078818
      19A     -1.044988    20A     -0.972326    21A     -0.901412
      22A     -0.840573    23A     -0.778336    24A     -0.731120
      25A     -0.691318    26A     -0.665909    27A     -0.648582
      28A     -0.636955    29A     -0.621486    30A     -0.610795
      31A     -0.592003    32A     -0.567263    33A     -0.559722
      34A     -0.539890    35A     -0.536935    36A     -0.523883
      37A     -0.512152    38A     -0.496904    39A     -0.466382
      40A     -0.441959    41A     -0.421115    42A     -0.406838
      43A     -0.371287

  @DF-RHF Final Energy:  -819.40830097329808

   => Energetics <=

    Nuclear Repulsion Energy =            603.1822963499523667
    One-Electron Energy =               -2322.1219393695077997
    Two-Electron Energy =                 899.5313420462573504
    Total Energy =                       -819.4083009732980827
  Basis Set: (AUG-CC-PVTZ AUX)
    Blend: AUG-CC-PVTZ-RI
    Molecular point group: c1

    Geometry (in Angstrom), charge = 0, multiplicity = 1:

       Center              X                  Y                   Z               Mass
    ------------   -----------------  -----------------  -----------------  -----------------
         S            1.814735199349     0.735595728507    -0.359496892976    31.972071174400
         O           -1.842707800651    -0.921843271493    -0.818465892976    15.994914619570
         O            0.494674199349    -1.048848271493     1.096291107024    15.994914619570
         C           -0.826825800651     0.846467728507     0.457263107024    12.000000000000
         C           -3.389478100651     0.435574028507     0.464106607024    12.000000000000
         C           -2.009131800651     0.065108728507    -0.113386892976    12.000000000000
         C            0.433109199349     0.009044728507     0.490037107024    12.000000000000
         C           -4.511168800651    -0.266456271493    -0.302817892976    12.000000000000
         C            3.058135199349    -0.543627271493    -0.026590892976    12.000000000000
         C            4.443791199349    -0.033922271493    -0.392389892976    12.000000000000
         H           -0.693699800651     1.758907728507    -0.138565892976     1.007825032230
         H           -1.046912800651     1.163594728507     1.483320107024     1.007825032230
         H           -3.452300800651     0.736508728507     1.307107107024     1.007825032230
         H           -3.443758800651     1.624120728507    -0.200988892976     1.007825032230
         H           -5.481374800651     0.178743728507    -0.068451892976     1.007825032230
         H           -4.432182800651    -0.390580271493    -1.384468892976     1.007825032230
         H           -4.465654800651    -1.260323271493     0.148528107024     1.007825032230
         H            2.996964199349    -0.795713271493     1.031648107024     1.007825032230
         H            2.803015199349    -1.440042271493    -0.594333892976     1.007825032230
         H            4.501817199349     0.237503728507    -1.449437892976     1.007825032230
         H            4.709140199349     0.842682728507     0.203062107024     1.007825032230
         H            5.186667199349    -0.813564271493    -0.203054892976     1.007825032230

  Basis Set: AUG-CC-PVTZ
    Blend: AUG-CC-PVTZ
  Basis Set: (AUG-CC-PVTZ AUX)
    Blend: AUG-CC-PVTZ-JKFIT
	 Reference Energy          =    -819.4083009732980827 [Eh]
	 Singles Energy            =      -0.0000000000000000 [Eh]
	 Same-Spin Energy          =      -0.4856155488534114 [Eh]
	 Opposite-Spin Energy      =      -1.5756272668351876 [Eh]
	 Correlation Energy        =      -2.0612428156885989 [Eh]
	 Total Energy              =    -821.4695437889866980 [Eh]

	 ================> DF-SCS-MP2 Energies <==================
	-----------------------------------------------------------
	 SCS Same-Spin Scale       =       0.3333333333333333 [-]
	 SCS Opposite-Spin Scale   =       1.2000000000000000 [-]
	 SCS Same-Spin Energy      =      -0.1618718496178038 [Eh]
	 SCS Opposite-Spin Energy  =      -1.8907527202022250 [Eh]
	 SCS Correlation Energy    =      -2.0526245698200287 [Eh]
	 SCS Total Energy          =    -821.4609255431181509 [Eh]
	-----------------------------------------------------------

  Dipole Moment: [D]
     X:    -0.0647      Y:     2.6681      Z:     0.7705     Total:     2.7779

*** Psi4 exiting successfully. Buy a developer a beer!
