                               Psi4 1.4a2.dev612

  ==> Input File <==

--------------------------------------------------------------------------
#psi4
#
memory 32 gb

molecule  {
0 1
  S        1.8142300     0.7226310    -0.3411240
  O       -1.8432130    -0.9348080    -0.8000930
  O        0.4941690    -1.0618130     1.1146640
  C       -0.8273310     0.8335030     0.4756360
  C       -3.3832440     0.5955310     0.2374230
  C       -2.0096370     0.0521440    -0.0950140
  C        0.4326040    -0.0039200     0.5084100
  C       -4.5116740    -0.2794210    -0.2844450
  C        3.0576300    -0.5565920    -0.0082180
  C        4.4432860    -0.0468870    -0.3740170
  H       -0.6942050     1.7459430    -0.1201930
  H       -1.0474180     1.1506300     1.5016930
  H       -3.4528060     0.7235440     1.3254800
  H       -3.4442640     1.6111560    -0.1826160
  H       -5.4818800     0.1657790    -0.0500790
  H       -4.4326880    -0.4035450    -1.3660960
  H       -4.4661600    -1.2732880     0.1669010
  H        2.9964590    -0.8086780     1.0500210
  H        2.8025100    -1.4530070    -0.5759610
  H        4.5013120     0.2245390    -1.4310650
  H        4.7086350     0.8297180     0.2214350
  H        5.1861620    -0.8265290    -0.1846820
units angstrom
no_reorient  #important for SAPT in psi4, default
symmetry c1  #important for SAPT in psi4, default
}

set PROPERTIES_ORIGIN ["COM"]
properties('MP2/aug-cc-pvtz', properties = ['dipole'])
--------------------------------------------------------------------------

    Molecular point group: c1
  Charge       = 0
  Multiplicity = 1
  Basis Set: AUG-CC-PVTZ
    Blend: AUG-CC-PVTZ
  Basis Set: (AUG-CC-PVTZ AUX)
    Blend: AUG-CC-PVTZ-JKFIT

    Orbital Energies [Eh]
    ---------------------

    Doubly Occupied:

       1A    -91.972114     2A    -20.555559     3A    -20.555095
       4A    -11.367457     5A    -11.346095     6A    -11.266828
       7A    -11.262613     8A    -11.249889     9A    -11.231631
      10A    -11.222300    11A     -8.973725    12A     -6.654878
      13A     -6.653750    14A     -6.653136    15A     -1.397379
      16A     -1.383969    17A     -1.093928    18A     -1.077179
      19A     -1.042698    20A     -0.972103    21A     -0.896159
      22A     -0.837705    23A     -0.760038    24A     -0.726929
      25A     -0.678122    26A     -0.668295    27A     -0.648100
      28A     -0.637635    29A     -0.633933    30A     -0.608638
      31A     -0.595088    32A     -0.559793    33A     -0.546092
      34A     -0.533163    35A     -0.527117    36A     -0.520813
      37A     -0.511876    38A     -0.504659    39A     -0.488663
      40A     -0.465306    41A     -0.429766    42A     -0.406413
      43A     -0.371135

  @DF-RHF Final Energy:  -819.49475229824009

   => Energetics <=

    Nuclear Repulsion Energy =            603.4380456772126990
    One-Electron Energy =               -2322.8900661779139227
    Two-Electron Energy =                 899.9572682024610231
    Total Energy =                       -819.4947522982400869
  Basis Set: (AUG-CC-PVTZ AUX)
    Blend: AUG-CC-PVTZ-RI
    Molecular point group: c1

    Geometry (in Angstrom), charge = 0, multiplicity = 1:

       Center              X                  Y                   Z               Mass
    ------------   -----------------  -----------------  -----------------  -----------------
         S            1.814229928065     0.722631122478    -0.341124063092    31.972071174400
         O           -1.843213071935    -0.934807877522    -0.800093063092    15.994914619570
         O            0.494168928065    -1.061812877522     1.114663936908    15.994914619570
         C           -0.827331071935     0.833503122478     0.475635936908    12.000000000000
         C           -3.383244071935     0.595531122478     0.237422936908    12.000000000000
         C           -2.009637071935     0.052144122478    -0.095014063092    12.000000000000
         C            0.432603928065    -0.003919877522     0.508409936908    12.000000000000
         C           -4.511674071935    -0.279420877522    -0.284445063092    12.000000000000
         C            3.057629928065    -0.556591877522    -0.008218063092    12.000000000000
         C            4.443285928065    -0.046886877522    -0.374017063092    12.000000000000
         H           -0.694205071935     1.745943122478    -0.120193063092     1.007825032230
         H           -1.047418071935     1.150630122478     1.501692936908     1.007825032230
         H           -3.452806071935     0.723544122478     1.325479936908     1.007825032230
         H           -3.444264071935     1.611156122478    -0.182616063092     1.007825032230
         H           -5.481880071935     0.165779122478    -0.050079063092     1.007825032230
         H           -4.432688071935    -0.403544877522    -1.366096063092     1.007825032230
         H           -4.466160071935    -1.273287877522     0.166900936908     1.007825032230
         H            2.996458928065    -0.808677877522     1.050020936908     1.007825032230
         H            2.802509928065    -1.453006877522    -0.575961063092     1.007825032230
         H            4.501311928065     0.224539122478    -1.431065063092     1.007825032230
         H            4.708634928065     0.829718122478     0.221434936908     1.007825032230
         H            5.186161928065    -0.826528877522    -0.184682063092     1.007825032230

  Basis Set: AUG-CC-PVTZ
    Blend: AUG-CC-PVTZ
  Basis Set: (AUG-CC-PVTZ AUX)
    Blend: AUG-CC-PVTZ-JKFIT
	 Reference Energy          =    -819.4947522982400869 [Eh]
	 Singles Energy            =      -0.0000000000000000 [Eh]
	 Same-Spin Energy          =      -0.4842152948778005 [Eh]
	 Opposite-Spin Energy      =      -1.5710596684757752 [Eh]
	 Correlation Energy        =      -2.0552749633535754 [Eh]
	 Total Energy              =    -821.5500272615936410 [Eh]

	 ================> DF-SCS-MP2 Energies <==================
	-----------------------------------------------------------
	 SCS Same-Spin Scale       =       0.3333333333333333 [-]
	 SCS Opposite-Spin Scale   =       1.2000000000000000 [-]
	 SCS Same-Spin Energy      =      -0.1614050982926001 [Eh]
	 SCS Opposite-Spin Energy  =      -1.8852716021709301 [Eh]
	 SCS Correlation Energy    =      -2.0466767004635305 [Eh]
	 SCS Total Energy          =    -821.5414289987036227 [Eh]
	-----------------------------------------------------------

  Dipole Moment: [D]
     X:     0.0012      Y:     2.8345      Z:     0.6828     Total:     2.9156

*** Psi4 exiting successfully. Buy a developer a beer!
