                               Psi4 1.4a2.dev612

  ==> Input File <==

--------------------------------------------------------------------------
#psi4
#
memory 32 gb

molecule  {
0 1
  S        1.8142300     0.7226310    -0.3411240
  O       -1.8432130    -0.9348080    -0.8000930
  O        0.4941690    -1.0618130     1.1146640
  C       -0.8273310     0.8335030     0.4756360
  C       -3.3866137     0.5090702     0.3599512
  C       -2.0096370     0.0521440    -0.0950140
  C        0.4326040    -0.0039200     0.5084100
  C       -4.5116740    -0.2794210    -0.2844450
  C        3.0576300    -0.5565920    -0.0082180
  C        4.4432860    -0.0468870    -0.3740170
  H       -0.6942050     1.7459430    -0.1201930
  H       -1.0474180     1.1506300     1.5016930
  H       -3.4528060     0.7235440     1.3254800
  H       -3.4442640     1.6111560    -0.1826160
  H       -5.4818800     0.1657790    -0.0500790
  H       -4.4326880    -0.4035450    -1.3660960
  H       -4.4661600    -1.2732880     0.1669010
  H        2.9964590    -0.8086780     1.0500210
  H        2.8025100    -1.4530070    -0.5759610
  H        4.5013120     0.2245390    -1.4310650
  H        4.7086350     0.8297180     0.2214350
  H        5.1861620    -0.8265290    -0.1846820
units angstrom
no_reorient  #important for SAPT in psi4, default
symmetry c1  #important for SAPT in psi4, default
}

set PROPERTIES_ORIGIN ["COM"]
properties('MP2/aug-cc-pvtz', properties = ['dipole'])
--------------------------------------------------------------------------

    Molecular point group: c1
  Charge       = 0
  Multiplicity = 1
  Basis Set: AUG-CC-PVTZ
    Blend: AUG-CC-PVTZ
  Basis Set: (AUG-CC-PVTZ AUX)
    Blend: AUG-CC-PVTZ-JKFIT

    Orbital Energies [Eh]
    ---------------------

    Doubly Occupied:

       1A    -91.972233     2A    -20.555349     3A    -20.555239
       4A    -11.367776     5A    -11.347883     6A    -11.266911
       7A    -11.262633     8A    -11.253802     9A    -11.231652
      10A    -11.223906    11A     -8.973830    12A     -6.654979
      13A     -6.653851    14A     -6.653237    15A     -1.397577
      16A     -1.384036    17A     -1.094052    18A     -1.077892
      19A     -1.043756    20A     -0.972269    21A     -0.897333
      22A     -0.838283    23A     -0.765164    24A     -0.728403
      25A     -0.684743    26A     -0.665853    27A     -0.648199
      28A     -0.637807    29A     -0.629197    30A     -0.609964
      31A     -0.593360    32A     -0.559922    33A     -0.549862
      34A     -0.538784    35A     -0.533601    36A     -0.525261
      37A     -0.512143    38A     -0.498452    39A     -0.471795
      40A     -0.464035    41A     -0.427979    42A     -0.406834
      43A     -0.371222

  @DF-RHF Final Energy:  -819.47223751637569

   => Energetics <=

    Nuclear Repulsion Energy =            603.4457327871788266
    One-Electron Energy =               -2322.8338247454917109
    Two-Electron Energy =                 899.9158544419373129
    Total Energy =                       -819.4722375163756851
  Basis Set: (AUG-CC-PVTZ AUX)
    Blend: AUG-CC-PVTZ-RI
    Molecular point group: c1

    Geometry (in Angstrom), charge = 0, multiplicity = 1:

       Center              X                  Y                   Z               Mass
    ------------   -----------------  -----------------  -----------------  -----------------
         S            1.814482567455     0.729113421744    -0.350310474285    31.972071174400
         O           -1.842960432545    -0.928325578256    -0.809279474285    15.994914619570
         O            0.494421567455    -1.055330578256     1.105477525715    15.994914619570
         C           -0.827078432545     0.839985421744     0.466449525715    12.000000000000
         C           -3.386361132545     0.515552621744     0.350764725715    12.000000000000
         C           -2.009384432545     0.058626421744    -0.104200474285    12.000000000000
         C            0.432856567455     0.002562421744     0.499223525715    12.000000000000
         C           -4.511421432545    -0.272938578256    -0.293631474285    12.000000000000
         C            3.057882567455    -0.550109578256    -0.017404474285    12.000000000000
         C            4.443538567455    -0.040404578256    -0.383203474285    12.000000000000
         H           -0.693952432545     1.752425421744    -0.129379474285     1.007825032230
         H           -1.047165432545     1.157112421744     1.492506525715     1.007825032230
         H           -3.452553432545     0.730026421744     1.316293525715     1.007825032230
         H           -3.444011432545     1.617638421744    -0.191802474285     1.007825032230
         H           -5.481627432545     0.172261421744    -0.059265474285     1.007825032230
         H           -4.432435432545    -0.397062578256    -1.375282474285     1.007825032230
         H           -4.465907432545    -1.266805578256     0.157714525715     1.007825032230
         H            2.996711567455    -0.802195578256     1.040834525715     1.007825032230
         H            2.802762567455    -1.446524578256    -0.585147474285     1.007825032230
         H            4.501564567455     0.231021421744    -1.440251474285     1.007825032230
         H            4.708887567455     0.836200421744     0.212248525715     1.007825032230
         H            5.186414567455    -0.820046578256    -0.193868474285     1.007825032230

  Basis Set: AUG-CC-PVTZ
    Blend: AUG-CC-PVTZ
  Basis Set: (AUG-CC-PVTZ AUX)
    Blend: AUG-CC-PVTZ-JKFIT
	 Reference Energy          =    -819.4722375163756851 [Eh]
	 Singles Energy            =      -0.0000000000000000 [Eh]
	 Same-Spin Energy          =      -0.4846279306364952 [Eh]
	 Opposite-Spin Energy      =      -1.5722567386140665 [Eh]
	 Correlation Energy        =      -2.0568846692505618 [Eh]
	 Total Energy              =    -821.5291221856261927 [Eh]

	 ================> DF-SCS-MP2 Energies <==================
	-----------------------------------------------------------
	 SCS Same-Spin Scale       =       0.3333333333333333 [-]
	 SCS Opposite-Spin Scale   =       1.2000000000000000 [-]
	 SCS Same-Spin Energy      =      -0.1615426435454984 [Eh]
	 SCS Opposite-Spin Energy  =      -1.8867080863368797 [Eh]
	 SCS Correlation Energy    =      -2.0482507298823780 [Eh]
	 SCS Total Energy          =    -821.5204882462580827 [Eh]
	-----------------------------------------------------------

  Dipole Moment: [D]
     X:    -0.0215      Y:     2.7699      Z:     0.7414     Total:     2.8675

*** Psi4 exiting successfully. Buy a developer a beer!
