                               Psi4 1.4a2.dev612

  ==> Input File <==

--------------------------------------------------------------------------
#psi4
#
memory 32 gb

molecule  {
0 1
  S        1.8142300     0.7226310    -0.3411240
  O       -1.8432130    -0.9348080    -0.8000930
  O        0.4941690    -1.0618130     1.1146640
  C       -0.9107445     0.6909115     0.2252167
  C       -3.3832440     0.5955310     0.2374230
  C       -2.0096370     0.0521440    -0.0950140
  C        0.4326040    -0.0039200     0.5084100
  C       -4.5116740    -0.2794210    -0.2844450
  C        3.0576300    -0.5565920    -0.0082180
  C        4.4432860    -0.0468870    -0.3740170
  H       -0.6942050     1.7459430    -0.1201930
  H       -1.0474180     1.1506300     1.5016930
  H       -3.4528060     0.7235440     1.3254800
  H       -3.4442640     1.6111560    -0.1826160
  H       -5.4818800     0.1657790    -0.0500790
  H       -4.4326880    -0.4035450    -1.3660960
  H       -4.4661600    -1.2732880     0.1669010
  H        2.9964590    -0.8086780     1.0500210
  H        2.8025100    -1.4530070    -0.5759610
  H        4.5013120     0.2245390    -1.4310650
  H        4.7086350     0.8297180     0.2214350
  H        5.1861620    -0.8265290    -0.1846820
units angstrom
no_reorient  #important for SAPT in psi4, default
symmetry c1  #important for SAPT in psi4, default
}

set PROPERTIES_ORIGIN ["COM"]
properties('MP2/aug-cc-pvtz', properties = ['dipole'])
--------------------------------------------------------------------------

    Molecular point group: c1
  Charge       = 0
  Multiplicity = 1
  Basis Set: AUG-CC-PVTZ
    Blend: AUG-CC-PVTZ
  Basis Set: (AUG-CC-PVTZ AUX)
    Blend: AUG-CC-PVTZ-JKFIT

    Orbital Energies [Eh]
    ---------------------

    Doubly Occupied:

       1A    -91.975665     2A    -20.556502     3A    -20.548379
       4A    -11.375537     5A    -11.328185     6A    -11.283440
       7A    -11.265240     8A    -11.249589     9A    -11.233292
      10A    -11.221585    11A     -8.977213    12A     -6.658373
      13A     -6.657245    14A     -6.656598    15A     -1.403226
      16A     -1.387496    17A     -1.103434    18A     -1.085587
      19A     -1.046400    20A     -0.982118    21A     -0.896718
      22A     -0.845795    23A     -0.784908    24A     -0.719760
      25A     -0.694081    26A     -0.667492    27A     -0.650341
      28A     -0.639610    29A     -0.634444    30A     -0.602828
      31A     -0.576334    32A     -0.561682    33A     -0.540843
      34A     -0.538295    35A     -0.525204    36A     -0.519828
      37A     -0.512186    38A     -0.496433    39A     -0.473056
      40A     -0.447790    41A     -0.433074    42A     -0.411429
      43A     -0.373136

  @DF-RHF Final Energy:  -819.41411170994377

   => Energetics <=

    Nuclear Repulsion Energy =            606.3729227621302016
    One-Electron Energy =               -2328.4933323222599029
    Two-Electron Energy =                 902.7062978501859334
    Total Energy =                       -819.4141117099437679
  Basis Set: (AUG-CC-PVTZ AUX)
    Blend: AUG-CC-PVTZ-RI
    Molecular point group: c1

    Geometry (in Angstrom), charge = 0, multiplicity = 1:

       Center              X                  Y                   Z               Mass
    ------------   -----------------  -----------------  -----------------  -----------------
         S            1.820483759510     0.733321756566    -0.322349163432    31.972071174400
         O           -1.836959240490    -0.924117243434    -0.781318163432    15.994914619570
         O            0.500422759510    -1.051122243434     1.133438836568    15.994914619570
         C           -0.904490740490     0.701602256566     0.243991536568    12.000000000000
         C           -3.376990240490     0.606221756566     0.256197836568    12.000000000000
         C           -2.003383240490     0.062834756566    -0.076239163432    12.000000000000
         C            0.438857759510     0.006770756566     0.527184836568    12.000000000000
         C           -4.505420240490    -0.268730243434    -0.265670163432    12.000000000000
         C            3.063883759510    -0.545901243434     0.010556836568    12.000000000000
         C            4.449539759510    -0.036196243434    -0.355242163432    12.000000000000
         H           -0.687951240490     1.756633756566    -0.101418163432     1.007825032230
         H           -1.041164240490     1.161320756566     1.520467836568     1.007825032230
         H           -3.446552240490     0.734234756566     1.344254836568     1.007825032230
         H           -3.438010240490     1.621846756566    -0.163841163432     1.007825032230
         H           -5.475626240490     0.176469756566    -0.031304163432     1.007825032230
         H           -4.426434240490    -0.392854243434    -1.347321163432     1.007825032230
         H           -4.459906240490    -1.262597243434     0.185675836568     1.007825032230
         H            3.002712759510    -0.797987243434     1.068795836568     1.007825032230
         H            2.808763759510    -1.442316243434    -0.557186163432     1.007825032230
         H            4.507565759510     0.235229756566    -1.412290163432     1.007825032230
         H            4.714888759510     0.840408756566     0.240209836568     1.007825032230
         H            5.192415759510    -0.815838243434    -0.165907163432     1.007825032230

  Basis Set: AUG-CC-PVTZ
    Blend: AUG-CC-PVTZ
  Basis Set: (AUG-CC-PVTZ AUX)
    Blend: AUG-CC-PVTZ-JKFIT
	 Reference Energy          =    -819.4141117099437679 [Eh]
	 Singles Energy            =      -0.0000000000000000 [Eh]
	 Same-Spin Energy          =      -0.4880320945910849 [Eh]
	 Opposite-Spin Energy      =      -1.5777266945369690 [Eh]
	 Correlation Energy        =      -2.0657587891280538 [Eh]
	 Total Energy              =    -821.4798704990718079 [Eh]

	 ================> DF-SCS-MP2 Energies <==================
	-----------------------------------------------------------
	 SCS Same-Spin Scale       =       0.3333333333333333 [-]
	 SCS Opposite-Spin Scale   =       1.2000000000000000 [-]
	 SCS Same-Spin Energy      =      -0.1626773648636949 [Eh]
	 SCS Opposite-Spin Energy  =      -1.8932720334443627 [Eh]
	 SCS Correlation Energy    =      -2.0559493983080577 [Eh]
	 SCS Total Energy          =    -821.4700611082517980 [Eh]
	-----------------------------------------------------------

  Dipole Moment: [D]
     X:     0.3545      Y:     2.8938      Z:     0.6056     Total:     2.9776

*** Psi4 exiting successfully. Buy a developer a beer!
