                               Psi4 1.4a2.dev612

  ==> Input File <==

--------------------------------------------------------------------------
#psi4
#
memory 32 gb

molecule  {
0 1
  S        1.8142300     0.7226310    -0.3411240
  O       -1.8432130    -0.9348080    -0.8000930
  O        0.4941690    -1.0618130     1.1146640
  C       -0.8551355     0.7859725     0.3921629
  C       -3.3832440     0.5955310     0.2374230
  C       -2.0096370     0.0521440    -0.0950140
  C        0.4326040    -0.0039200     0.5084100
  C       -4.5116740    -0.2794210    -0.2844450
  C        3.0576300    -0.5565920    -0.0082180
  C        4.4432860    -0.0468870    -0.3740170
  H       -0.6942050     1.7459430    -0.1201930
  H       -1.0474180     1.1506300     1.5016930
  H       -3.4528060     0.7235440     1.3254800
  H       -3.4442640     1.6111560    -0.1826160
  H       -5.4818800     0.1657790    -0.0500790
  H       -4.4326880    -0.4035450    -1.3660960
  H       -4.4661600    -1.2732880     0.1669010
  H        2.9964590    -0.8086780     1.0500210
  H        2.8025100    -1.4530070    -0.5759610
  H        4.5013120     0.2245390    -1.4310650
  H        4.7086350     0.8297180     0.2214350
  H        5.1861620    -0.8265290    -0.1846820
units angstrom
no_reorient  #important for SAPT in psi4, default
symmetry c1  #important for SAPT in psi4, default
}

set PROPERTIES_ORIGIN ["COM"]
properties('MP2/aug-cc-pvtz', properties = ['dipole'])
--------------------------------------------------------------------------

    Molecular point group: c1
  Charge       = 0
  Multiplicity = 1
  Basis Set: AUG-CC-PVTZ
    Blend: AUG-CC-PVTZ
  Basis Set: (AUG-CC-PVTZ AUX)
    Blend: AUG-CC-PVTZ-JKFIT

    Orbital Energies [Eh]
    ---------------------

    Doubly Occupied:

       1A    -91.973008     2A    -20.555528     3A    -20.552725
       4A    -11.369175     5A    -11.340551     6A    -11.271240
       7A    -11.263294     8A    -11.249649     9A    -11.232047
      10A    -11.222028    11A     -8.974613    12A     -6.655770
      13A     -6.654641    14A     -6.654021    15A     -1.398518
      16A     -1.384326    17A     -1.096172    18A     -1.079771
      19A     -1.043910    20A     -0.974807    21A     -0.896677
      22A     -0.839224    23A     -0.768278    24A     -0.724222
      25A     -0.684207    26A     -0.665933    27A     -0.649550
      28A     -0.638093    29A     -0.634009    30A     -0.605989
      31A     -0.587628    32A     -0.560484    33A     -0.543163
      34A     -0.535344    35A     -0.526605    36A     -0.520774
      37A     -0.510450    38A     -0.501759    39A     -0.484358
      40A     -0.463615    41A     -0.432959    42A     -0.409058
      43A     -0.371886

  @DF-RHF Final Energy:  -819.48533844038104

   => Energetics <=

    Nuclear Repulsion Energy =            604.4558668005547588
    One-Electron Energy =               -2324.8822897904065030
    Two-Electron Energy =                 900.9410845494707019
    Total Energy =                       -819.4853384403810423
  Basis Set: (AUG-CC-PVTZ AUX)
    Blend: AUG-CC-PVTZ-RI
    Molecular point group: c1

    Geometry (in Angstrom), charge = 0, multiplicity = 1:

       Center              X                  Y                   Z               Mass
    ------------   -----------------  -----------------  -----------------  -----------------
         S            1.816314538546     0.726194667174    -0.334865763206    31.972071174400
         O           -1.841128461454    -0.931244332826    -0.793834763206    15.994914619570
         O            0.496253538546    -1.058249332826     1.120922236794    15.994914619570
         C           -0.853050961454     0.789536167174     0.398421136794    12.000000000000
         C           -3.381159461454     0.599094667174     0.243681236794    12.000000000000
         C           -2.007552461454     0.055707667174    -0.088755763206    12.000000000000
         C            0.434688538546    -0.000356332826     0.514668236794    12.000000000000
         C           -4.509589461454    -0.275857332826    -0.278186763206    12.000000000000
         C            3.059714538546    -0.553028332826    -0.001959763206    12.000000000000
         C            4.445370538546    -0.043323332826    -0.367758763206    12.000000000000
         H           -0.692120461454     1.749506667174    -0.113934763206     1.007825032230
         H           -1.045333461454     1.154193667174     1.507951236794     1.007825032230
         H           -3.450721461454     0.727107667174     1.331738236794     1.007825032230
         H           -3.442179461454     1.614719667174    -0.176357763206     1.007825032230
         H           -5.479795461454     0.169342667174    -0.043820763206     1.007825032230
         H           -4.430603461454    -0.399981332826    -1.359837763206     1.007825032230
         H           -4.464075461454    -1.269724332826     0.173159236794     1.007825032230
         H            2.998543538546    -0.805114332826     1.056279236794     1.007825032230
         H            2.804594538546    -1.449443332826    -0.569702763206     1.007825032230
         H            4.503396538546     0.228102667174    -1.424806763206     1.007825032230
         H            4.710719538546     0.833281667174     0.227693236794     1.007825032230
         H            5.188246538546    -0.822965332826    -0.178423763206     1.007825032230

  Basis Set: AUG-CC-PVTZ
    Blend: AUG-CC-PVTZ
  Basis Set: (AUG-CC-PVTZ AUX)
    Blend: AUG-CC-PVTZ-JKFIT
	 Reference Energy          =    -819.4853384403810423 [Eh]
	 Singles Energy            =      -0.0000000000000000 [Eh]
	 Same-Spin Energy          =      -0.4847815524373663 [Eh]
	 Opposite-Spin Energy      =      -1.5719085284002612 [Eh]
	 Correlation Energy        =      -2.0566900808376274 [Eh]
	 Total Energy              =    -821.5420285212186400 [Eh]

	 ================> DF-SCS-MP2 Energies <==================
	-----------------------------------------------------------
	 SCS Same-Spin Scale       =       0.3333333333333333 [-]
	 SCS Opposite-Spin Scale   =       1.2000000000000000 [-]
	 SCS Same-Spin Energy      =      -0.1615938508124554 [Eh]
	 SCS Opposite-Spin Energy  =      -1.8862902340803134 [Eh]
	 SCS Correlation Energy    =      -2.0478840848927686 [Eh]
	 SCS Total Energy          =    -821.5332225252737999 [Eh]
	-----------------------------------------------------------

  Dipole Moment: [D]
     X:     0.1226      Y:     2.8812      Z:     0.6775     Total:     2.9623

*** Psi4 exiting successfully. Buy a developer a beer!
