                               Psi4 1.4a2.dev612

  ==> Input File <==

--------------------------------------------------------------------------
#psi4
#
memory 32 gb

molecule  {
0 1
  S        1.8142300     0.7226310    -0.3411240
  O       -1.8432130    -0.9348080    -0.8000930
  O        0.4941690    -1.0618130     1.1146640
  C       -0.8829400     0.7384420     0.3086898
  C       -3.3832440     0.5955310     0.2374230
  C       -2.0096370     0.0521440    -0.0950140
  C        0.4326040    -0.0039200     0.5084100
  C       -4.5116740    -0.2794210    -0.2844450
  C        3.0576300    -0.5565920    -0.0082180
  C        4.4432860    -0.0468870    -0.3740170
  H       -0.6942050     1.7459430    -0.1201930
  H       -1.0474180     1.1506300     1.5016930
  H       -3.4528060     0.7235440     1.3254800
  H       -3.4442640     1.6111560    -0.1826160
  H       -5.4818800     0.1657790    -0.0500790
  H       -4.4326880    -0.4035450    -1.3660960
  H       -4.4661600    -1.2732880     0.1669010
  H        2.9964590    -0.8086780     1.0500210
  H        2.8025100    -1.4530070    -0.5759610
  H        4.5013120     0.2245390    -1.4310650
  H        4.7086350     0.8297180     0.2214350
  H        5.1861620    -0.8265290    -0.1846820
units angstrom
no_reorient  #important for SAPT in psi4, default
symmetry c1  #important for SAPT in psi4, default
}

set PROPERTIES_ORIGIN ["COM"]
properties('MP2/aug-cc-pvtz', properties = ['dipole'])
--------------------------------------------------------------------------

    Molecular point group: c1
  Charge       = 0
  Multiplicity = 1
  Basis Set: AUG-CC-PVTZ
    Blend: AUG-CC-PVTZ
  Basis Set: (AUG-CC-PVTZ AUX)
    Blend: AUG-CC-PVTZ-JKFIT

    Orbital Energies [Eh]
    ---------------------

    Doubly Occupied:

       1A    -91.974193     2A    -20.555953     3A    -20.550254
       4A    -11.371906     5A    -11.334531     6A    -11.276873
       7A    -11.264170     8A    -11.249555     9A    -11.232601
      10A    -11.221783    11A     -8.975778    12A     -6.656937
      13A     -6.655809    14A     -6.655178    15A     -1.400265
      16A     -1.385479    17A     -1.099225    18A     -1.082676
      19A     -1.045113    20A     -0.978267    21A     -0.896943
      22A     -0.841949    23A     -0.777017    24A     -0.722085
      25A     -0.689696    26A     -0.666122    27A     -0.649983
      28A     -0.638748    29A     -0.634168    30A     -0.604690
      31A     -0.580503    32A     -0.561071    33A     -0.540526
      34A     -0.537860    35A     -0.525952    36A     -0.520461
      37A     -0.511044    38A     -0.498113    39A     -0.477681
      40A     -0.458381    41A     -0.434574    42A     -0.410774
      43A     -0.372572

  @DF-RHF Final Energy:  -819.45830184216948

   => Energetics <=

    Nuclear Repulsion Energy =            605.4344597496221922
    One-Electron Energy =               -2326.7506099731717768
    Two-Electron Energy =                 901.8578483813801085
    Total Energy =                       -819.4583018421694760
  Basis Set: (AUG-CC-PVTZ AUX)
    Blend: AUG-CC-PVTZ-RI
    Molecular point group: c1

    Geometry (in Angstrom), charge = 0, multiplicity = 1:

       Center              X                  Y                   Z               Mass
    ------------   -----------------  -----------------  -----------------  -----------------
         S            1.818399149028     0.729758211870    -0.328607463319    31.972071174400
         O           -1.839043850972    -0.927680788130    -0.787576463319    15.994914619570
         O            0.498338149028    -1.054685788130     1.127180536681    15.994914619570
         C           -0.878770850972     0.745569211870     0.321206336681    12.000000000000
         C           -3.379074850972     0.602658211870     0.249939536681    12.000000000000
         C           -2.005467850972     0.059271211870    -0.082497463319    12.000000000000
         C            0.436773149028     0.003207211870     0.520926536681    12.000000000000
         C           -4.507504850972    -0.272293788130    -0.271928463319    12.000000000000
         C            3.061799149028    -0.549464788130     0.004298536681    12.000000000000
         C            4.447455149028    -0.039759788130    -0.361500463319    12.000000000000
         H           -0.690035850972     1.753070211870    -0.107676463319     1.007825032230
         H           -1.043248850972     1.157757211870     1.514209536681     1.007825032230
         H           -3.448636850972     0.730671211870     1.337996536681     1.007825032230
         H           -3.440094850972     1.618283211870    -0.170099463319     1.007825032230
         H           -5.477710850972     0.172906211870    -0.037562463319     1.007825032230
         H           -4.428518850972    -0.396417788130    -1.353579463319     1.007825032230
         H           -4.461990850972    -1.266160788130     0.179417536681     1.007825032230
         H            3.000628149028    -0.801550788130     1.062537536681     1.007825032230
         H            2.806679149028    -1.445879788130    -0.563444463319     1.007825032230
         H            4.505481149028     0.231666211870    -1.418548463319     1.007825032230
         H            4.712804149028     0.836845211870     0.233951536681     1.007825032230
         H            5.190331149028    -0.819401788130    -0.172165463319     1.007825032230

  Basis Set: AUG-CC-PVTZ
    Blend: AUG-CC-PVTZ
  Basis Set: (AUG-CC-PVTZ AUX)
    Blend: AUG-CC-PVTZ-JKFIT
	 Reference Energy          =    -819.4583018421694760 [Eh]
	 Singles Energy            =      -0.0000000000000000 [Eh]
	 Same-Spin Energy          =      -0.4860311465533515 [Eh]
	 Opposite-Spin Energy      =      -1.5741211788108769 [Eh]
	 Correlation Energy        =      -2.0601523253642284 [Eh]
	 Total Energy              =    -821.5184541675337186 [Eh]

	 ================> DF-SCS-MP2 Energies <==================
	-----------------------------------------------------------
	 SCS Same-Spin Scale       =       0.3333333333333333 [-]
	 SCS Opposite-Spin Scale   =       1.2000000000000000 [-]
	 SCS Same-Spin Energy      =      -0.1620103821844505 [Eh]
	 SCS Opposite-Spin Energy  =      -1.8889454145730522 [Eh]
	 SCS Correlation Energy    =      -2.0509557967575027 [Eh]
	 SCS Total Energy          =    -821.5092576389270107 [Eh]
	-----------------------------------------------------------

  Dipole Moment: [D]
     X:     0.2403      Y:     2.9039      Z:     0.6526     Total:     2.9860

*** Psi4 exiting successfully. Buy a developer a beer!
