                               Psi4 1.4a2.dev612

  ==> Input File <==

--------------------------------------------------------------------------
#psi4
#
memory 32 gb

molecule  {
0 1
  S        1.8142300     0.7226310    -0.3411240
  O       -1.8432130    -0.9348080    -0.8000930
  O        0.4941690    -1.0618130     1.1146640
  C       -0.8273310     0.8335030     0.4756360
  C       -3.3888601     0.4514296     0.4416367
  C       -2.0096370     0.0521440    -0.0950140
  C        0.4326040    -0.0039200     0.5084100
  C       -4.5116740    -0.2794210    -0.2844450
  C        3.0576300    -0.5565920    -0.0082180
  C        4.4432860    -0.0468870    -0.3740170
  H       -0.6942050     1.7459430    -0.1201930
  H       -1.0474180     1.1506300     1.5016930
  H       -3.4528060     0.7235440     1.3254800
  H       -3.4442640     1.6111560    -0.1826160
  H       -5.4818800     0.1657790    -0.0500790
  H       -4.4326880    -0.4035450    -1.3660960
  H       -4.4661600    -1.2732880     0.1669010
  H        2.9964590    -0.8086780     1.0500210
  H        2.8025100    -1.4530070    -0.5759610
  H        4.5013120     0.2245390    -1.4310650
  H        4.7086350     0.8297180     0.2214350
  H        5.1861620    -0.8265290    -0.1846820
units angstrom
no_reorient  #important for SAPT in psi4, default
symmetry c1  #important for SAPT in psi4, default
}

set PROPERTIES_ORIGIN ["COM"]
properties('MP2/aug-cc-pvtz', properties = ['dipole'])
--------------------------------------------------------------------------

    Molecular point group: c1
  Charge       = 0
  Multiplicity = 1
  Basis Set: AUG-CC-PVTZ
    Blend: AUG-CC-PVTZ
  Basis Set: (AUG-CC-PVTZ AUX)
    Blend: AUG-CC-PVTZ-JKFIT

    Orbital Energies [Eh]
    ---------------------

    Doubly Occupied:

       1A    -91.972307     2A    -20.555510     3A    -20.555249
       4A    -11.367947     5A    -11.350927     6A    -11.267052
       7A    -11.262645     8A    -11.259432     9A    -11.231663
      10A    -11.227080    11A     -8.973893    12A     -6.655040
      13A     -6.653912    14A     -6.653298    15A     -1.397797
      16A     -1.384261    17A     -1.094141    18A     -1.078488
      19A     -1.044569    20A     -0.972322    21A     -0.899630
      22A     -0.839601    23A     -0.773497    24A     -0.730282
      25A     -0.689531    26A     -0.665808    27A     -0.648454
      28A     -0.637178    29A     -0.624012    30A     -0.610627
      31A     -0.592071    32A     -0.562284    33A     -0.559356
      34A     -0.539991    35A     -0.536109    36A     -0.524419
      37A     -0.512134    38A     -0.497269    39A     -0.466601
      40A     -0.449824    41A     -0.424689    42A     -0.406894
      43A     -0.371270

  @DF-RHF Final Energy:  -819.43393968249040

   => Energetics <=

    Nuclear Repulsion Energy =            603.3009758556335100
    One-Electron Energy =               -2322.4317028579666840
    Two-Electron Energy =                 899.6967873198426560
    Total Energy =                       -819.4339396824904043
  Basis Set: (AUG-CC-PVTZ AUX)
    Blend: AUG-CC-PVTZ-RI
    Molecular point group: c1

    Geometry (in Angstrom), charge = 0, multiplicity = 1:

       Center              X                  Y                   Z               Mass
    ------------   -----------------  -----------------  -----------------  -----------------
         S            1.814650988718     0.733434959586    -0.356434750913    31.972071174400
         O           -1.842792011282    -0.924004040414    -0.815403750913    15.994914619570
         O            0.494589988718    -1.051009040414     1.099353249087    15.994914619570
         C           -0.826910011282     0.844306959586     0.460325249087    12.000000000000
         C           -3.388439111282     0.462233559586     0.426325949087    12.000000000000
         C           -2.009216011282     0.062947959586    -0.110324750913    12.000000000000
         C            0.433024988718     0.006883959586     0.493099249087    12.000000000000
         C           -4.511253011282    -0.268617040414    -0.299755750913    12.000000000000
         C            3.058050988718    -0.545788040414    -0.023528750913    12.000000000000
         C            4.443706988718    -0.036083040414    -0.389327750913    12.000000000000
         H           -0.693784011282     1.756746959586    -0.135503750913     1.007825032230
         H           -1.046997011282     1.161433959586     1.486382249087     1.007825032230
         H           -3.452385011282     0.734347959586     1.310169249087     1.007825032230
         H           -3.443843011282     1.621959959586    -0.197926750913     1.007825032230
         H           -5.481459011282     0.176582959586    -0.065389750913     1.007825032230
         H           -4.432267011282    -0.392741040414    -1.381406750913     1.007825032230
         H           -4.465739011282    -1.262484040414     0.151590249087     1.007825032230
         H            2.996879988718    -0.797874040414     1.034710249087     1.007825032230
         H            2.802930988718    -1.442203040414    -0.591271750913     1.007825032230
         H            4.501732988718     0.235342959586    -1.446375750913     1.007825032230
         H            4.709055988718     0.840521959586     0.206124249087     1.007825032230
         H            5.186582988718    -0.815725040414    -0.199992750913     1.007825032230

  Basis Set: AUG-CC-PVTZ
    Blend: AUG-CC-PVTZ
  Basis Set: (AUG-CC-PVTZ AUX)
    Blend: AUG-CC-PVTZ-JKFIT
	 Reference Energy          =    -819.4339396824904043 [Eh]
	 Singles Energy            =      -0.0000000000000000 [Eh]
	 Same-Spin Energy          =      -0.4852196526930332 [Eh]
	 Opposite-Spin Energy      =      -1.5742612033066563 [Eh]
	 Correlation Energy        =      -2.0594808559996896 [Eh]
	 Total Energy              =    -821.4934205384901134 [Eh]

	 ================> DF-SCS-MP2 Energies <==================
	-----------------------------------------------------------
	 SCS Same-Spin Scale       =       0.3333333333333333 [-]
	 SCS Opposite-Spin Scale   =       1.2000000000000000 [-]
	 SCS Same-Spin Energy      =      -0.1617398842310111 [Eh]
	 SCS Opposite-Spin Energy  =      -1.8891134439679875 [Eh]
	 SCS Correlation Energy    =      -2.0508533281989987 [Eh]
	 SCS Total Energy          =    -821.4847930106893727 [Eh]
	-----------------------------------------------------------

  Dipole Moment: [D]
     X:    -0.0482      Y:     2.7036      Z:     0.7642     Total:     2.8100

*** Psi4 exiting successfully. Buy a developer a beer!
