                               Psi4 1.4a2.dev612

  ==> Input File <==

--------------------------------------------------------------------------
#psi4
#
memory 32 gb

molecule  {
0 1
  S        1.8142300     0.7226310    -0.3411240
  O       -1.8432130    -0.9348080    -0.8000930
  O        0.4941690    -1.0618130     1.1146640
  C       -0.8968423     0.7146768     0.2669532
  C       -3.3832440     0.5955310     0.2374230
  C       -2.0096370     0.0521440    -0.0950140
  C        0.4326040    -0.0039200     0.5084100
  C       -4.5116740    -0.2794210    -0.2844450
  C        3.0576300    -0.5565920    -0.0082180
  C        4.4432860    -0.0468870    -0.3740170
  H       -0.6942050     1.7459430    -0.1201930
  H       -1.0474180     1.1506300     1.5016930
  H       -3.4528060     0.7235440     1.3254800
  H       -3.4442640     1.6111560    -0.1826160
  H       -5.4818800     0.1657790    -0.0500790
  H       -4.4326880    -0.4035450    -1.3660960
  H       -4.4661600    -1.2732880     0.1669010
  H        2.9964590    -0.8086780     1.0500210
  H        2.8025100    -1.4530070    -0.5759610
  H        4.5013120     0.2245390    -1.4310650
  H        4.7086350     0.8297180     0.2214350
  H        5.1861620    -0.8265290    -0.1846820
units angstrom
no_reorient  #important for SAPT in psi4, default
symmetry c1  #important for SAPT in psi4, default
}

set PROPERTIES_ORIGIN ["COM"]
properties('MP2/aug-cc-pvtz', properties = ['dipole'])
--------------------------------------------------------------------------

    Molecular point group: c1
  Charge       = 0
  Multiplicity = 1
  Basis Set: AUG-CC-PVTZ
    Blend: AUG-CC-PVTZ
  Basis Set: (AUG-CC-PVTZ AUX)
    Blend: AUG-CC-PVTZ-JKFIT

    Orbital Energies [Eh]
    ---------------------

    Doubly Occupied:

       1A    -91.974894     2A    -20.556202     3A    -20.549217
       4A    -11.373617     5A    -11.331383     6A    -11.280060
       7A    -11.264681     8A    -11.249555     9A    -11.232929
      10A    -11.221675    11A     -8.976463    12A     -6.657622
      13A     -6.656494    14A     -6.655856    15A     -1.401535
      16A     -1.386385    17A     -1.101168    18A     -1.084152
      19A     -1.045738    20A     -0.980173    21A     -0.896906
      22A     -0.843746    23A     -0.781158    24A     -0.720967
      25A     -0.692022    26A     -0.666715    27A     -0.650131
      28A     -0.639151    29A     -0.634289    30A     -0.603841
      31A     -0.578068    32A     -0.561361    33A     -0.539879
      34A     -0.538775    35A     -0.525584    36A     -0.520185
      37A     -0.511582    38A     -0.497043    39A     -0.474904
      40A     -0.453416    41A     -0.434471    42A     -0.411277
      43A     -0.372878

  @DF-RHF Final Energy:  -819.43834852822783

   => Energetics <=

    Nuclear Repulsion Energy =            605.9087187872983122
    One-Electron Energy =               -2327.6378311856119581
    Two-Electron Energy =                 902.2907638700858115
    Total Energy =                       -819.4383485282278343
  Basis Set: (AUG-CC-PVTZ AUX)
    Blend: AUG-CC-PVTZ-RI
    Molecular point group: c1

    Geometry (in Angstrom), charge = 0, multiplicity = 1:

       Center              X                  Y                   Z               Mass
    ------------   -----------------  -----------------  -----------------  -----------------
         S            1.819441458017     0.731539980469    -0.325478309627    31.972071174400
         O           -1.838001541983    -0.925899019531    -0.784447309627    15.994914619570
         O            0.499380458017    -1.052904019531     1.130309690373    15.994914619570
         C           -0.891630841983     0.723585780469     0.282598890373    12.000000000000
         C           -3.378032541983     0.604439980469     0.253068690373    12.000000000000
         C           -2.004425541983     0.061052980469    -0.079368309627    12.000000000000
         C            0.437815458017     0.004988980469     0.524055690373    12.000000000000
         C           -4.506462541983    -0.270512019531    -0.268799309627    12.000000000000
         C            3.062841458017    -0.547683019531     0.007427690373    12.000000000000
         C            4.448497458017    -0.037978019531    -0.358371309627    12.000000000000
         H           -0.688993541983     1.754851980469    -0.104547309627     1.007825032230
         H           -1.042206541983     1.159538980469     1.517338690373     1.007825032230
         H           -3.447594541983     0.732452980469     1.341125690373     1.007825032230
         H           -3.439052541983     1.620064980469    -0.166970309627     1.007825032230
         H           -5.476668541983     0.174687980469    -0.034433309627     1.007825032230
         H           -4.427476541983    -0.394636019531    -1.350450309627     1.007825032230
         H           -4.460948541983    -1.264379019531     0.182546690373     1.007825032230
         H            3.001670458017    -0.799769019531     1.065666690373     1.007825032230
         H            2.807721458017    -1.444098019531    -0.560315309627     1.007825032230
         H            4.506523458017     0.233447980469    -1.415419309627     1.007825032230
         H            4.713846458017     0.838626980469     0.237080690373     1.007825032230
         H            5.191373458017    -0.817620019531    -0.169036309627     1.007825032230

  Basis Set: AUG-CC-PVTZ
    Blend: AUG-CC-PVTZ
  Basis Set: (AUG-CC-PVTZ AUX)
    Blend: AUG-CC-PVTZ-JKFIT
	 Reference Energy          =    -819.4383485282278343 [Eh]
	 Singles Energy            =      -0.0000000000000000 [Eh]
	 Same-Spin Energy          =      -0.4869330487162798 [Eh]
	 Opposite-Spin Energy      =      -1.5757449835234141 [Eh]
	 Correlation Energy        =      -2.0626780322396940 [Eh]
	 Total Energy              =    -821.5010265604674942 [Eh]

	 ================> DF-SCS-MP2 Energies <==================
	-----------------------------------------------------------
	 SCS Same-Spin Scale       =       0.3333333333333333 [-]
	 SCS Opposite-Spin Scale   =       1.2000000000000000 [-]
	 SCS Same-Spin Energy      =      -0.1623110162387599 [Eh]
	 SCS Opposite-Spin Energy  =      -1.8908939802280968 [Eh]
	 SCS Correlation Energy    =      -2.0532049964668566 [Eh]
	 SCS Total Energy          =    -821.4915535246947229 [Eh]
	-----------------------------------------------------------

  Dipole Moment: [D]
     X:     0.2981      Y:     2.9039      Z:     0.6322     Total:     2.9868

*** Psi4 exiting successfully. Buy a developer a beer!
