                               Psi4 1.4a2.dev612

  ==> Input File <==

--------------------------------------------------------------------------
#psi4
#
memory 32 gb

molecule  {
0 1
  S        1.8142300     0.7226310    -0.3411240
  O       -1.8432130    -0.9348080    -0.8000930
  O        0.4941690    -1.0618130     1.1146640
  C       -0.8412333     0.8097378     0.4338994
  C       -3.3832440     0.5955310     0.2374230
  C       -2.0096370     0.0521440    -0.0950140
  C        0.4326040    -0.0039200     0.5084100
  C       -4.5116740    -0.2794210    -0.2844450
  C        3.0576300    -0.5565920    -0.0082180
  C        4.4432860    -0.0468870    -0.3740170
  H       -0.6942050     1.7459430    -0.1201930
  H       -1.0474180     1.1506300     1.5016930
  H       -3.4528060     0.7235440     1.3254800
  H       -3.4442640     1.6111560    -0.1826160
  H       -5.4818800     0.1657790    -0.0500790
  H       -4.4326880    -0.4035450    -1.3660960
  H       -4.4661600    -1.2732880     0.1669010
  H        2.9964590    -0.8086780     1.0500210
  H        2.8025100    -1.4530070    -0.5759610
  H        4.5013120     0.2245390    -1.4310650
  H        4.7086350     0.8297180     0.2214350
  H        5.1861620    -0.8265290    -0.1846820
units angstrom
no_reorient  #important for SAPT in psi4, default
symmetry c1  #important for SAPT in psi4, default
}

set PROPERTIES_ORIGIN ["COM"]
properties('MP2/aug-cc-pvtz', properties = ['dipole'])
--------------------------------------------------------------------------

    Molecular point group: c1
  Charge       = 0
  Multiplicity = 1
  Basis Set: AUG-CC-PVTZ
    Blend: AUG-CC-PVTZ
  Basis Set: (AUG-CC-PVTZ AUX)
    Blend: AUG-CC-PVTZ-JKFIT

    Orbital Energies [Eh]
    ---------------------

    Doubly Occupied:

       1A    -91.972524     2A    -20.555319     3A    -20.554104
       4A    -11.368184     5A    -11.343386     6A    -11.268866
       7A    -11.262930     8A    -11.249748     9A    -11.231822
      10A    -11.222160    11A     -8.974134    12A     -6.655289
      13A     -6.654160    14A     -6.653545    15A     -1.397893
      16A     -1.384059    17A     -1.094969    18A     -1.078422
      19A     -1.043308    20A     -0.973345    21A     -0.896434
      22A     -0.838313    23A     -0.764029    24A     -0.725428
      25A     -0.681161    26A     -0.666712    27A     -0.649014
      28A     -0.637839    29A     -0.633962    30A     -0.606842
      31A     -0.591776    32A     -0.560156    33A     -0.544644
      34A     -0.534187    35A     -0.526879    36A     -0.520820
      37A     -0.510788    38A     -0.503639    39A     -0.486864
      40A     -0.464695    41A     -0.431530    42A     -0.407865
      43A     -0.371520

  @DF-RHF Final Energy:  -819.49231462844625

   => Energetics <=

    Nuclear Repulsion Energy =            603.9517314750812602
    One-Electron Energy =               -2323.9015577236741592
    Two-Electron Energy =                 900.4575116201466471
    Total Energy =                       -819.4923146284462518
  Basis Set: (AUG-CC-PVTZ AUX)
    Blend: AUG-CC-PVTZ-RI
    Molecular point group: c1

    Geometry (in Angstrom), charge = 0, multiplicity = 1:

       Center              X                  Y                   Z               Mass
    ------------   -----------------  -----------------  -----------------  -----------------
         S            1.815272237054     0.724412891077    -0.337994909400    31.972071174400
         O           -1.842170762946    -0.933026108923    -0.796963909400    15.994914619570
         O            0.495211237054    -1.060031108923     1.117793090600    15.994914619570
         C           -0.840191062946     0.811519691077     0.437028490600    12.000000000000
         C           -3.382201762946     0.597312891077     0.240552090600    12.000000000000
         C           -2.008594762946     0.053925891077    -0.091884909400    12.000000000000
         C            0.433646237054    -0.002138108923     0.511539090600    12.000000000000
         C           -4.510631762946    -0.277639108923    -0.281315909400    12.000000000000
         C            3.058672237054    -0.554810108923    -0.005088909400    12.000000000000
         C            4.444328237054    -0.045105108923    -0.370887909400    12.000000000000
         H           -0.693162762946     1.747724891077    -0.117063909400     1.007825032230
         H           -1.046375762946     1.152411891077     1.504822090600     1.007825032230
         H           -3.451763762946     0.725325891077     1.328609090600     1.007825032230
         H           -3.443221762946     1.612937891077    -0.179486909400     1.007825032230
         H           -5.480837762946     0.167560891077    -0.046949909400     1.007825032230
         H           -4.431645762946    -0.401763108923    -1.362966909400     1.007825032230
         H           -4.465117762946    -1.271506108923     0.170030090600     1.007825032230
         H            2.997501237054    -0.806896108923     1.053150090600     1.007825032230
         H            2.803552237054    -1.451225108923    -0.572831909400     1.007825032230
         H            4.502354237054     0.226320891077    -1.427935909400     1.007825032230
         H            4.709677237054     0.831499891077     0.224564090600     1.007825032230
         H            5.187204237054    -0.824747108923    -0.181552909400     1.007825032230

  Basis Set: AUG-CC-PVTZ
    Blend: AUG-CC-PVTZ
  Basis Set: (AUG-CC-PVTZ AUX)
    Blend: AUG-CC-PVTZ-JKFIT
	 Reference Energy          =    -819.4923146284462518 [Eh]
	 Singles Energy            =      -0.0000000000000000 [Eh]
	 Same-Spin Energy          =      -0.4844165890861120 [Eh]
	 Opposite-Spin Energy      =      -1.5713123770671238 [Eh]
	 Correlation Energy        =      -2.0557289661532359 [Eh]
	 Total Energy              =    -821.5480435945994486 [Eh]

	 ================> DF-SCS-MP2 Energies <==================
	-----------------------------------------------------------
	 SCS Same-Spin Scale       =       0.3333333333333333 [-]
	 SCS Opposite-Spin Scale   =       1.2000000000000000 [-]
	 SCS Same-Spin Energy      =      -0.1614721963620373 [Eh]
	 SCS Opposite-Spin Energy  =      -1.8855748524805485 [Eh]
	 SCS Correlation Energy    =      -2.0470470488425856 [Eh]
	 SCS Total Energy          =    -821.5393616772888663 [Eh]
	-----------------------------------------------------------

  Dipole Moment: [D]
     X:     0.0625      Y:     2.8606      Z:     0.6826     Total:     2.9416

*** Psi4 exiting successfully. Buy a developer a beer!
