                               Psi4 1.4a2.dev612

  ==> Input File <==

--------------------------------------------------------------------------
#psi4
#
memory 32 gb

molecule  {
0 1
  S        1.8142300     0.7226310    -0.3411240
  O       -1.8432130    -0.9348080    -0.8000930
  O        0.4941690    -1.0618130     1.1146640
  C       -0.8273310     0.8335030     0.4756360
  C       -3.3877369     0.4802499     0.4007940
  C       -2.0096370     0.0521440    -0.0950140
  C        0.4326040    -0.0039200     0.5084100
  C       -4.5116740    -0.2794210    -0.2844450
  C        3.0576300    -0.5565920    -0.0082180
  C        4.4432860    -0.0468870    -0.3740170
  H       -0.6942050     1.7459430    -0.1201930
  H       -1.0474180     1.1506300     1.5016930
  H       -3.4528060     0.7235440     1.3254800
  H       -3.4442640     1.6111560    -0.1826160
  H       -5.4818800     0.1657790    -0.0500790
  H       -4.4326880    -0.4035450    -1.3660960
  H       -4.4661600    -1.2732880     0.1669010
  H        2.9964590    -0.8086780     1.0500210
  H        2.8025100    -1.4530070    -0.5759610
  H        4.5013120     0.2245390    -1.4310650
  H        4.7086350     0.8297180     0.2214350
  H        5.1861620    -0.8265290    -0.1846820
units angstrom
no_reorient  #important for SAPT in psi4, default
symmetry c1  #important for SAPT in psi4, default
}

set PROPERTIES_ORIGIN ["COM"]
properties('MP2/aug-cc-pvtz', properties = ['dipole'])
--------------------------------------------------------------------------

    Molecular point group: c1
  Charge       = 0
  Multiplicity = 1
  Basis Set: AUG-CC-PVTZ
    Blend: AUG-CC-PVTZ
  Basis Set: (AUG-CC-PVTZ AUX)
    Blend: AUG-CC-PVTZ-JKFIT

    Orbital Energies [Eh]
    ---------------------

    Doubly Occupied:

       1A    -91.972272     2A    -20.555431     3A    -20.555224
       4A    -11.367867     5A    -11.349235     6A    -11.266974
       7A    -11.262640     8A    -11.256326     9A    -11.231658
      10A    -11.225298    11A     -8.973863    12A     -6.655011
      13A     -6.653883    14A     -6.653269    15A     -1.397680
      16A     -1.384133    17A     -1.094096    18A     -1.078178
      19A     -1.044156    20A     -0.972302    21A     -0.898293
      22A     -0.838838    23A     -0.768972    24A     -0.729343
      25A     -0.687306    26A     -0.665761    27A     -0.648323
      28A     -0.637461    29A     -0.626657    30A     -0.610339
      31A     -0.592616    32A     -0.560105    33A     -0.555392
      34A     -0.539844    35A     -0.535045    36A     -0.524885
      37A     -0.512115    38A     -0.497737    39A     -0.467396
      40A     -0.458583    41A     -0.426729    42A     -0.406890
      43A     -0.371248

  @DF-RHF Final Energy:  -819.45532024157205

   => Energetics <=

    Nuclear Repulsion Energy =            603.3886556165749653
    One-Electron Energy =               -2322.6692020476180005
    Two-Electron Energy =                 899.8252261894710955
    Total Energy =                       -819.4553202415720534
  Basis Set: (AUG-CC-PVTZ AUX)
    Blend: AUG-CC-PVTZ-RI
    Molecular point group: c1

    Geometry (in Angstrom), charge = 0, multiplicity = 1:

       Center              X                  Y                   Z               Mass
    ------------   -----------------  -----------------  -----------------  -----------------
         S            1.814566778086     0.731274190665    -0.353372616348    31.972071174400
         O           -1.842876221914    -0.926164809335    -0.812341616348    15.994914619570
         O            0.494505778086    -1.053169809335     1.102415383652    15.994914619570
         C           -0.826994221914     0.842146190665     0.463387383652    12.000000000000
         C           -3.387400121914     0.488893090665     0.388545383652    12.000000000000
         C           -2.009300221914     0.060787190665    -0.107262616348    12.000000000000
         C            0.432940778086     0.004723190665     0.496161383652    12.000000000000
         C           -4.511337221914    -0.270777809335    -0.296693616348    12.000000000000
         C            3.057966778086    -0.547948809335    -0.020466616348    12.000000000000
         C            4.443622778086    -0.038243809335    -0.386265616348    12.000000000000
         H           -0.693868221914     1.754586190665    -0.132441616348     1.007825032230
         H           -1.047081221914     1.159273190665     1.489444383652     1.007825032230
         H           -3.452469221914     0.732187190665     1.313231383652     1.007825032230
         H           -3.443927221914     1.619799190665    -0.194864616348     1.007825032230
         H           -5.481543221914     0.174422190665    -0.062327616348     1.007825032230
         H           -4.432351221914    -0.394901809335    -1.378344616348     1.007825032230
         H           -4.465823221914    -1.264644809335     0.154652383652     1.007825032230
         H            2.996795778086    -0.800034809335     1.037772383652     1.007825032230
         H            2.802846778086    -1.444363809335    -0.588209616348     1.007825032230
         H            4.501648778086     0.233182190665    -1.443313616348     1.007825032230
         H            4.708971778086     0.838361190665     0.209186383652     1.007825032230
         H            5.186498778086    -0.817885809335    -0.196930616348     1.007825032230

  Basis Set: AUG-CC-PVTZ
    Blend: AUG-CC-PVTZ
  Basis Set: (AUG-CC-PVTZ AUX)
    Blend: AUG-CC-PVTZ-JKFIT
	 Reference Energy          =    -819.4553202415720534 [Eh]
	 Singles Energy            =      -0.0000000000000000 [Eh]
	 Same-Spin Energy          =      -0.4848913099770704 [Eh]
	 Opposite-Spin Energy      =      -1.5731375626776518 [Eh]
	 Correlation Energy        =      -2.0580288726547220 [Eh]
	 Total Energy              =    -821.5133491142267985 [Eh]

	 ================> DF-SCS-MP2 Energies <==================
	-----------------------------------------------------------
	 SCS Same-Spin Scale       =       0.3333333333333333 [-]
	 SCS Opposite-Spin Scale   =       1.2000000000000000 [-]
	 SCS Same-Spin Energy      =      -0.1616304366590235 [Eh]
	 SCS Opposite-Spin Energy  =      -1.8877650752131820 [Eh]
	 SCS Correlation Energy    =      -2.0493955118722056 [Eh]
	 SCS Total Energy          =    -821.5047157534443159 [Eh]
	-----------------------------------------------------------

  Dipole Moment: [D]
     X:    -0.0337      Y:     2.7382      Z:     0.7545     Total:     2.8405

*** Psi4 exiting successfully. Buy a developer a beer!
