                               Psi4 1.4a2.dev612

  ==> Input File <==

--------------------------------------------------------------------------
#psi4
#
memory 32 gb

molecule  {
0 1
  S        1.8142300     0.7226310    -0.3411240
  O       -1.8432130    -0.9348080    -0.8000930
  O        0.4941690    -1.0618130     1.1146640
  C       -0.8273310     0.8335030     0.4756360
  C       -3.3843672     0.5667107     0.2782657
  C       -2.0096370     0.0521440    -0.0950140
  C        0.4326040    -0.0039200     0.5084100
  C       -4.5116740    -0.2794210    -0.2844450
  C        3.0576300    -0.5565920    -0.0082180
  C        4.4432860    -0.0468870    -0.3740170
  H       -0.6942050     1.7459430    -0.1201930
  H       -1.0474180     1.1506300     1.5016930
  H       -3.4528060     0.7235440     1.3254800
  H       -3.4442640     1.6111560    -0.1826160
  H       -5.4818800     0.1657790    -0.0500790
  H       -4.4326880    -0.4035450    -1.3660960
  H       -4.4661600    -1.2732880     0.1669010
  H        2.9964590    -0.8086780     1.0500210
  H        2.8025100    -1.4530070    -0.5759610
  H        4.5013120     0.2245390    -1.4310650
  H        4.7086350     0.8297180     0.2214350
  H        5.1861620    -0.8265290    -0.1846820
units angstrom
no_reorient  #important for SAPT in psi4, default
symmetry c1  #important for SAPT in psi4, default
}

set PROPERTIES_ORIGIN ["COM"]
properties('MP2/aug-cc-pvtz', properties = ['dipole'])
--------------------------------------------------------------------------

    Molecular point group: c1
  Charge       = 0
  Multiplicity = 1
  Basis Set: AUG-CC-PVTZ
    Blend: AUG-CC-PVTZ
  Basis Set: (AUG-CC-PVTZ AUX)
    Blend: AUG-CC-PVTZ-JKFIT

    Orbital Energies [Eh]
    ---------------------

    Doubly Occupied:

       1A    -91.972153     2A    -20.555403     3A    -20.555179
       4A    -11.367570     5A    -11.346297     6A    -11.266835
       7A    -11.262619     8A    -11.250579     9A    -11.231638
      10A    -11.222393    11A     -8.973760    12A     -6.654912
      13A     -6.653783    14A     -6.653169    15A     -1.397423
      16A     -1.383950    17A     -1.093967    18A     -1.077392
      19A     -1.043020    20A     -0.972167    21A     -0.896302
      22A     -0.837729    23A     -0.760608    24A     -0.727077
      25A     -0.679676    26A     -0.667059    27A     -0.648073
      28A     -0.638224    29A     -0.632935    30A     -0.609071
      31A     -0.594730    32A     -0.559817    33A     -0.545841
      34A     -0.534320    35A     -0.527404    36A     -0.523638
      37A     -0.512733    38A     -0.502131    39A     -0.486022
      40A     -0.465276    41A     -0.429378    42A     -0.406593
      43A     -0.371164

  @DF-RHF Final Energy:  -819.49209386223890

   => Energetics <=

    Nuclear Repulsion Energy =            603.4698618095510483
    One-Electron Energy =               -2322.9438946943300834
    Two-Electron Energy =                 899.9819390225401321
    Total Energy =                       -819.4920938622389031
  Basis Set: (AUG-CC-PVTZ AUX)
    Blend: AUG-CC-PVTZ-RI
    Molecular point group: c1

    Geometry (in Angstrom), charge = 0, multiplicity = 1:

       Center              X                  Y                   Z               Mass
    ------------   -----------------  -----------------  -----------------  -----------------
         S            1.814314138696     0.724791891399    -0.344186197658    31.972071174400
         O           -1.843128861304    -0.932647108601    -0.803155197658    15.994914619570
         O            0.494253138696    -1.059652108601     1.111601802342    15.994914619570
         C           -0.827246861304     0.835663891399     0.472573802342    12.000000000000
         C           -3.384283061304     0.568871591399     0.275203502342    12.000000000000
         C           -2.009552861304     0.054304891399    -0.098076197658    12.000000000000
         C            0.432688138696    -0.001759108601     0.505347802342    12.000000000000
         C           -4.511589861304    -0.277260108601    -0.287507197658    12.000000000000
         C            3.057714138696    -0.554431108601    -0.011280197658    12.000000000000
         C            4.443370138696    -0.044726108601    -0.377079197658    12.000000000000
         H           -0.694120861304     1.748103891399    -0.123255197658     1.007825032230
         H           -1.047333861304     1.152790891399     1.498630802342     1.007825032230
         H           -3.452721861304     0.725704891399     1.322417802342     1.007825032230
         H           -3.444179861304     1.613316891399    -0.185678197658     1.007825032230
         H           -5.481795861304     0.167939891399    -0.053141197658     1.007825032230
         H           -4.432603861304    -0.401384108601    -1.369158197658     1.007825032230
         H           -4.466075861304    -1.271127108601     0.163838802342     1.007825032230
         H            2.996543138696    -0.806517108601     1.046958802342     1.007825032230
         H            2.802594138696    -1.450846108601    -0.579023197658     1.007825032230
         H            4.501396138696     0.226699891399    -1.434127197658     1.007825032230
         H            4.708719138696     0.831878891399     0.218372802342     1.007825032230
         H            5.186246138696    -0.824368108601    -0.187744197658     1.007825032230

  Basis Set: AUG-CC-PVTZ
    Blend: AUG-CC-PVTZ
  Basis Set: (AUG-CC-PVTZ AUX)
    Blend: AUG-CC-PVTZ-JKFIT
	 Reference Energy          =    -819.4920938622389031 [Eh]
	 Singles Energy            =      -0.0000000000000000 [Eh]
	 Same-Spin Energy          =      -0.4842903172563461 [Eh]
	 Opposite-Spin Energy      =      -1.5712177826207303 [Eh]
	 Correlation Energy        =      -2.0555080998770765 [Eh]
	 Total Energy              =    -821.5476019621160049 [Eh]

	 ================> DF-SCS-MP2 Energies <==================
	-----------------------------------------------------------
	 SCS Same-Spin Scale       =       0.3333333333333333 [-]
	 SCS Opposite-Spin Scale   =       1.2000000000000000 [-]
	 SCS Same-Spin Energy      =      -0.1614301057521154 [Eh]
	 SCS Opposite-Spin Energy  =      -1.8854613391448762 [Eh]
	 SCS Correlation Energy    =      -2.0468914448969917 [Eh]
	 SCS Total Energy          =    -821.5389853071359312 [Eh]
	-----------------------------------------------------------

  Dipole Moment: [D]
     X:    -0.0041      Y:     2.8189      Z:     0.7056     Total:     2.9059

*** Psi4 exiting successfully. Buy a developer a beer!
