                               Psi4 1.4a2.dev612

  ==> Input File <==

--------------------------------------------------------------------------
#psi4
#
memory 32 gb

molecule  {
0 1
  S        1.8142300     0.7226310    -0.3411240
  O       -1.8432130    -0.9348080    -0.8000930
  O        0.4941690    -1.0618130     1.1146640
  C       -0.8273310     0.8335030     0.4756360
  C       -3.3854904     0.5378904     0.3191085
  C       -2.0096370     0.0521440    -0.0950140
  C        0.4326040    -0.0039200     0.5084100
  C       -4.5116740    -0.2794210    -0.2844450
  C        3.0576300    -0.5565920    -0.0082180
  C        4.4432860    -0.0468870    -0.3740170
  H       -0.6942050     1.7459430    -0.1201930
  H       -1.0474180     1.1506300     1.5016930
  H       -3.4528060     0.7235440     1.3254800
  H       -3.4442640     1.6111560    -0.1826160
  H       -5.4818800     0.1657790    -0.0500790
  H       -4.4326880    -0.4035450    -1.3660960
  H       -4.4661600    -1.2732880     0.1669010
  H        2.9964590    -0.8086780     1.0500210
  H        2.8025100    -1.4530070    -0.5759610
  H        4.5013120     0.2245390    -1.4310650
  H        4.7086350     0.8297180     0.2214350
  H        5.1861620    -0.8265290    -0.1846820
units angstrom
no_reorient  #important for SAPT in psi4, default
symmetry c1  #important for SAPT in psi4, default
}

set PROPERTIES_ORIGIN ["COM"]
properties('MP2/aug-cc-pvtz', properties = ['dipole'])
--------------------------------------------------------------------------

    Molecular point group: c1
  Charge       = 0
  Multiplicity = 1
  Basis Set: AUG-CC-PVTZ
    Blend: AUG-CC-PVTZ
  Basis Set: (AUG-CC-PVTZ AUX)
    Blend: AUG-CC-PVTZ-JKFIT

    Orbital Energies [Eh]
    ---------------------

    Doubly Occupied:

       1A    -91.972193     2A    -20.555297     3A    -20.555264
       4A    -11.367677     5A    -11.346898     6A    -11.266864
       7A    -11.262626     8A    -11.251883     9A    -11.231646
      10A    -11.222932    11A     -8.973795    12A     -6.654946
      13A     -6.653817    14A     -6.653203    15A     -1.397490
      16A     -1.383974    17A     -1.094009    18A     -1.077630
      19A     -1.043375    20A     -0.972223    21A     -0.896685
      22A     -0.837918    23A     -0.762335    24A     -0.727601
      25A     -0.682072    26A     -0.666229    27A     -0.648105
      28A     -0.638148    29A     -0.631359    30A     -0.609529
      31A     -0.594111    32A     -0.559856    33A     -0.546647
      34A     -0.536293    35A     -0.530863    36A     -0.525403
      37A     -0.512313    38A     -0.499749    39A     -0.479751
      40A     -0.465062    41A     -0.428807    42A     -0.406734
      43A     -0.371194

  @DF-RHF Final Energy:  -819.48453998180764

   => Energetics <=

    Nuclear Repulsion Energy =            603.4726336361619587
    One-Electron Energy =               -2322.9253365327904248
    Two-Electron Energy =                 899.9681629148209367
    Total Energy =                       -819.4845399818076430
  Basis Set: (AUG-CC-PVTZ AUX)
    Blend: AUG-CC-PVTZ-RI
    Molecular point group: c1

    Geometry (in Angstrom), charge = 0, multiplicity = 1:

       Center              X                  Y                   Z               Mass
    ------------   -----------------  -----------------  -----------------  -----------------
         S            1.814398349327     0.726952660320    -0.347248339720    31.972071174400
         O           -1.843044650673    -0.930486339680    -0.806217339720    15.994914619570
         O            0.494337349327    -1.057491339680     1.108539660280    15.994914619570
         C           -0.827162650673     0.837824660320     0.469511660280    12.000000000000
         C           -3.385322050673     0.542212060320     0.312984160280    12.000000000000
         C           -2.009468650673     0.056465660320    -0.101138339720    12.000000000000
         C            0.432772349327     0.000401660320     0.502285660280    12.000000000000
         C           -4.511505650673    -0.275099339680    -0.290569339720    12.000000000000
         C            3.057798349327    -0.552270339680    -0.014342339720    12.000000000000
         C            4.443454349327    -0.042565339680    -0.380141339720    12.000000000000
         H           -0.694036650673     1.750264660320    -0.126317339720     1.007825032230
         H           -1.047249650673     1.154951660320     1.495568660280     1.007825032230
         H           -3.452637650673     0.727865660320     1.319355660280     1.007825032230
         H           -3.444095650673     1.615477660320    -0.188740339720     1.007825032230
         H           -5.481711650673     0.170100660320    -0.056203339720     1.007825032230
         H           -4.432519650673    -0.399223339680    -1.372220339720     1.007825032230
         H           -4.465991650673    -1.268966339680     0.160776660280     1.007825032230
         H            2.996627349327    -0.804356339680     1.043896660280     1.007825032230
         H            2.802678349327    -1.448685339680    -0.582085339720     1.007825032230
         H            4.501480349327     0.228860660320    -1.437189339720     1.007825032230
         H            4.708803349327     0.834039660320     0.215310660280     1.007825032230
         H            5.186330349327    -0.822207339680    -0.190806339720     1.007825032230

  Basis Set: AUG-CC-PVTZ
    Blend: AUG-CC-PVTZ
  Basis Set: (AUG-CC-PVTZ AUX)
    Blend: AUG-CC-PVTZ-JKFIT
	 Reference Energy          =    -819.4845399818076430 [Eh]
	 Singles Energy            =      -0.0000000000000000 [Eh]
	 Same-Spin Energy          =      -0.4844278716995616 [Eh]
	 Opposite-Spin Energy      =      -1.5716172197666149 [Eh]
	 Correlation Energy        =      -2.0560450914661765 [Eh]
	 Total Energy              =    -821.5405850732738600 [Eh]

	 ================> DF-SCS-MP2 Energies <==================
	-----------------------------------------------------------
	 SCS Same-Spin Scale       =       0.3333333333333333 [-]
	 SCS Opposite-Spin Scale   =       1.2000000000000000 [-]
	 SCS Same-Spin Energy      =      -0.1614759572331872 [Eh]
	 SCS Opposite-Spin Energy  =      -1.8859406637199378 [Eh]
	 SCS Correlation Energy    =      -2.0474166209531250 [Eh]
	 SCS Total Energy          =    -821.5319566027607152 [Eh]
	-----------------------------------------------------------

  Dipole Moment: [D]
     X:    -0.0116      Y:     2.7972      Z:     0.7251     Total:     2.8896

*** Psi4 exiting successfully. Buy a developer a beer!
