                               Psi4 1.4a3.dev225

  ==> Input File <==

--------------------------------------------------------------------------
#psi4
#
memory 32 gb

molecule  {
0 1
  S       -1.9906940    -0.0125100    -0.1365530
  O       -2.3617000    -0.1700640     1.4590810
  O       -2.4286150    -1.2343840    -0.7923790
  O       -2.4725380     1.3090340    -0.5392830
  C       -0.2242900    -0.0021990    -0.0874500
  C        1.8486770    -1.2201060     0.0278510
  C        1.8399080     1.2326580     0.0087760
  C        0.4429230     1.2221080    -0.0627730
  C        0.4524940    -1.2213400    -0.0491660
  C        2.5293691     0.0268314     0.0555357
  C        2.6153160    -2.5166400     0.0331700
  C        2.5970370     2.5347130    -0.0106060
  H       -0.1225000     2.1495790    -0.1127420
  H       -0.1051200    -2.1541630    -0.0856740
  H        3.6080620     0.0137470     0.1195720
  H        2.0290960    -3.3176030     0.4912070
  H        2.8638720    -2.8264950    -0.9873940
  H        3.5515030    -2.4163920     0.5891050
  H        2.8417130     2.8282160    -1.0369270
  H        2.0062320     3.3400050     0.4339970
  H        3.5349660     2.4512730     0.5451920
  H       -2.8050090     0.6644540     1.7194690
units angstrom
no_reorient  #important for SAPT in psi4, default
symmetry c1  #important for SAPT in psi4, default
}

set PROPERTIES_ORIGIN ["COM"]
properties('MP2/aug-cc-pvtz', properties = ['dipole'])
--------------------------------------------------------------------------

    Molecular point group: c1
  Charge       = 0
  Multiplicity = 1
  Basis Set: AUG-CC-PVTZ
    Blend: AUG-CC-PVTZ
  Basis Set: (AUG-CC-PVTZ AUX)
    Blend: AUG-CC-PVTZ-JKFIT

    Orbital Energies [Eh]
    ---------------------

    Doubly Occupied:

       1A    -92.228836     2A    -20.628696     3A    -20.565000
       4A    -20.560867     5A    -11.286311     6A    -11.269256
       7A    -11.266388     8A    -11.263332     9A    -11.261390
      10A    -11.257274    11A    -11.240887    12A    -11.240558
      13A     -9.191744    14A     -6.877364    15A     -6.876065
      16A     -6.875825    17A     -1.492774    18A     -1.379135
      19A     -1.351491    20A     -1.187123    21A     -1.081674
      22A     -1.074945    23A     -0.961896    24A     -0.953726
      25A     -0.924470    26A     -0.819490    27A     -0.808745
      28A     -0.740112    29A     -0.722979    30A     -0.691707
      31A     -0.684507    32A     -0.670371    33A     -0.627967
      34A     -0.602004    35A     -0.600611    36A     -0.591727
      37A     -0.585207    38A     -0.575180    39A     -0.569459
      40A     -0.547938    41A     -0.539204    42A     -0.523573
      43A     -0.507874    44A     -0.505553    45A     -0.500681
      46A     -0.483979    47A     -0.473766    48A     -0.362857
      49A     -0.344786

  @DF-RHF Final Energy:  -931.05683628256156

   => Energetics <=

    Nuclear Repulsion Energy =            830.2825296587897128
    One-Electron Energy =               -2925.9241181525549109
    Two-Electron Energy =                1164.5847522112035222
    Total Energy =                       -931.0568362825615623
  Basis Set: (AUG-CC-PVTZ AUX)
    Blend: AUG-CC-PVTZ-RI
    Molecular point group: c1

    Geometry (in Angstrom), charge = 0, multiplicity = 1:

       Center              X                  Y                   Z               Mass
    ------------   -----------------  -----------------  -----------------  -----------------
         S           -1.898995577108    -0.009739281426    -0.127657603974    31.972071174400
         O           -2.270001577108    -0.167293281426     1.467976396026    15.994914619570
         O           -2.336916577108    -1.231613281426    -0.783483603974    15.994914619570
         O           -2.380839577108     1.311804718574    -0.530387603974    15.994914619570
         C           -0.132591577108     0.000571718574    -0.078554603974    12.000000000000
         C            1.940375422892    -1.217335281426     0.036746396026    12.000000000000
         C            1.931606422892     1.235428718574     0.017671396026    12.000000000000
         C            0.534621422892     1.224878718574    -0.053877603974    12.000000000000
         C            0.544192422892    -1.218569281426    -0.040270603974    12.000000000000
         C            2.621067522892     0.029602118574     0.064431096026    12.000000000000
         C            2.707014422892    -2.513869281426     0.042065396026    12.000000000000
         C            2.688735422892     2.537483718574    -0.001710603974    12.000000000000
         H           -0.030801577108     2.152349718574    -0.103846603974     1.007825032230
         H           -0.013421577108    -2.151392281426    -0.076778603974     1.007825032230
         H            3.699760422892     0.016517718574     0.128467396026     1.007825032230
         H            2.120794422892    -3.314832281426     0.500102396026     1.007825032230
         H            2.955570422892    -2.823724281426    -0.978498603974     1.007825032230
         H            3.643201422892    -2.413621281426     0.598000396026     1.007825032230
         H            2.933411422892     2.830986718574    -1.028031603974     1.007825032230
         H            2.097930422892     3.342775718574     0.442892396026     1.007825032230
         H            3.626664422892     2.454043718574     0.554087396026     1.007825032230
         H           -2.713310577108     0.667224718574     1.728364396026     1.007825032230

  Basis Set: AUG-CC-PVTZ
    Blend: AUG-CC-PVTZ
  Basis Set: (AUG-CC-PVTZ AUX)
    Blend: AUG-CC-PVTZ-JKFIT
	 Reference Energy          =    -931.0568362825615623 [Eh]
	 Singles Energy            =      -0.0000000000000000 [Eh]
	 Same-Spin Energy          =      -0.6212809610776993 [Eh]
	 Opposite-Spin Energy      =      -1.8677340040778321 [Eh]
	 Correlation Energy        =      -2.4890149651555316 [Eh]
	 Total Energy              =    -933.5458512477171098 [Eh]

	 ================> DF-SCS-MP2 Energies <==================
	-----------------------------------------------------------
	 SCS Same-Spin Scale       =       0.3333333333333333 [-]
	 SCS Opposite-Spin Scale   =       1.2000000000000000 [-]
	 SCS Same-Spin Energy      =      -0.2070936536925664 [Eh]
	 SCS Opposite-Spin Energy  =      -2.2412808048933983 [Eh]
	 SCS Correlation Energy    =      -2.4483744585859646 [Eh]
	 SCS Total Energy          =    -933.5052107411474935 [Eh]
	-----------------------------------------------------------

  Dipole Moment: [D]
     X:     4.4304      Y:     0.9825      Z:     1.8901     Total:     4.9159

*** Psi4 exiting successfully. Buy a developer a beer!
