                               Psi4 1.4a3.dev225

  ==> Input File <==

--------------------------------------------------------------------------
#psi4
#
memory 32 gb

molecule  {
0 1
  S       -1.9906940    -0.0125100    -0.1365530
  O       -2.3617000    -0.1700640     1.4590810
  O       -2.4286150    -1.2343840    -0.7923790
  O       -2.4725380     1.3090340    -0.5392830
  C       -0.2242900    -0.0021990    -0.0874500
  C        1.8486770    -1.2201060     0.0278510
  C        1.8399080     1.2326580     0.0087760
  C        0.4429230     1.2221080    -0.0627730
  C        0.4524940    -1.2213400    -0.0491660
  C        2.5197880     0.0092800     0.0551460
  C        2.6153160    -2.5166400     0.0331700
  C        2.5970370     2.5347130    -0.0106060
  H       -0.1225000     2.1495790    -0.1127420
  H       -0.1051200    -2.1541630    -0.0856740
  H        3.6080620     0.0137470     0.1195720
  H        2.0290960    -3.3176030     0.4912070
  H        2.8638720    -2.8264950    -0.9873940
  H        3.5515030    -2.4163920     0.5891050
  H        2.8417130     2.8282160    -1.0369270
  H        2.0062320     3.3400050     0.4339970
  H        3.5349660     2.4512730     0.5451920
  H       -2.7145540     0.4941748     1.6663381
units angstrom
no_reorient  #important for SAPT in psi4, default
symmetry c1  #important for SAPT in psi4, default
}

set PROPERTIES_ORIGIN ["COM"]
properties('MP2/aug-cc-pvtz', properties = ['dipole'])
--------------------------------------------------------------------------

    Molecular point group: c1
  Charge       = 0
  Multiplicity = 1
  Basis Set: AUG-CC-PVTZ
    Blend: AUG-CC-PVTZ
  Basis Set: (AUG-CC-PVTZ AUX)
    Blend: AUG-CC-PVTZ-JKFIT

    Orbital Energies [Eh]
    ---------------------

    Doubly Occupied:

       1A    -92.232584     2A    -20.611132     3A    -20.568431
       4A    -20.563230     5A    -11.287614     6A    -11.268533
       7A    -11.268268     8A    -11.264159     9A    -11.263501
      10A    -11.258348    11A    -11.242167    12A    -11.241226
      13A     -9.195436    14A     -6.881113    15A     -6.879730
      16A     -6.879482    17A     -1.520149    18A     -1.419190
      19A     -1.354070    20A     -1.189337    21A     -1.082704
      22A     -1.078270    23A     -0.964941    24A     -0.954869
      25A     -0.940516    26A     -0.841463    27A     -0.811089
      28A     -0.763488    29A     -0.726455    30A     -0.695180
      31A     -0.686065    32A     -0.675472    33A     -0.635099
      34A     -0.603701    35A     -0.601936    36A     -0.592953
      37A     -0.586147    38A     -0.581843    39A     -0.570799
      40A     -0.549012    41A     -0.539221    42A     -0.527738
      43A     -0.510823    44A     -0.508801    45A     -0.503479
      46A     -0.487585    47A     -0.476237    48A     -0.364861
      49A     -0.346188

  @DF-RHF Final Energy:  -931.01350867130691

   => Energetics <=

    Nuclear Repulsion Energy =            832.0745533504975811
    One-Electron Energy =               -2928.9868506525522207
    Two-Electron Energy =                1165.8987886307479585
    Total Energy =                       -931.0135086713069086
  Basis Set: (AUG-CC-PVTZ AUX)
    Blend: AUG-CC-PVTZ-RI
    Molecular point group: c1

    Geometry (in Angstrom), charge = 0, multiplicity = 1:

       Center              X                  Y                   Z               Mass
    ------------   -----------------  -----------------  -----------------  -----------------
         S           -1.898867588405    -0.007684677153    -0.127344635820    31.972071174400
         O           -2.269873588405    -0.165238677153     1.468289364180    15.994914619570
         O           -2.336788588405    -1.229558677153    -0.783170635820    15.994914619570
         O           -2.380711588405     1.313859322847    -0.530074635820    15.994914619570
         C           -0.132463588405     0.002626322847    -0.078241635820    12.000000000000
         C            1.940503411595    -1.215280677153     0.037059364180    12.000000000000
         C            1.931734411595     1.237483322847     0.017984364180    12.000000000000
         C            0.534749411595     1.226933322847    -0.053564635820    12.000000000000
         C            0.544320411595    -1.216514677153    -0.039957635820    12.000000000000
         C            2.611614411595     0.014105322847     0.064354364180    12.000000000000
         C            2.707142411595    -2.511814677153     0.042378364180    12.000000000000
         C            2.688863411595     2.539538322847    -0.001397635820    12.000000000000
         H           -0.030673588405     2.154404322847    -0.103533635820     1.007825032230
         H           -0.013293588405    -2.149337677153    -0.076465635820     1.007825032230
         H            3.699888411595     0.018572322847     0.128780364180     1.007825032230
         H            2.120922411595    -3.312777677153     0.500415364180     1.007825032230
         H            2.955698411595    -2.821669677153    -0.978185635820     1.007825032230
         H            3.643329411595    -2.411566677153     0.598313364180     1.007825032230
         H            2.933539411595     2.833041322847    -1.027718635820     1.007825032230
         H            2.098058411595     3.344830322847     0.443205364180     1.007825032230
         H            3.626792411595     2.456098322847     0.554400364180     1.007825032230
         H           -2.622727588405     0.499000122847     1.675546464180     1.007825032230

  Basis Set: AUG-CC-PVTZ
    Blend: AUG-CC-PVTZ
  Basis Set: (AUG-CC-PVTZ AUX)
    Blend: AUG-CC-PVTZ-JKFIT
	 Reference Energy          =    -931.0135086713069086 [Eh]
	 Singles Energy            =      -0.0000000000000000 [Eh]
	 Same-Spin Energy          =      -0.6188232131148964 [Eh]
	 Opposite-Spin Energy      =      -1.8624954218402987 [Eh]
	 Correlation Energy        =      -2.4813186349551950 [Eh]
	 Total Energy              =    -933.4948273062620956 [Eh]

	 ================> DF-SCS-MP2 Energies <==================
	-----------------------------------------------------------
	 SCS Same-Spin Scale       =       0.3333333333333333 [-]
	 SCS Opposite-Spin Scale   =       1.2000000000000000 [-]
	 SCS Same-Spin Energy      =      -0.2062744043716321 [Eh]
	 SCS Opposite-Spin Energy  =      -2.2349945062083583 [Eh]
	 SCS Correlation Energy    =      -2.4412689105799905 [Eh]
	 SCS Total Energy          =    -933.4547775818869013 [Eh]
	-----------------------------------------------------------

  Dipole Moment: [D]
     X:     4.6275      Y:     0.8238      Z:     1.6992     Total:     4.9980

*** Psi4 exiting successfully. Buy a developer a beer!
