                               Psi4 1.4a3.dev225

  ==> Input File <==

--------------------------------------------------------------------------
#psi4
#
memory 32 gb

molecule  {
0 1
  S       -1.9906940    -0.0125100    -0.1365530
  O       -2.3617000    -0.1700640     1.4590810
  O       -2.4286150    -1.2343840    -0.7923790
  O       -2.4725380     1.3090340    -0.5392830
  C       -0.2242900    -0.0021990    -0.0874500
  C        1.8486770    -1.2201060     0.0278510
  C        1.8399080     1.2326580     0.0087760
  C        0.4429230     1.2221080    -0.0627730
  C        0.4524940    -1.2213400    -0.0491660
  C        2.5197880     0.0092800     0.0551460
  C        2.6153160    -2.5166400     0.0331700
  C        2.5970370     2.5347130    -0.0106060
  H       -0.1225000     2.1495790    -0.1127420
  H       -0.1051200    -2.1541630    -0.0856740
  H        3.6080620     0.0137470     0.1195720
  H        2.0290960    -3.3176030     0.4912070
  H        2.8638720    -2.8264950    -0.9873940
  H        3.5515030    -2.4163920     0.5891050
  H        2.8417130     2.8282160    -1.0369270
  H        2.0062320     3.3400050     0.4339970
  H        3.5349660     2.4512730     0.5451920
  H       -2.7959635     0.6474261     1.7141559
units angstrom
no_reorient  #important for SAPT in psi4, default
symmetry c1  #important for SAPT in psi4, default
}

set PROPERTIES_ORIGIN ["COM"]
properties('MP2/aug-cc-pvtz', properties = ['dipole'])
--------------------------------------------------------------------------

    Molecular point group: c1
  Charge       = 0
  Multiplicity = 1
  Basis Set: AUG-CC-PVTZ
    Blend: AUG-CC-PVTZ
  Basis Set: (AUG-CC-PVTZ AUX)
    Blend: AUG-CC-PVTZ-JKFIT

    Orbital Energies [Eh]
    ---------------------

    Doubly Occupied:

       1A    -92.229151     2A    -20.627329     3A    -20.565317
       4A    -20.561005     5A    -11.286218     6A    -11.267553
       7A    -11.267234     8A    -11.262922     9A    -11.262196
      10A    -11.257235    11A    -11.241546    12A    -11.240446
      13A     -9.192053    14A     -6.877678    15A     -6.876371
      16A     -6.876132    17A     -1.494306    18A     -1.382686
      19A     -1.351707    20A     -1.188022    21A     -1.081737
      22A     -1.075693    23A     -0.962614    24A     -0.953855
      25A     -0.925281    26A     -0.820961    27A     -0.809996
      28A     -0.742733    29A     -0.723332    30A     -0.691629
      31A     -0.683912    32A     -0.671257    33A     -0.628718
      34A     -0.602582    35A     -0.600962    36A     -0.591897
      37A     -0.585407    38A     -0.575002    39A     -0.569469
      40A     -0.548123    41A     -0.537767    42A     -0.523987
      43A     -0.508493    44A     -0.507087    45A     -0.501131
      46A     -0.484369    47A     -0.473867    48A     -0.363453
      49A     -0.345163

  @DF-RHF Final Energy:  -931.05832822720265

   => Energetics <=

    Nuclear Repulsion Energy =            830.6130758703765196
    One-Electron Energy =               -2926.5476440020029258
    Two-Electron Energy =                1164.8762399044235281
    Total Energy =                       -931.0583282272027645
  Basis Set: (AUG-CC-PVTZ AUX)
    Blend: AUG-CC-PVTZ-RI
    Molecular point group: c1

    Geometry (in Angstrom), charge = 0, multiplicity = 1:

       Center              X                  Y                   Z               Mass
    ------------   -----------------  -----------------  -----------------  -----------------
         S           -1.898426561162    -0.008514899649    -0.127603683628    31.972071174400
         O           -2.269432561162    -0.166068899649     1.468030316372    15.994914619570
         O           -2.336347561162    -1.230388899649    -0.783429683628    15.994914619570
         O           -2.380270561162     1.313029100351    -0.530333683628    15.994914619570
         C           -0.132022561162     0.001796100351    -0.078500683628    12.000000000000
         C            1.940944438838    -1.216110899649     0.036800316372    12.000000000000
         C            1.932175438838     1.236653100351     0.017725316372    12.000000000000
         C            0.535190438838     1.226103100351    -0.053823683628    12.000000000000
         C            0.544761438838    -1.217344899649    -0.040216683628    12.000000000000
         C            2.612055438838     0.013275100351     0.064095316372    12.000000000000
         C            2.707583438838    -2.512644899649     0.042119316372    12.000000000000
         C            2.689304438838     2.538708100351    -0.001656683628    12.000000000000
         H           -0.030232561162     2.153574100351    -0.103792683628     1.007825032230
         H           -0.012852561162    -2.150167899649    -0.076724683628     1.007825032230
         H            3.700329438838     0.017742100351     0.128521316372     1.007825032230
         H            2.121363438838    -3.313607899649     0.500156316372     1.007825032230
         H            2.956139438838    -2.822499899649    -0.978444683628     1.007825032230
         H            3.643770438838    -2.412396899649     0.598054316372     1.007825032230
         H            2.933980438838     2.832211100351    -1.027977683628     1.007825032230
         H            2.098499438838     3.344000100351     0.442946316372     1.007825032230
         H            3.627233438838     2.455268100351     0.554141316372     1.007825032230
         H           -2.703696061162     0.651421200351     1.723105216372     1.007825032230

  Basis Set: AUG-CC-PVTZ
    Blend: AUG-CC-PVTZ
  Basis Set: (AUG-CC-PVTZ AUX)
    Blend: AUG-CC-PVTZ-JKFIT
	 Reference Energy          =    -931.0583282272026509 [Eh]
	 Singles Energy            =      -0.0000000000000000 [Eh]
	 Same-Spin Energy          =      -0.6210409792183622 [Eh]
	 Opposite-Spin Energy      =      -1.8671011785815894 [Eh]
	 Correlation Energy        =      -2.4881421577999516 [Eh]
	 Total Energy              =    -933.5464703850026353 [Eh]

	 ================> DF-SCS-MP2 Energies <==================
	-----------------------------------------------------------
	 SCS Same-Spin Scale       =       0.3333333333333333 [-]
	 SCS Opposite-Spin Scale   =       1.2000000000000000 [-]
	 SCS Same-Spin Energy      =      -0.2070136597394541 [Eh]
	 SCS Opposite-Spin Energy  =      -2.2405214142979073 [Eh]
	 SCS Correlation Energy    =      -2.4475350740373614 [Eh]
	 SCS Total Energy          =    -933.5058633012399696 [Eh]
	-----------------------------------------------------------

  Dipole Moment: [D]
     X:     4.4484      Y:     0.9837      Z:     1.8719     Total:     4.9254

*** Psi4 exiting successfully. Buy a developer a beer!
