                               Psi4 1.4a3.dev225

  ==> Input File <==

--------------------------------------------------------------------------
#psi4
#
memory 32 gb

molecule  {
0 1
  S       -1.9676244    -0.0651052    -0.1353483
  O       -2.3617000    -0.1700640     1.4590810
  O       -2.4286150    -1.2343840    -0.7923790
  O       -2.4725380     1.3090340    -0.5392830
  C       -0.2242900    -0.0021990    -0.0874500
  C        1.8486770    -1.2201060     0.0278510
  C        1.8399080     1.2326580     0.0087760
  C        0.4429230     1.2221080    -0.0627730
  C        0.4524940    -1.2213400    -0.0491660
  C        2.5197880     0.0092800     0.0551460
  C        2.6153160    -2.5166400     0.0331700
  C        2.5970370     2.5347130    -0.0106060
  H       -0.1225000     2.1495790    -0.1127420
  H       -0.1051200    -2.1541630    -0.0856740
  H        3.6080620     0.0137470     0.1195720
  H        2.0290960    -3.3176030     0.4912070
  H        2.8638720    -2.8264950    -0.9873940
  H        3.5515030    -2.4163920     0.5891050
  H        2.8417130     2.8282160    -1.0369270
  H        2.0062320     3.3400050     0.4339970
  H        3.5349660     2.4512730     0.5451920
  H       -2.8050090     0.6644540     1.7194690
units angstrom
no_reorient  #important for SAPT in psi4, default
symmetry c1  #important for SAPT in psi4, default
}

set PROPERTIES_ORIGIN ["COM"]
properties('MP2/aug-cc-pvtz', properties = ['dipole'])
--------------------------------------------------------------------------

    Molecular point group: c1
  Charge       = 0
  Multiplicity = 1
  Basis Set: AUG-CC-PVTZ
    Blend: AUG-CC-PVTZ
  Basis Set: (AUG-CC-PVTZ AUX)
    Blend: AUG-CC-PVTZ-JKFIT

    Orbital Energies [Eh]
    ---------------------

    Doubly Occupied:

       1A    -92.227494     2A    -20.625540     3A    -20.569660
       4A    -20.550289     5A    -11.286948     6A    -11.269056
       7A    -11.268823     8A    -11.265129     9A    -11.264921
      10A    -11.259607    11A    -11.242382    12A    -11.241861
      13A     -9.190964    14A     -6.876485    15A     -6.875283
      16A     -6.874956    17A     -1.492444    18A     -1.386932
      19A     -1.326794    20A     -1.190571    21A     -1.083552
      22A     -1.079957    23A     -0.964388    24A     -0.955639
      25A     -0.928103    26A     -0.821108    27A     -0.812034
      28A     -0.741798    29A     -0.722161    30A     -0.690942
      31A     -0.685334    32A     -0.669216    33A     -0.621711
      34A     -0.604072    35A     -0.602273    36A     -0.593607
      37A     -0.586595    38A     -0.574522    39A     -0.570479
      40A     -0.549541    41A     -0.539565    42A     -0.525072
      43A     -0.509674    44A     -0.504018    45A     -0.498547
      46A     -0.475852    47A     -0.470226    48A     -0.365908
      49A     -0.346797

  @DF-RHF Final Energy:  -931.05104923987835

   => Energetics <=

    Nuclear Repulsion Energy =            830.8935096893726495
    One-Electron Energy =               -2927.1314575954911561
    Two-Electron Energy =                1165.1868986662398129
    Total Energy =                       -931.0510492398784663
  Basis Set: (AUG-CC-PVTZ AUX)
    Blend: AUG-CC-PVTZ-RI
    Molecular point group: c1

    Geometry (in Angstrom), charge = 0, multiplicity = 1:

       Center              X                  Y                   Z               Mass
    ------------   -----------------  -----------------  -----------------  -----------------
         S           -1.879272710112    -0.052163311415    -0.126634807069    31.972071174400
         O           -2.273348310112    -0.157122111415     1.467794492931    15.994914619570
         O           -2.340263310112    -1.221442111415    -0.783665507069    15.994914619570
         O           -2.384186310112     1.321975888585    -0.530569507069    15.994914619570
         C           -0.135938310112     0.010742888585    -0.078736507069    12.000000000000
         C            1.937028689888    -1.207164111415     0.036564492931    12.000000000000
         C            1.928259689888     1.245599888585     0.017489492931    12.000000000000
         C            0.531274689888     1.235049888585    -0.054059507069    12.000000000000
         C            0.540845689888    -1.208398111415    -0.040452507069    12.000000000000
         C            2.608139689888     0.022221888585     0.063859492931    12.000000000000
         C            2.703667689888    -2.503698111415     0.041883492931    12.000000000000
         C            2.685388689888     2.547654888585    -0.001892507069    12.000000000000
         H           -0.034148310112     2.162520888585    -0.104028507069     1.007825032230
         H           -0.016768310112    -2.141221111415    -0.076960507069     1.007825032230
         H            3.696413689888     0.026688888585     0.128285492931     1.007825032230
         H            2.117447689888    -3.304661111415     0.499920492931     1.007825032230
         H            2.952223689888    -2.813553111415    -0.978680507069     1.007825032230
         H            3.639854689888    -2.403450111415     0.597818492931     1.007825032230
         H            2.930064689888     2.841157888585    -1.028213507069     1.007825032230
         H            2.094583689888     3.352946888585     0.442710492931     1.007825032230
         H            3.623317689888     2.464214888585     0.553905492931     1.007825032230
         H           -2.716657310112     0.677395888585     1.728182492931     1.007825032230

  Basis Set: AUG-CC-PVTZ
    Blend: AUG-CC-PVTZ
  Basis Set: (AUG-CC-PVTZ AUX)
    Blend: AUG-CC-PVTZ-JKFIT
	 Reference Energy          =    -931.0510492398783526 [Eh]
	 Singles Energy            =      -0.0000000000000000 [Eh]
	 Same-Spin Energy          =      -0.6214066993638243 [Eh]
	 Opposite-Spin Energy      =      -1.8678736430221414 [Eh]
	 Correlation Energy        =      -2.4892803423859657 [Eh]
	 Total Energy              =    -933.5403295822643486 [Eh]

	 ================> DF-SCS-MP2 Energies <==================
	-----------------------------------------------------------
	 SCS Same-Spin Scale       =       0.3333333333333333 [-]
	 SCS Opposite-Spin Scale   =       1.2000000000000000 [-]
	 SCS Same-Spin Energy      =      -0.2071355664546081 [Eh]
	 SCS Opposite-Spin Energy  =      -2.2414483716265696 [Eh]
	 SCS Correlation Energy    =      -2.4485839380811778 [Eh]
	 SCS Total Energy          =    -933.4996331779594811 [Eh]
	-----------------------------------------------------------

  Dipole Moment: [D]
     X:     4.7461      Y:     0.5398      Z:     1.8854     Total:     5.1353

*** Psi4 exiting successfully. Buy a developer a beer!
