                               Psi4 1.4a3.dev225

  ==> Input File <==

--------------------------------------------------------------------------
#psi4
#
memory 32 gb

molecule  {
0 1
  S       -2.0381605     0.0920407    -0.1331313
  O       -2.3617000    -0.1700640     1.4590810
  O       -2.4286150    -1.2343840    -0.7923790
  O       -2.4725380     1.3090340    -0.5392830
  C       -0.2242900    -0.0021990    -0.0874500
  C        1.8486770    -1.2201060     0.0278510
  C        1.8399080     1.2326580     0.0087760
  C        0.4429230     1.2221080    -0.0627730
  C        0.4524940    -1.2213400    -0.0491660
  C        2.5197880     0.0092800     0.0551460
  C        2.6153160    -2.5166400     0.0331700
  C        2.5970370     2.5347130    -0.0106060
  H       -0.1225000     2.1495790    -0.1127420
  H       -0.1051200    -2.1541630    -0.0856740
  H        3.6080620     0.0137470     0.1195720
  H        2.0290960    -3.3176030     0.4912070
  H        2.8638720    -2.8264950    -0.9873940
  H        3.5515030    -2.4163920     0.5891050
  H        2.8417130     2.8282160    -1.0369270
  H        2.0062320     3.3400050     0.4339970
  H        3.5349660     2.4512730     0.5451920
  H       -2.8050090     0.6644540     1.7194690
units angstrom
no_reorient  #important for SAPT in psi4, default
symmetry c1  #important for SAPT in psi4, default
}

set PROPERTIES_ORIGIN ["COM"]
properties('MP2/aug-cc-pvtz', properties = ['dipole'])
--------------------------------------------------------------------------

    Molecular point group: c1
  Charge       = 0
  Multiplicity = 1
  Basis Set: AUG-CC-PVTZ
    Blend: AUG-CC-PVTZ
  Basis Set: (AUG-CC-PVTZ AUX)
    Blend: AUG-CC-PVTZ-JKFIT

    Orbital Energies [Eh]
    ---------------------

    Doubly Occupied:

       1A    -92.225386     2A    -20.635256     3A    -20.593268
       4A    -20.542244     5A    -11.284162     6A    -11.264138
       7A    -11.263607     8A    -11.257854     9A    -11.256082
      10A    -11.251927    11A    -11.239585    12A    -11.237275
      13A     -9.190638    14A     -6.876398    15A     -6.875209
      16A     -6.874013    17A     -1.532851    18A     -1.410769
      19A     -1.321197    20A     -1.182297    21A     -1.078069
      22A     -1.066031    23A     -0.958645    24A     -0.949934
      25A     -0.915373    26A     -0.816808    27A     -0.805570
      28A     -0.744987    29A     -0.729628    30A     -0.703293
      31A     -0.686392    32A     -0.671245    33A     -0.643985
      34A     -0.600256    35A     -0.598197    36A     -0.588327
      37A     -0.582832    38A     -0.580398    39A     -0.567325
      40A     -0.550022    41A     -0.544195    42A     -0.538044
      43A     -0.506834    44A     -0.504578    45A     -0.493862
      46A     -0.473099    47A     -0.455801    48A     -0.357721
      49A     -0.341342

  @DF-RHF Final Energy:  -931.03380949136647

   => Energetics <=

    Nuclear Repulsion Energy =            829.8753641166019861
    One-Electron Energy =               -2925.0844520535447373
    Two-Electron Energy =                1164.1752784455759411
    Total Energy =                       -931.0338094913665827
  Basis Set: (AUG-CC-PVTZ AUX)
    Blend: AUG-CC-PVTZ-RI
    Molecular point group: c1

    Geometry (in Angstrom), charge = 0, multiplicity = 1:

       Center              X                  Y                   Z               Mass
    ------------   -----------------  -----------------  -----------------  -----------------
         S           -1.937686443798     0.077975422544    -0.124798821700    31.972071174400
         O           -2.261225943798    -0.184129277456     1.467413478300    15.994914619570
         O           -2.328140943798    -1.248449277456    -0.784046521700    15.994914619570
         O           -2.372063943798     1.294968722544    -0.530950521700    15.994914619570
         C           -0.123815943798    -0.016264277456    -0.079117521700    12.000000000000
         C            1.949151056202    -1.234171277456     0.036183478300    12.000000000000
         C            1.940382056202     1.218592722544     0.017108478300    12.000000000000
         C            0.543397056202     1.208042722544    -0.054440521700    12.000000000000
         C            0.552968056202    -1.235405277456    -0.040833521700    12.000000000000
         C            2.620262056202    -0.004785277456     0.063478478300    12.000000000000
         C            2.715790056202    -2.530705277456     0.041502478300    12.000000000000
         C            2.697511056202     2.520647722544    -0.002273521700    12.000000000000
         H           -0.022025943798     2.135513722544    -0.104409521700     1.007825032230
         H           -0.004645943798    -2.168228277456    -0.077341521700     1.007825032230
         H            3.708536056202    -0.000318277456     0.127904478300     1.007825032230
         H            2.129570056202    -3.331668277456     0.499539478300     1.007825032230
         H            2.964346056202    -2.840560277456    -0.979061521700     1.007825032230
         H            3.651977056202    -2.430457277456     0.597437478300     1.007825032230
         H            2.942187056202     2.814150722544    -1.028594521700     1.007825032230
         H            2.106706056202     3.325939722544     0.442329478300     1.007825032230
         H            3.635440056202     2.437207722544     0.553524478300     1.007825032230
         H           -2.704534943798     0.650388722544     1.727801478300     1.007825032230

  Basis Set: AUG-CC-PVTZ
    Blend: AUG-CC-PVTZ
  Basis Set: (AUG-CC-PVTZ AUX)
    Blend: AUG-CC-PVTZ-JKFIT
	 Reference Energy          =    -931.0338094913664690 [Eh]
	 Singles Energy            =      -0.0000000000000000 [Eh]
	 Same-Spin Energy          =      -0.6205613947581101 [Eh]
	 Opposite-Spin Energy      =      -1.8669747406692210 [Eh]
	 Correlation Energy        =      -2.4875361354273311 [Eh]
	 Total Energy              =    -933.5213456267938454 [Eh]

	 ================> DF-SCS-MP2 Energies <==================
	-----------------------------------------------------------
	 SCS Same-Spin Scale       =       0.3333333333333333 [-]
	 SCS Opposite-Spin Scale   =       1.2000000000000000 [-]
	 SCS Same-Spin Energy      =      -0.2068537982527034 [Eh]
	 SCS Opposite-Spin Energy  =      -2.2403696888030651 [Eh]
	 SCS Correlation Energy    =      -2.4472234870557683 [Eh]
	 SCS Total Energy          =    -933.4810329784222631 [Eh]
	-----------------------------------------------------------

  Dipole Moment: [D]
     X:     3.8273      Y:     1.9137      Z:     1.9678     Total:     4.7099

*** Psi4 exiting successfully. Buy a developer a beer!
