                               Psi4 1.4a3.dev225

  ==> Input File <==

--------------------------------------------------------------------------
#psi4
#
memory 32 gb

molecule  {
0 1
  S       -1.9906940    -0.0125100    -0.1365530
  O       -2.3617000    -0.1700640     1.4590810
  O       -2.4286150    -1.2343840    -0.7923790
  O       -2.4725380     1.3090340    -0.5392830
  C       -0.2242900    -0.0021990    -0.0874500
  C        1.8486770    -1.2201060     0.0278510
  C        1.8399080     1.2326580     0.0087760
  C        0.4429230     1.2221080    -0.0627730
  C        0.4524940    -1.2213400    -0.0491660
  C        2.5197880     0.0092800     0.0551460
  C        2.6153160    -2.5166400     0.0331700
  C        2.5970370     2.5347130    -0.0106060
  H       -0.1225000     2.1495790    -0.1127420
  H       -0.1051200    -2.1541630    -0.0856740
  H        3.6080620     0.0137470     0.1195720
  H        2.0290960    -3.3176030     0.4912070
  H        2.9008692    -2.8260948    -0.9777890
  H        3.5515030    -2.4163920     0.5891050
  H        2.8417130     2.8282160    -1.0369270
  H        2.0062320     3.3400050     0.4339970
  H        3.5349660     2.4512730     0.5451920
  H       -2.8050090     0.6644540     1.7194690
units angstrom
no_reorient  #important for SAPT in psi4, default
symmetry c1  #important for SAPT in psi4, default
}

set PROPERTIES_ORIGIN ["COM"]
properties('MP2/aug-cc-pvtz', properties = ['dipole'])
--------------------------------------------------------------------------

    Molecular point group: c1
  Charge       = 0
  Multiplicity = 1
  Basis Set: AUG-CC-PVTZ
    Blend: AUG-CC-PVTZ
  Basis Set: (AUG-CC-PVTZ AUX)
    Blend: AUG-CC-PVTZ-JKFIT

    Orbital Energies [Eh]
    ---------------------

    Doubly Occupied:

       1A    -92.228799     2A    -20.628664     3A    -20.565007
       4A    -20.560778     5A    -11.286091     6A    -11.267490
       7A    -11.267273     8A    -11.262937     9A    -11.262178
      10A    -11.257254    11A    -11.241523    12A    -11.240254
      13A     -9.191704    14A     -6.877324    15A     -6.876025
      16A     -6.875787    17A     -1.492739    18A     -1.379101
      19A     -1.351458    20A     -1.187931    21A     -1.081576
      22A     -1.075471    23A     -0.962422    24A     -0.953855
      25A     -0.924082    26A     -0.819249    27A     -0.810082
      28A     -0.740166    29A     -0.722945    30A     -0.691264
      31A     -0.683729    32A     -0.670724    33A     -0.627856
      34A     -0.602780    35A     -0.600426    36A     -0.592135
      37A     -0.584383    38A     -0.574103    39A     -0.569272
      40A     -0.548311    41A     -0.537640    42A     -0.523488
      43A     -0.508444    44A     -0.506777    45A     -0.501099
      46A     -0.483987    47A     -0.473597    48A     -0.363323
      49A     -0.345182

  @DF-RHF Final Energy:  -931.05729261505564

   => Energetics <=

    Nuclear Repulsion Energy =            830.4312094585275190
    One-Electron Energy =               -2926.2196388507727534
    Two-Electron Energy =                1164.7311367771894766
    Total Energy =                       -931.0572926150557578
  Basis Set: (AUG-CC-PVTZ AUX)
    Blend: AUG-CC-PVTZ-RI
    Molecular point group: c1

    Geometry (in Angstrom), charge = 0, multiplicity = 1:

       Center              X                  Y                   Z               Mass
    ------------   -----------------  -----------------  -----------------  -----------------
         S           -1.898577986502    -0.008609314514    -0.127684500836    31.972071174400
         O           -2.269583986502    -0.166163314514     1.467949499164    15.994914619570
         O           -2.336498986502    -1.230483314514    -0.783510500836    15.994914619570
         O           -2.380421986502     1.312934685486    -0.530414500836    15.994914619570
         C           -0.132173986502     0.001701685486    -0.078581500836    12.000000000000
         C            1.940793013498    -1.216205314514     0.036719499164    12.000000000000
         C            1.932024013498     1.236558685486     0.017644499164    12.000000000000
         C            0.535039013498     1.226008685486    -0.053904500836    12.000000000000
         C            0.544610013498    -1.217439314514    -0.040297500836    12.000000000000
         C            2.611904013498     0.013180685486     0.064014499164    12.000000000000
         C            2.707432013498    -2.512739314514     0.042038499164    12.000000000000
         C            2.689153013498     2.538613685486    -0.001737500836    12.000000000000
         H           -0.030383986502     2.153479685486    -0.103873500836     1.007825032230
         H           -0.013003986502    -2.150262314514    -0.076805500836     1.007825032230
         H            3.700178013498     0.017647685486     0.128440499164     1.007825032230
         H            2.121212013498    -3.313702314514     0.500075499164     1.007825032230
         H            2.992985213498    -2.822194114514    -0.968920500836     1.007825032230
         H            3.643619013498    -2.412491314514     0.597973499164     1.007825032230
         H            2.933829013498     2.832116685486    -1.028058500836     1.007825032230
         H            2.098348013498     3.343905685486     0.442865499164     1.007825032230
         H            3.627082013498     2.455173685486     0.554060499164     1.007825032230
         H           -2.712892986502     0.668354685486     1.728337499164     1.007825032230

  Basis Set: AUG-CC-PVTZ
    Blend: AUG-CC-PVTZ
  Basis Set: (AUG-CC-PVTZ AUX)
    Blend: AUG-CC-PVTZ-JKFIT
	 Reference Energy          =    -931.0572926150556441 [Eh]
	 Singles Energy            =      -0.0000000000000000 [Eh]
	 Same-Spin Energy          =      -0.6212952975865996 [Eh]
	 Opposite-Spin Energy      =      -1.8676641580046351 [Eh]
	 Correlation Energy        =      -2.4889594555912349 [Eh]
	 Total Energy              =    -933.5462520706469149 [Eh]

	 ================> DF-SCS-MP2 Energies <==================
	-----------------------------------------------------------
	 SCS Same-Spin Scale       =       0.3333333333333333 [-]
	 SCS Opposite-Spin Scale   =       1.2000000000000000 [-]
	 SCS Same-Spin Energy      =      -0.2070984325288665 [Eh]
	 SCS Opposite-Spin Energy  =      -2.2411969896055619 [Eh]
	 SCS Correlation Energy    =      -2.4482954221344286 [Eh]
	 SCS Total Energy          =    -933.5055880371900230 [Eh]
	-----------------------------------------------------------

  Dipole Moment: [D]
     X:     4.4380      Y:     1.0118      Z:     1.8903     Total:     4.9287

*** Psi4 exiting successfully. Buy a developer a beer!
