                               Psi4 1.4a3.dev225

  ==> Input File <==

--------------------------------------------------------------------------
#psi4
#
memory 32 gb

molecule  {
0 1
  S       -1.9906940    -0.0125100    -0.1365530
  O       -2.3617000    -0.1700640     1.4590810
  O       -2.4286150    -1.2343840    -0.7923790
  O       -2.4725380     1.3090340    -0.5392830
  C       -0.2242900    -0.0021990    -0.0874500
  C        1.8486770    -1.2201060     0.0278510
  C        1.8399080     1.2326580     0.0087760
  C        0.4429230     1.2221080    -0.0627730
  C        0.4524940    -1.2213400    -0.0491660
  C        2.5197880     0.0092800     0.0551460
  C        2.6153160    -2.5166400     0.0331700
  C        2.5970370     2.5347130    -0.0106060
  H       -0.1225000     2.1495790    -0.1127420
  H       -0.1051200    -2.1541630    -0.0856740
  H        3.6080620     0.0137470     0.1195720
  H        2.0290960    -3.3176030     0.4912070
  H        2.8638720    -2.8264950    -0.9873940
  H        3.5515030    -2.4163920     0.5891050
  H        2.8417130     2.8282160    -1.0369270
  H        1.9521913     3.4136647     0.4746646
  H        3.5349660     2.4512730     0.5451920
  H       -2.8050090     0.6644540     1.7194690
units angstrom
no_reorient  #important for SAPT in psi4, default
symmetry c1  #important for SAPT in psi4, default
}

set PROPERTIES_ORIGIN ["COM"]
properties('MP2/aug-cc-pvtz', properties = ['dipole'])
--------------------------------------------------------------------------

    Molecular point group: c1
  Charge       = 0
  Multiplicity = 1
  Basis Set: AUG-CC-PVTZ
    Blend: AUG-CC-PVTZ
  Basis Set: (AUG-CC-PVTZ AUX)
    Blend: AUG-CC-PVTZ-JKFIT

    Orbital Energies [Eh]
    ---------------------

    Doubly Occupied:

       1A    -92.228909     2A    -20.628743     3A    -20.565073
       4A    -20.560901     5A    -11.286257     6A    -11.268344
       7A    -11.267530     8A    -11.263029     9A    -11.262386
      10A    -11.257882    11A    -11.253096    12A    -11.240656
      13A     -9.191814    14A     -6.877433    15A     -6.876135
      16A     -6.875896    17A     -1.492828    18A     -1.379184
      19A     -1.351546    20A     -1.188175    21A     -1.080946
      22A     -1.075457    23A     -0.959684    24A     -0.951149
      25A     -0.924226    26A     -0.819218    27A     -0.808136
      28A     -0.740080    29A     -0.722912    30A     -0.691297
      31A     -0.683561    32A     -0.670444    33A     -0.627779
      34A     -0.602405    35A     -0.599752    36A     -0.592173
      37A     -0.584341    38A     -0.574446    39A     -0.562994
      40A     -0.541881    41A     -0.537429    42A     -0.523554
      43A     -0.507269    44A     -0.506296    45A     -0.500377
      46A     -0.484075    47A     -0.473857    48A     -0.363727
      49A     -0.345167

  @DF-RHF Final Energy:  -931.05080427567032

   => Energetics <=

    Nuclear Repulsion Energy =            830.0704423723174159
    One-Electron Energy =               -2925.5015952009844113
    Two-Electron Energy =                1164.3803485529967929
    Total Energy =                       -931.0508042756703162
  Basis Set: (AUG-CC-PVTZ AUX)
    Blend: AUG-CC-PVTZ-RI
    Molecular point group: c1

    Geometry (in Angstrom), charge = 0, multiplicity = 1:

       Center              X                  Y                   Z               Mass
    ------------   -----------------  -----------------  -----------------  -----------------
         S           -1.898084798434    -0.009006190005    -0.127852779143    31.972071174400
         O           -2.269090798434    -0.166560190005     1.467781220857    15.994914619570
         O           -2.336005798434    -1.230880190005    -0.783678779143    15.994914619570
         O           -2.379928798434     1.312537809995    -0.530582779143    15.994914619570
         C           -0.131680798434     0.001304809995    -0.078749779143    12.000000000000
         C            1.941286201566    -1.216602190005     0.036551220857    12.000000000000
         C            1.932517201566     1.236161809995     0.017476220857    12.000000000000
         C            0.535532201566     1.225611809995    -0.054072779143    12.000000000000
         C            0.545103201566    -1.217836190005    -0.040465779143    12.000000000000
         C            2.612397201566     0.012783809995     0.063846220857    12.000000000000
         C            2.707925201566    -2.513136190005     0.041870220857    12.000000000000
         C            2.689646201566     2.538216809995    -0.001905779143    12.000000000000
         H           -0.029890798434     2.153082809995    -0.104041779143     1.007825032230
         H           -0.012510798434    -2.150659190005    -0.076973779143     1.007825032230
         H            3.700671201566     0.017250809995     0.128272220857     1.007825032230
         H            2.121705201566    -3.314099190005     0.499907220857     1.007825032230
         H            2.956481201566    -2.822991190005    -0.978693779143     1.007825032230
         H            3.644112201566    -2.412888190005     0.597805220857     1.007825032230
         H            2.934322201566     2.831719809995    -1.028226779143     1.007825032230
         H            2.044800501566     3.417168509995     0.483364820857     1.007825032230
         H            3.627575201566     2.454776809995     0.553892220857     1.007825032230
         H           -2.712399798434     0.667957809995     1.728169220857     1.007825032230

  Basis Set: AUG-CC-PVTZ
    Blend: AUG-CC-PVTZ
  Basis Set: (AUG-CC-PVTZ AUX)
    Blend: AUG-CC-PVTZ-JKFIT
	 Reference Energy          =    -931.0508042756703162 [Eh]
	 Singles Energy            =      -0.0000000000000000 [Eh]
	 Same-Spin Energy          =      -0.6213241888312143 [Eh]
	 Opposite-Spin Energy      =      -1.8684398811332510 [Eh]
	 Correlation Energy        =      -2.4897640699644654 [Eh]
	 Total Energy              =    -933.5405683456348243 [Eh]

	 ================> DF-SCS-MP2 Energies <==================
	-----------------------------------------------------------
	 SCS Same-Spin Scale       =       0.3333333333333333 [-]
	 SCS Opposite-Spin Scale   =       1.2000000000000000 [-]
	 SCS Same-Spin Energy      =      -0.2071080629437381 [Eh]
	 SCS Opposite-Spin Energy  =      -2.2421278573599013 [Eh]
	 SCS Correlation Energy    =      -2.4492359203036393 [Eh]
	 SCS Total Energy          =    -933.5000401959739520 [Eh]
	-----------------------------------------------------------

  Dipole Moment: [D]
     X:     4.4331      Y:     0.9484      Z:     1.8740     Total:     4.9055

*** Psi4 exiting successfully. Buy a developer a beer!
