                               Psi4 1.4a3.dev225

  ==> Input File <==

--------------------------------------------------------------------------
#psi4
#
memory 32 gb

molecule  {
0 1
  S       -1.9906940    -0.0125100    -0.1365530
  O       -2.3617000    -0.1700640     1.4590810
  O       -2.4286150    -1.2343840    -0.7923790
  O       -2.4725380     1.3090340    -0.5392830
  C       -0.2242900    -0.0021990    -0.0874500
  C        1.8486770    -1.2201060     0.0278510
  C        1.8399080     1.2326580     0.0087760
  C        0.4429230     1.2221080    -0.0627730
  C        0.4524940    -1.2213400    -0.0491660
  C        2.5197880     0.0092800     0.0551460
  C        2.6153160    -2.5166400     0.0331700
  C        2.5970370     2.5347130    -0.0106060
  H       -0.1225000     2.1495790    -0.1127420
  H       -0.1051200    -2.1541630    -0.0856740
  H        3.6080620     0.0137470     0.1195720
  H        2.0290960    -3.3176030     0.4912070
  H        2.8638720    -2.8264950    -0.9873940
  H        3.5515030    -2.4163920     0.5891050
  H        2.8417130     2.8282160    -1.0369270
  H        2.0062320     3.3400050     0.4339970
  H        3.5349660     2.4512730     0.5451920
  H       -2.8502365     0.7495936     1.7460344
units angstrom
no_reorient  #important for SAPT in psi4, default
symmetry c1  #important for SAPT in psi4, default
}

set PROPERTIES_ORIGIN ["COM"]
properties('MP2/aug-cc-pvtz', properties = ['dipole'])
--------------------------------------------------------------------------

    Molecular point group: c1
  Charge       = 0
  Multiplicity = 1
  Basis Set: AUG-CC-PVTZ
    Blend: AUG-CC-PVTZ
  Basis Set: (AUG-CC-PVTZ AUX)
    Blend: AUG-CC-PVTZ-JKFIT

    Orbital Energies [Eh]
    ---------------------

    Doubly Occupied:

       1A    -92.226902     2A    -20.633850     3A    -20.563344
       4A    -20.559571     5A    -11.285301     6A    -11.266885
       7A    -11.266528     8A    -11.262093     9A    -11.261320
      10A    -11.256487    11A    -11.241126    12A    -11.239909
      13A     -9.189831    14A     -6.875426    15A     -6.874163
      16A     -6.873931    17A     -1.486567    18A     -1.363227
      19A     -1.350035    20A     -1.187152    21A     -1.081080
      22A     -1.074261    23A     -0.961707    24A     -0.953178
      25A     -0.918875    26A     -0.811902    27A     -0.809023
      28A     -0.728874    29A     -0.718055    30A     -0.689050
      31A     -0.682426    32A     -0.667307    33A     -0.622321
      34A     -0.601852    35A     -0.600333    36A     -0.591181
      37A     -0.584900    38A     -0.571913    39A     -0.567658
      40A     -0.547511    41A     -0.536790    42A     -0.521674
      43A     -0.507583    44A     -0.505064    45A     -0.499545
      46A     -0.481969    47A     -0.472303    48A     -0.362504
      49A     -0.344461

  @DF-RHF Final Energy:  -931.04429948258860

   => Energetics <=

    Nuclear Repulsion Energy =            829.8296141463563345
    One-Electron Energy =               -2925.1899332801012861
    Two-Electron Energy =                1164.3160196511566937
    Total Energy =                       -931.0442994825884853
  Basis Set: (AUG-CC-PVTZ AUX)
    Blend: AUG-CC-PVTZ-RI
    Molecular point group: c1

    Geometry (in Angstrom), charge = 0, multiplicity = 1:

       Center              X                  Y                   Z               Mass
    ------------   -----------------  -----------------  -----------------  -----------------
         S           -1.898132543000    -0.009068381133    -0.127776381986    31.972071174400
         O           -2.269138543000    -0.166622381133     1.467857618014    15.994914619570
         O           -2.336053543000    -1.230942381133    -0.783602381986    15.994914619570
         O           -2.379976543000     1.312475618867    -0.530506381986    15.994914619570
         C           -0.131728543000     0.001242618867    -0.078673381986    12.000000000000
         C            1.941238457000    -1.216664381133     0.036627618014    12.000000000000
         C            1.932469457000     1.236099618867     0.017552618014    12.000000000000
         C            0.535484457000     1.225549618867    -0.053996381986    12.000000000000
         C            0.545055457000    -1.217898381133    -0.040389381986    12.000000000000
         C            2.612349457000     0.012721618867     0.063922618014    12.000000000000
         C            2.707877457000    -2.513198381133     0.041946618014    12.000000000000
         C            2.689598457000     2.538154618867    -0.001829381986    12.000000000000
         H           -0.029938543000     2.153020618867    -0.103965381986     1.007825032230
         H           -0.012558543000    -2.150721381133    -0.076897381986     1.007825032230
         H            3.700623457000     0.017188618867     0.128348618014     1.007825032230
         H            2.121657457000    -3.314161381133     0.499983618014     1.007825032230
         H            2.956433457000    -2.823053381133    -0.978617381986     1.007825032230
         H            3.644064457000    -2.412950381133     0.597881618014     1.007825032230
         H            2.934274457000     2.831657618867    -1.028150381986     1.007825032230
         H            2.098793457000     3.343446618867     0.442773618014     1.007825032230
         H            3.627527457000     2.454714618867     0.553968618014     1.007825032230
         H           -2.757675043000     0.753035218867     1.754811018014     1.007825032230

  Basis Set: AUG-CC-PVTZ
    Blend: AUG-CC-PVTZ
  Basis Set: (AUG-CC-PVTZ AUX)
    Blend: AUG-CC-PVTZ-JKFIT
	 Reference Energy          =    -931.0442994825885989 [Eh]
	 Singles Energy            =      -0.0000000000000000 [Eh]
	 Same-Spin Energy          =      -0.6225644288554113 [Eh]
	 Opposite-Spin Energy      =      -1.8707131799389909 [Eh]
	 Correlation Energy        =      -2.4932776087944024 [Eh]
	 Total Energy              =    -933.5375770913830138 [Eh]

	 ================> DF-SCS-MP2 Energies <==================
	-----------------------------------------------------------
	 SCS Same-Spin Scale       =       0.3333333333333333 [-]
	 SCS Opposite-Spin Scale   =       1.2000000000000000 [-]
	 SCS Same-Spin Energy      =      -0.2075214762851371 [Eh]
	 SCS Opposite-Spin Energy  =      -2.2448558159267891 [Eh]
	 SCS Correlation Energy    =      -2.4523772922119260 [Eh]
	 SCS Total Energy          =    -933.4966767748005623 [Eh]
	-----------------------------------------------------------

  Dipole Moment: [D]
     X:     4.3277      Y:     1.1047      Z:     1.9745     Total:     4.8835

*** Psi4 exiting successfully. Buy a developer a beer!
