                               Psi4 1.4a3.dev225

  ==> Input File <==

--------------------------------------------------------------------------
#psi4
#
memory 32 gb

molecule  {
0 1
  S       -2.0624997     0.1438688    -0.1285090
  O       -2.3617000    -0.1700640     1.4590810
  O       -2.4286150    -1.2343840    -0.7923790
  O       -2.4725380     1.3090340    -0.5392830
  C       -0.2242900    -0.0021990    -0.0874500
  C        1.8486770    -1.2201060     0.0278510
  C        1.8399080     1.2326580     0.0087760
  C        0.4429230     1.2221080    -0.0627730
  C        0.4524940    -1.2213400    -0.0491660
  C        2.5197880     0.0092800     0.0551460
  C        2.6153160    -2.5166400     0.0331700
  C        2.5970370     2.5347130    -0.0106060
  H       -0.1225000     2.1495790    -0.1127420
  H       -0.1051200    -2.1541630    -0.0856740
  H        3.6080620     0.0137470     0.1195720
  H        2.0290960    -3.3176030     0.4912070
  H        2.8638720    -2.8264950    -0.9873940
  H        3.5515030    -2.4163920     0.5891050
  H        2.8417130     2.8282160    -1.0369270
  H        2.0062320     3.3400050     0.4339970
  H        3.5349660     2.4512730     0.5451920
  H       -2.8050090     0.6644540     1.7194690
units angstrom
no_reorient  #important for SAPT in psi4, default
symmetry c1  #important for SAPT in psi4, default
}

set PROPERTIES_ORIGIN ["COM"]
properties('MP2/aug-cc-pvtz', properties = ['dipole'])
--------------------------------------------------------------------------

    Molecular point group: c1
  Charge       = 0
  Multiplicity = 1
  Basis Set: AUG-CC-PVTZ
    Blend: AUG-CC-PVTZ
  Basis Set: (AUG-CC-PVTZ AUX)
    Blend: AUG-CC-PVTZ-JKFIT

    Orbital Energies [Eh]
    ---------------------

    Doubly Occupied:

       1A    -92.220625     2A    -20.638766     3A    -20.606224
       4A    -20.533084     5A    -11.283057     6A    -11.262444
       7A    -11.261812     8A    -11.255310     9A    -11.253044
      10A    -11.249288    11A    -11.238598    12A    -11.235719
      13A     -9.189118    14A     -6.875414    15A     -6.873227
      16A     -6.871797    17A     -1.569765    18A     -1.422227
      19A     -1.296802    20A     -1.179480    21A     -1.076268
      22A     -1.061450    23A     -0.956782    24A     -0.948033
      25A     -0.911120    26A     -0.816974    27A     -0.803497
      28A     -0.752402    29A     -0.737166    30A     -0.718374
      31A     -0.689097    32A     -0.668649    33A     -0.652573
      34A     -0.601276    35A     -0.597067    36A     -0.589060
      37A     -0.584279    38A     -0.580862    39A     -0.566204
      40A     -0.561277    41A     -0.543561    42A     -0.536732
      43A     -0.503491    44A     -0.502432    45A     -0.486105
      46A     -0.461479    47A     -0.443444    48A     -0.354826
      49A     -0.339401

  @DF-RHF Final Energy:  -930.99933305157481

   => Energetics <=

    Nuclear Repulsion Energy =            829.7308050431769288
    One-Electron Energy =               -2924.7409141026246289
    Two-Electron Energy =                1164.0107760078726642
    Total Energy =                       -930.9993330515749221
  Basis Set: (AUG-CC-PVTZ AUX)
    Blend: AUG-CC-PVTZ-RI
    Molecular point group: c1

    Geometry (in Angstrom), charge = 0, multiplicity = 1:

       Center              X                  Y                   Z               Mass
    ------------   -----------------  -----------------  -----------------  -----------------
         S           -1.957842697786     0.120896321641    -0.120970912286    31.972071174400
         O           -2.257042997786    -0.193036478359     1.466619087714    15.994914619570
         O           -2.323957997786    -1.257356478359    -0.784840912286    15.994914619570
         O           -2.367880997786     1.286061521641    -0.531744912286    15.994914619570
         C           -0.119632997786    -0.025171478359    -0.079911912286    12.000000000000
         C            1.953334002214    -1.243078478359     0.035389087714    12.000000000000
         C            1.944565002214     1.209685521641     0.016314087714    12.000000000000
         C            0.547580002214     1.199135521641    -0.055234912286    12.000000000000
         C            0.557151002214    -1.244312478359    -0.041627912286    12.000000000000
         C            2.624445002214    -0.013692478359     0.062684087714    12.000000000000
         C            2.719973002214    -2.539612478359     0.040708087714    12.000000000000
         C            2.701694002214     2.511740521641    -0.003067912286    12.000000000000
         H           -0.017842997786     2.126606521641    -0.105203912286     1.007825032230
         H           -0.000462997786    -2.177135478359    -0.078135912286     1.007825032230
         H            3.712719002214    -0.009225478359     0.127110087714     1.007825032230
         H            2.133753002214    -3.340575478359     0.498745087714     1.007825032230
         H            2.968529002214    -2.849467478359    -0.979855912286     1.007825032230
         H            3.656160002214    -2.439364478359     0.596643087714     1.007825032230
         H            2.946370002214     2.805243521641    -1.029388912286     1.007825032230
         H            2.110889002214     3.317032521641     0.441535087714     1.007825032230
         H            3.639623002214     2.428300521641     0.552730087714     1.007825032230
         H           -2.700351997786     0.641481521641     1.727007087714     1.007825032230

  Basis Set: AUG-CC-PVTZ
    Blend: AUG-CC-PVTZ
  Basis Set: (AUG-CC-PVTZ AUX)
    Blend: AUG-CC-PVTZ-JKFIT
	 Reference Energy          =    -930.9993330515748085 [Eh]
	 Singles Energy            =      -0.0000000000000000 [Eh]
	 Same-Spin Energy          =      -0.6199859083281103 [Eh]
	 Opposite-Spin Energy      =      -1.8665244710168798 [Eh]
	 Correlation Energy        =      -2.4865103793449901 [Eh]
	 Total Energy              =    -933.4858434309197719 [Eh]

	 ================> DF-SCS-MP2 Energies <==================
	-----------------------------------------------------------
	 SCS Same-Spin Scale       =       0.3333333333333333 [-]
	 SCS Opposite-Spin Scale   =       1.2000000000000000 [-]
	 SCS Same-Spin Energy      =      -0.2066619694427034 [Eh]
	 SCS Opposite-Spin Energy  =      -2.2398293652202557 [Eh]
	 SCS Correlation Energy    =      -2.4464913346629591 [Eh]
	 SCS Total Energy          =    -933.4458243862377458 [Eh]
	-----------------------------------------------------------

  Dipole Moment: [D]
     X:     3.5448      Y:     2.3629      Z:     2.0415     Total:     4.7241

*** Psi4 exiting successfully. Buy a developer a beer!
