                               Psi4 1.4a3.dev225

  ==> Input File <==

--------------------------------------------------------------------------
#psi4
#
memory 32 gb

molecule  {
0 1
  S       -1.9906940    -0.0125100    -0.1365530
  O       -2.3617000    -0.1700640     1.4590810
  O       -2.4286150    -1.2343840    -0.7923790
  O       -2.4725380     1.3090340    -0.5392830
  C       -0.2242900    -0.0021990    -0.0874500
  C        1.8486770    -1.2201060     0.0278510
  C        1.8399080     1.2326580     0.0087760
  C        0.6426555     1.2236164    -0.0525434
  C        0.4524940    -1.2213400    -0.0491660
  C        2.5197880     0.0092800     0.0551460
  C        2.6153160    -2.5166400     0.0331700
  C        2.5970370     2.5347130    -0.0106060
  H       -0.1225000     2.1495790    -0.1127420
  H       -0.1051200    -2.1541630    -0.0856740
  H        3.6080620     0.0137470     0.1195720
  H        2.0290960    -3.3176030     0.4912070
  H        2.8638720    -2.8264950    -0.9873940
  H        3.5515030    -2.4163920     0.5891050
  H        2.8417130     2.8282160    -1.0369270
  H        2.0062320     3.3400050     0.4339970
  H        3.5349660     2.4512730     0.5451920
  H       -2.8050090     0.6644540     1.7194690
units angstrom
no_reorient  #important for SAPT in psi4, default
symmetry c1  #important for SAPT in psi4, default
}

set PROPERTIES_ORIGIN ["COM"]
properties('MP2/aug-cc-pvtz', properties = ['dipole'])
--------------------------------------------------------------------------

    Molecular point group: c1
  Charge       = 0
  Multiplicity = 1
  Basis Set: AUG-CC-PVTZ
    Blend: AUG-CC-PVTZ
  Basis Set: (AUG-CC-PVTZ AUX)
    Blend: AUG-CC-PVTZ-JKFIT

    Orbital Energies [Eh]
    ---------------------

    Doubly Occupied:

       1A    -92.233182     2A    -20.629740     3A    -20.565874
       4A    -20.563550     5A    -11.288715     6A    -11.270387
       7A    -11.265380     8A    -11.261339     9A    -11.253171
      10A    -11.240799    11A    -11.238465    12A    -11.236078
      13A     -9.195323    14A     -6.881016    15A     -6.879812
      16A     -6.879439    17A     -1.493867    18A     -1.380308
      19A     -1.352767    20A     -1.202979    21A     -1.102988
      22A     -1.062355    23A     -0.964769    24A     -0.952372
      25A     -0.929181    26A     -0.828852    27A     -0.800657
      28A     -0.742198    29A     -0.719161    30A     -0.691959
      31A     -0.682929    32A     -0.673477    33A     -0.628986
      34A     -0.605705    35A     -0.605237    36A     -0.586992
      37A     -0.581709    38A     -0.574057    39A     -0.566731
      40A     -0.545676    41A     -0.537794    42A     -0.524520
      43A     -0.511636    44A     -0.504206    45A     -0.486811
      46A     -0.482855    47A     -0.470055    48A     -0.377876
      49A     -0.347752

  @DF-RHF Final Energy:  -930.99547588277187

   => Energetics <=

    Nuclear Repulsion Energy =            830.8749886259016648
    One-Electron Energy =               -2926.9375547271124560
    Two-Electron Energy =                1165.0670902184390343
    Total Energy =                       -930.9954758827718706
  Basis Set: (AUG-CC-PVTZ AUX)
    Blend: AUG-CC-PVTZ-RI
    Molecular point group: c1

    Geometry (in Angstrom), charge = 0, multiplicity = 1:

       Center              X                  Y                   Z               Mass
    ------------   -----------------  -----------------  -----------------  -----------------
         S           -1.911261097029    -0.008704444259    -0.128292316574    31.972071174400
         O           -2.282267097029    -0.166258444259     1.467341683426    15.994914619570
         O           -2.349182097029    -1.230578444259    -0.784118316574    15.994914619570
         O           -2.393105097029     1.312839555741    -0.531022316574    15.994914619570
         C           -0.144857097029     0.001606555741    -0.079189316574    12.000000000000
         C            1.928109902971    -1.216300444259     0.036111683426    12.000000000000
         C            1.919340902971     1.236463555741     0.017036683426    12.000000000000
         C            0.722088402971     1.227421955741    -0.044282716574    12.000000000000
         C            0.531926902971    -1.217534444259    -0.040905316574    12.000000000000
         C            2.599220902971     0.013085555741     0.063406683426    12.000000000000
         C            2.694748902971    -2.512834444259     0.041430683426    12.000000000000
         C            2.676469902971     2.538518555741    -0.002345316574    12.000000000000
         H           -0.043067097029     2.153384555741    -0.104481316574     1.007825032230
         H           -0.025687097029    -2.150357444259    -0.077413316574     1.007825032230
         H            3.687494902971     0.017552555741     0.127832683426     1.007825032230
         H            2.108528902971    -3.313797444259     0.499467683426     1.007825032230
         H            2.943304902971    -2.822689444259    -0.979133316574     1.007825032230
         H            3.630935902971    -2.412586444259     0.597365683426     1.007825032230
         H            2.921145902971     2.832021555741    -1.028666316574     1.007825032230
         H            2.085664902971     3.343810555741     0.442257683426     1.007825032230
         H            3.614398902971     2.455078555741     0.553452683426     1.007825032230
         H           -2.725576097029     0.668259555741     1.727729683426     1.007825032230

  Basis Set: AUG-CC-PVTZ
    Blend: AUG-CC-PVTZ
  Basis Set: (AUG-CC-PVTZ AUX)
    Blend: AUG-CC-PVTZ-JKFIT
	 Reference Energy          =    -930.9954758827718706 [Eh]
	 Singles Energy            =      -0.0000000000000000 [Eh]
	 Same-Spin Energy          =      -0.6207655581176069 [Eh]
	 Opposite-Spin Energy      =      -1.8692921938627198 [Eh]
	 Correlation Energy        =      -2.4900577519803266 [Eh]
	 Total Energy              =    -933.4855336347521870 [Eh]

	 ================> DF-SCS-MP2 Energies <==================
	-----------------------------------------------------------
	 SCS Same-Spin Scale       =       0.3333333333333333 [-]
	 SCS Opposite-Spin Scale   =       1.2000000000000000 [-]
	 SCS Same-Spin Energy      =      -0.2069218527058690 [Eh]
	 SCS Opposite-Spin Energy  =      -2.2431506326352637 [Eh]
	 SCS Correlation Energy    =      -2.4500724853411326 [Eh]
	 SCS Total Energy          =    -933.4455483681130090 [Eh]
	-----------------------------------------------------------

  Dipole Moment: [D]
     X:     4.2658      Y:     0.7832      Z:     1.9003     Total:     4.7351

*** Psi4 exiting successfully. Buy a developer a beer!
