                               Psi4 1.4a3.dev225

  ==> Input File <==

--------------------------------------------------------------------------
#psi4
#
memory 32 gb

molecule  {
0 1
  S       -1.9229532    -0.1706149    -0.1271149
  O       -2.3617000    -0.1700640     1.4590810
  O       -2.4286150    -1.2343840    -0.7923790
  O       -2.4725380     1.3090340    -0.5392830
  C       -0.2242900    -0.0021990    -0.0874500
  C        1.8486770    -1.2201060     0.0278510
  C        1.8399080     1.2326580     0.0087760
  C        0.4429230     1.2221080    -0.0627730
  C        0.4524940    -1.2213400    -0.0491660
  C        2.5197880     0.0092800     0.0551460
  C        2.6153160    -2.5166400     0.0331700
  C        2.5970370     2.5347130    -0.0106060
  H       -0.1225000     2.1495790    -0.1127420
  H       -0.1051200    -2.1541630    -0.0856740
  H        3.6080620     0.0137470     0.1195720
  H        2.0290960    -3.3176030     0.4912070
  H        2.8638720    -2.8264950    -0.9873940
  H        3.5515030    -2.4163920     0.5891050
  H        2.8417130     2.8282160    -1.0369270
  H        2.0062320     3.3400050     0.4339970
  H        3.5349660     2.4512730     0.5451920
  H       -2.8050090     0.6644540     1.7194690
units angstrom
no_reorient  #important for SAPT in psi4, default
symmetry c1  #important for SAPT in psi4, default
}

set PROPERTIES_ORIGIN ["COM"]
properties('MP2/aug-cc-pvtz', properties = ['dipole'])
--------------------------------------------------------------------------

    Molecular point group: c1
  Charge       = 0
  Multiplicity = 1
  Basis Set: AUG-CC-PVTZ
    Blend: AUG-CC-PVTZ
  Basis Set: (AUG-CC-PVTZ AUX)
    Blend: AUG-CC-PVTZ-JKFIT

    Orbital Energies [Eh]
    ---------------------

    Doubly Occupied:

       1A    -92.220337     2A    -20.619708     3A    -20.585826
       4A    -20.521536     5A    -11.288893     6A    -11.272215
       7A    -11.272143     8A    -11.270258     9A    -11.269440
      10A    -11.264267    11A    -11.244738    12A    -11.244108
      13A     -9.187412    14A     -6.872727    15A     -6.871726
      16A     -6.870807    17A     -1.518638    18A     -1.399125
      19A     -1.262067    20A     -1.195181    21A     -1.090434
      22A     -1.085357    23A     -0.968367    24A     -0.959353
      25A     -0.935032    26A     -0.825971    27A     -0.816305
      28A     -0.748947    29A     -0.726138    30A     -0.694861
      31A     -0.692381    32A     -0.665902    33A     -0.624461
      34A     -0.607300    35A     -0.605140    36A     -0.596667
      37A     -0.588940    38A     -0.575618    39A     -0.572908
      40A     -0.555923    41A     -0.551267    42A     -0.525044
      43A     -0.514012    44A     -0.509096    45A     -0.483103
      46A     -0.444214    47A     -0.440231    48A     -0.370501
      49A     -0.350044

  @DF-RHF Final Energy:  -931.00957062247960

   => Energetics <=

    Nuclear Repulsion Energy =            831.8632341474494751
    One-Electron Energy =               -2928.9962687611800902
    Two-Electron Energy =                1166.1234639912511284
    Total Energy =                       -931.0095706224794867
  Basis Set: (AUG-CC-PVTZ AUX)
    Blend: AUG-CC-PVTZ-RI
    Molecular point group: c1

    Geometry (in Angstrom), charge = 0, multiplicity = 1:

       Center              X                  Y                   Z               Mass
    ------------   -----------------  -----------------  -----------------  -----------------
         S           -1.842278722917    -0.139540066254    -0.119816402948    31.972071174400
         O           -2.281025522917    -0.138989166254     1.466379497052    15.994914619570
         O           -2.347940522917    -1.203309166254    -0.785080502948    15.994914619570
         O           -2.391863522917     1.340108833746    -0.531984502948    15.994914619570
         C           -0.143615522917     0.028875833746    -0.080151502948    12.000000000000
         C            1.929351477083    -1.189031166254     0.035149497052    12.000000000000
         C            1.920582477083     1.263732833746     0.016074497052    12.000000000000
         C            0.523597477083     1.253182833746    -0.055474502948    12.000000000000
         C            0.533168477083    -1.190265166254    -0.041867502948    12.000000000000
         C            2.600462477083     0.040354833746     0.062444497052    12.000000000000
         C            2.695990477083    -2.485565166254     0.040468497052    12.000000000000
         C            2.677711477083     2.565787833746    -0.003307502948    12.000000000000
         H           -0.041825522917     2.180653833746    -0.105443502948     1.007825032230
         H           -0.024445522917    -2.123088166254    -0.078375502948     1.007825032230
         H            3.688736477083     0.044821833746     0.126870497052     1.007825032230
         H            2.109770477083    -3.286528166254     0.498505497052     1.007825032230
         H            2.944546477083    -2.795420166254    -0.980095502948     1.007825032230
         H            3.632177477083    -2.385317166254     0.596403497052     1.007825032230
         H            2.922387477083     2.859290833746    -1.029628502948     1.007825032230
         H            2.086906477083     3.371079833746     0.441295497052     1.007825032230
         H            3.615640477083     2.482347833746     0.552490497052     1.007825032230
         H           -2.724334522917     0.695528833746     1.726767497052     1.007825032230

  Basis Set: AUG-CC-PVTZ
    Blend: AUG-CC-PVTZ
  Basis Set: (AUG-CC-PVTZ AUX)
    Blend: AUG-CC-PVTZ-JKFIT
	 Reference Energy          =    -931.0095706224796004 [Eh]
	 Singles Energy            =      -0.0000000000000000 [Eh]
	 Same-Spin Energy          =      -0.6211965538791062 [Eh]
	 Opposite-Spin Energy      =      -1.8681865177223140 [Eh]
	 Correlation Energy        =      -2.4893830716014200 [Eh]
	 Total Energy              =    -933.4989536940810240 [Eh]

	 ================> DF-SCS-MP2 Energies <==================
	-----------------------------------------------------------
	 SCS Same-Spin Scale       =       0.3333333333333333 [-]
	 SCS Opposite-Spin Scale   =       1.2000000000000000 [-]
	 SCS Same-Spin Energy      =      -0.2070655179597021 [Eh]
	 SCS Opposite-Spin Energy  =      -2.2418238212667769 [Eh]
	 SCS Correlation Energy    =      -2.4488893392264788 [Eh]
	 SCS Total Energy          =    -933.4584599617061258 [Eh]
	-----------------------------------------------------------

  Dipole Moment: [D]
     X:     5.4124      Y:    -0.4062      Z:     1.9413     Total:     5.7643

*** Psi4 exiting successfully. Buy a developer a beer!
