                               Psi4 1.4a3.dev225

  ==> Input File <==

--------------------------------------------------------------------------
#psi4
#
memory 32 gb

molecule  {
0 1
  S       -1.9906940    -0.0125100    -0.1365530
  O       -2.3617000    -0.1700640     1.4590810
  O       -2.4286150    -1.2343840    -0.7923790
  O       -2.4725380     1.3090340    -0.5392830
  C       -0.2242900    -0.0021990    -0.0874500
  C        1.8486770    -1.2201060     0.0278510
  C        1.8399080     1.2326580     0.0087760
  C        0.4429230     1.2221080    -0.0627730
  C        0.4524940    -1.2213400    -0.0491660
  C        2.5197880     0.0092800     0.0551460
  C        2.6153160    -2.5166400     0.0331700
  C        2.5970370     2.5347130    -0.0106060
  H       -0.1225000     2.1495790    -0.1127420
  H       -0.1051200    -2.1541630    -0.0856740
  H        3.6080620     0.0137470     0.1195720
  H        2.0290960    -3.3176030     0.4912070
  H        2.9375186    -2.8253177    -0.9669523
  H        3.5515030    -2.4163920     0.5891050
  H        2.8417130     2.8282160    -1.0369270
  H        2.0062320     3.3400050     0.4339970
  H        3.5349660     2.4512730     0.5451920
  H       -2.8050090     0.6644540     1.7194690
units angstrom
no_reorient  #important for SAPT in psi4, default
symmetry c1  #important for SAPT in psi4, default
}

set PROPERTIES_ORIGIN ["COM"]
properties('MP2/aug-cc-pvtz', properties = ['dipole'])
--------------------------------------------------------------------------

    Molecular point group: c1
  Charge       = 0
  Multiplicity = 1
  Basis Set: AUG-CC-PVTZ
    Blend: AUG-CC-PVTZ
  Basis Set: (AUG-CC-PVTZ AUX)
    Blend: AUG-CC-PVTZ-JKFIT

    Orbital Energies [Eh]
    ---------------------

    Doubly Occupied:

       1A    -92.228823     2A    -20.628683     3A    -20.565031
       4A    -20.560792     5A    -11.286120     6A    -11.267541
       7A    -11.267445     8A    -11.263077     9A    -11.262300
      10A    -11.257388    11A    -11.241567    12A    -11.240170
      13A     -9.191728    14A     -6.877348    15A     -6.876048
      16A     -6.875810    17A     -1.492758    18A     -1.379119
      19A     -1.351476    20A     -1.187986    21A     -1.081538
      22A     -1.075503    23A     -0.962422    24A     -0.953985
      25A     -0.924127    26A     -0.819353    27A     -0.810307
      28A     -0.740267    29A     -0.723068    30A     -0.691316
      31A     -0.683802    32A     -0.670782    33A     -0.627919
      34A     -0.603221    35A     -0.600058    36A     -0.592514
      37A     -0.583682    38A     -0.573796    39A     -0.569014
      40A     -0.548501    41A     -0.537664    42A     -0.523353
      43A     -0.508543    44A     -0.506751    45A     -0.501272
      46A     -0.483983    47A     -0.473582    48A     -0.363335
      49A     -0.345289

  @DF-RHF Final Energy:  -931.05687978506501

   => Energetics <=

    Nuclear Repulsion Energy =            830.3905214857910551
    One-Electron Energy =               -2926.1344886390584179
    Two-Electron Energy =                1164.6870873682023557
    Total Energy =                       -931.0568797850651208
  Basis Set: (AUG-CC-PVTZ AUX)
    Blend: AUG-CC-PVTZ-RI
    Molecular point group: c1

    Geometry (in Angstrom), charge = 0, multiplicity = 1:

       Center              X                  Y                   Z               Mass
    ------------   -----------------  -----------------  -----------------  -----------------
         S           -1.898776530699    -0.008613524370    -0.127743207497    31.972071174400
         O           -2.269782530699    -0.166167524370     1.467890792503    15.994914619570
         O           -2.336697530699    -1.230487524370    -0.783569207497    15.994914619570
         O           -2.380620530699     1.312930475630    -0.530473207497    15.994914619570
         C           -0.132372530699     0.001697475630    -0.078640207497    12.000000000000
         C            1.940594469301    -1.216209524370     0.036660792503    12.000000000000
         C            1.931825469301     1.236554475630     0.017585792503    12.000000000000
         C            0.534840469301     1.226004475630    -0.053963207497    12.000000000000
         C            0.544411469301    -1.217443524370    -0.040356207497    12.000000000000
         C            2.611705469301     0.013176475630     0.063955792503    12.000000000000
         C            2.707233469301    -2.512743524370     0.041979792503    12.000000000000
         C            2.688954469301     2.538609475630    -0.001796207497    12.000000000000
         H           -0.030582530699     2.153475475630    -0.103932207497     1.007825032230
         H           -0.013202530699    -2.150266524370    -0.076864207497     1.007825032230
         H            3.699979469301     0.017643475630     0.128381792503     1.007825032230
         H            2.121013469301    -3.313706524370     0.500016792503     1.007825032230
         H            3.029436069301    -2.821421224370    -0.958142507497     1.007825032230
         H            3.643420469301    -2.412495524370     0.597914792503     1.007825032230
         H            2.933630469301     2.832112475630    -1.028117207497     1.007825032230
         H            2.098149469301     3.343901475630     0.442806792503     1.007825032230
         H            3.626883469301     2.455169475630     0.554001792503     1.007825032230
         H           -2.713091530699     0.668350475630     1.728278792503     1.007825032230

  Basis Set: AUG-CC-PVTZ
    Blend: AUG-CC-PVTZ
  Basis Set: (AUG-CC-PVTZ AUX)
    Blend: AUG-CC-PVTZ-JKFIT
	 Reference Energy          =    -931.0568797850650071 [Eh]
	 Singles Energy            =      -0.0000000000000000 [Eh]
	 Same-Spin Energy          =      -0.6213070954975471 [Eh]
	 Opposite-Spin Energy      =      -1.8676688297393571 [Eh]
	 Correlation Energy        =      -2.4889759252369044 [Eh]
	 Total Energy              =    -933.5458557103019075 [Eh]

	 ================> DF-SCS-MP2 Energies <==================
	-----------------------------------------------------------
	 SCS Same-Spin Scale       =       0.3333333333333333 [-]
	 SCS Opposite-Spin Scale   =       1.2000000000000000 [-]
	 SCS Same-Spin Energy      =      -0.2071023651658490 [Eh]
	 SCS Opposite-Spin Energy  =      -2.2412025956872283 [Eh]
	 SCS Correlation Energy    =      -2.4483049608530774 [Eh]
	 SCS Total Energy          =    -933.5051847459180863 [Eh]
	-----------------------------------------------------------

  Dipole Moment: [D]
     X:     4.4485      Y:     1.0198      Z:     1.8915     Total:     4.9403

*** Psi4 exiting successfully. Buy a developer a beer!
