                               Psi4 1.4a3.dev225

  ==> Input File <==

--------------------------------------------------------------------------
#psi4
#
memory 32 gb

molecule  {
0 1
  S       -1.9906940    -0.0125100    -0.1365530
  O       -2.3617000    -0.1700640     1.4590810
  O       -2.4286150    -1.2343840    -0.7923790
  O       -2.4725380     1.3090340    -0.5392830
  C       -0.2242900    -0.0021990    -0.0874500
  C        1.8486770    -1.2201060     0.0278510
  C        1.8399080     1.2326580     0.0087760
  C        0.4429230     1.2221080    -0.0627730
  C        0.4524940    -1.2213400    -0.0491660
  C        2.5197880     0.0092800     0.0551460
  C        2.6153160    -2.5166400     0.0331700
  C        2.5970370     2.5347130    -0.0106060
  H       -0.1225000     2.1495790    -0.1127420
  H       -0.1051200    -2.1541630    -0.0856740
  H        3.6080620     0.0137470     0.1195720
  H        2.0290960    -3.3176030     0.4912070
  H        2.8638720    -2.8264950    -0.9873940
  H        3.6371234    -2.4072237     0.6399488
  H        2.8417130     2.8282160    -1.0369270
  H        2.0062320     3.3400050     0.4339970
  H        3.5349660     2.4512730     0.5451920
  H       -2.8050090     0.6644540     1.7194690
units angstrom
no_reorient  #important for SAPT in psi4, default
symmetry c1  #important for SAPT in psi4, default
}

set PROPERTIES_ORIGIN ["COM"]
properties('MP2/aug-cc-pvtz', properties = ['dipole'])
--------------------------------------------------------------------------

    Molecular point group: c1
  Charge       = 0
  Multiplicity = 1
  Basis Set: AUG-CC-PVTZ
    Blend: AUG-CC-PVTZ
  Basis Set: (AUG-CC-PVTZ AUX)
    Blend: AUG-CC-PVTZ-JKFIT

    Orbital Energies [Eh]
    ---------------------

    Doubly Occupied:

       1A    -92.229077     2A    -20.628883     3A    -20.565250
       4A    -20.561045     5A    -11.286465     6A    -11.268031
       7A    -11.267635     8A    -11.263201     9A    -11.262828
      10A    -11.257329    11A    -11.252046    12A    -11.241613
      13A     -9.191977    14A     -6.877597    15A     -6.876299
      16A     -6.876061    17A     -1.492982    18A     -1.379330
      19A     -1.351709    20A     -1.188199    21A     -1.081246
      22A     -1.075130    23A     -0.960652    24A     -0.950114
      25A     -0.924292    26A     -0.819078    27A     -0.808647
      28A     -0.739946    29A     -0.722840    30A     -0.691469
      31A     -0.683332    32A     -0.670500    33A     -0.627790
      34A     -0.602913    35A     -0.600436    36A     -0.592372
      37A     -0.584213    38A     -0.573676    39A     -0.564992
      40A     -0.541552    41A     -0.534301    42A     -0.522922
      43A     -0.508866    44A     -0.506960    45A     -0.501275
      46A     -0.484104    47A     -0.473410    48A     -0.363403
      49A     -0.345447

  @DF-RHF Final Energy:  -931.05083132266952

   => Energetics <=

    Nuclear Repulsion Energy =            830.0407567020471333
    One-Electron Energy =               -2925.4363085934010087
    Two-Electron Energy =                1164.3447205686843517
    Total Energy =                       -931.0508313226696373
  Basis Set: (AUG-CC-PVTZ AUX)
    Blend: AUG-CC-PVTZ-RI
    Molecular point group: c1

    Geometry (in Angstrom), charge = 0, multiplicity = 1:

       Center              X                  Y                   Z               Mass
    ------------   -----------------  -----------------  -----------------  -----------------
         S           -1.898841397478    -0.008656814756    -0.127907907616    31.972071174400
         O           -2.269847397478    -0.166210814756     1.467726092384    15.994914619570
         O           -2.336762397478    -1.230530814756    -0.783733907616    15.994914619570
         O           -2.380685397478     1.312887185244    -0.530637907616    15.994914619570
         C           -0.132437397478     0.001654185244    -0.078804907616    12.000000000000
         C            1.940529602522    -1.216252814756     0.036496092384    12.000000000000
         C            1.931760602522     1.236511185244     0.017421092384    12.000000000000
         C            0.534775602522     1.225961185244    -0.054127907616    12.000000000000
         C            0.544346602522    -1.217486814756    -0.040520907616    12.000000000000
         C            2.611640602522     0.013133185244     0.063791092384    12.000000000000
         C            2.707168602522    -2.512786814756     0.041815092384    12.000000000000
         C            2.688889602522     2.538566185244    -0.001960907616    12.000000000000
         H           -0.030647397478     2.153432185244    -0.104096907616     1.007825032230
         H           -0.013267397478    -2.150309814756    -0.077028907616     1.007825032230
         H            3.699914602522     0.017600185244     0.128217092384     1.007825032230
         H            2.120948602522    -3.313749814756     0.499852092384     1.007825032230
         H            2.955724602522    -2.822641814756    -0.978748907616     1.007825032230
         H            3.728976002522    -2.403370514756     0.648593892384     1.007825032230
         H            2.933565602522     2.832069185244    -1.028281907616     1.007825032230
         H            2.098084602522     3.343858185244     0.442642092384     1.007825032230
         H            3.626818602522     2.455126185244     0.553837092384     1.007825032230
         H           -2.713156397478     0.668307185244     1.728114092384     1.007825032230

  Basis Set: AUG-CC-PVTZ
    Blend: AUG-CC-PVTZ
  Basis Set: (AUG-CC-PVTZ AUX)
    Blend: AUG-CC-PVTZ-JKFIT
	 Reference Energy          =    -931.0508313226695236 [Eh]
	 Singles Energy            =      -0.0000000000000000 [Eh]
	 Same-Spin Energy          =      -0.6213191426994173 [Eh]
	 Opposite-Spin Energy      =      -1.8684321335754563 [Eh]
	 Correlation Energy        =      -2.4897512762748737 [Eh]
	 Total Energy              =    -933.5405825989444111 [Eh]

	 ================> DF-SCS-MP2 Energies <==================
	-----------------------------------------------------------
	 SCS Same-Spin Scale       =       0.3333333333333333 [-]
	 SCS Opposite-Spin Scale   =       1.2000000000000000 [-]
	 SCS Same-Spin Energy      =      -0.2071063808998058 [Eh]
	 SCS Opposite-Spin Energy  =      -2.2421185602905473 [Eh]
	 SCS Correlation Energy    =      -2.4492249411903533 [Eh]
	 SCS Total Energy          =    -933.5000562638598467 [Eh]
	-----------------------------------------------------------

  Dipole Moment: [D]
     X:     4.3737      Y:     1.0253      Z:     1.8688     Total:     4.8655

*** Psi4 exiting successfully. Buy a developer a beer!
