                               Psi4 1.4a3.dev225

  ==> Input File <==

--------------------------------------------------------------------------
#psi4
#
memory 32 gb

molecule  {
0 1
  S       -1.9791009    -0.0387876    -0.1361936
  O       -2.3617000    -0.1700640     1.4590810
  O       -2.4286150    -1.2343840    -0.7923790
  O       -2.4725380     1.3090340    -0.5392830
  C       -0.2242900    -0.0021990    -0.0874500
  C        1.8486770    -1.2201060     0.0278510
  C        1.8399080     1.2326580     0.0087760
  C        0.4429230     1.2221080    -0.0627730
  C        0.4524940    -1.2213400    -0.0491660
  C        2.5197880     0.0092800     0.0551460
  C        2.6153160    -2.5166400     0.0331700
  C        2.5970370     2.5347130    -0.0106060
  H       -0.1225000     2.1495790    -0.1127420
  H       -0.1051200    -2.1541630    -0.0856740
  H        3.6080620     0.0137470     0.1195720
  H        2.0290960    -3.3176030     0.4912070
  H        2.8638720    -2.8264950    -0.9873940
  H        3.5515030    -2.4163920     0.5891050
  H        2.8417130     2.8282160    -1.0369270
  H        2.0062320     3.3400050     0.4339970
  H        3.5349660     2.4512730     0.5451920
  H       -2.8050090     0.6644540     1.7194690
units angstrom
no_reorient  #important for SAPT in psi4, default
symmetry c1  #important for SAPT in psi4, default
}

set PROPERTIES_ORIGIN ["COM"]
properties('MP2/aug-cc-pvtz', properties = ['dipole'])
--------------------------------------------------------------------------

    Molecular point group: c1
  Charge       = 0
  Multiplicity = 1
  Basis Set: AUG-CC-PVTZ
    Blend: AUG-CC-PVTZ
  Basis Set: (AUG-CC-PVTZ AUX)
    Blend: AUG-CC-PVTZ-JKFIT

    Orbital Energies [Eh]
    ---------------------

    Doubly Occupied:

       1A    -92.228363     2A    -20.627077     3A    -20.565264
       4A    -20.557645     5A    -11.286506     6A    -11.268252
       7A    -11.267974     8A    -11.263969     9A    -11.263498
      10A    -11.258369    11A    -11.241933    12A    -11.241113
      13A     -9.191426    14A     -6.877008    15A     -6.875700
      16A     -6.875521    17A     -1.491107    18A     -1.381812
      19A     -1.341464    20A     -1.189238    21A     -1.082549
      22A     -1.077753    23A     -0.963413    24A     -0.954692
      25A     -0.926108    26A     -0.820080    27A     -0.810950
      28A     -0.740699    29A     -0.722248    30A     -0.690787
      31A     -0.684331    32A     -0.669930    33A     -0.624313
      34A     -0.603268    35A     -0.601557    36A     -0.592708
      37A     -0.585968    38A     -0.574360    39A     -0.569835
      40A     -0.548749    41A     -0.537894    42A     -0.524096
      43A     -0.508809    44A     -0.503743    45A     -0.501032
      46A     -0.481052    47A     -0.473603    48A     -0.364621
      49A     -0.345931

  @DF-RHF Final Energy:  -931.05557027368354

   => Energetics <=

    Nuclear Repulsion Energy =            830.6758292769761738
    One-Electron Energy =               -2926.7061652978336497
    Two-Electron Energy =                1164.9747657471737057
    Total Energy =                       -931.0555702736835428
  Basis Set: (AUG-CC-PVTZ AUX)
    Blend: AUG-CC-PVTZ-RI
    Molecular point group: c1

    Geometry (in Angstrom), charge = 0, multiplicity = 1:

       Center              X                  Y                   Z               Mass
    ------------   -----------------  -----------------  -----------------  -----------------
         S           -1.888776853588    -0.030368666153    -0.127334833426    31.972071174400
         O           -2.271375953588    -0.161645066153     1.467939766574    15.994914619570
         O           -2.338290953588    -1.225965066153    -0.783520233426    15.994914619570
         O           -2.382213953588     1.317452933847    -0.530424233426    15.994914619570
         C           -0.133965953588     0.006219933847    -0.078591233426    12.000000000000
         C            1.939001046412    -1.211687066153     0.036709766574    12.000000000000
         C            1.930232046412     1.241076933847     0.017634766574    12.000000000000
         C            0.533247046412     1.230526933847    -0.053914233426    12.000000000000
         C            0.542818046412    -1.212921066153    -0.040307233426    12.000000000000
         C            2.610112046412     0.017698933847     0.064004766574    12.000000000000
         C            2.705640046412    -2.508221066153     0.042028766574    12.000000000000
         C            2.687361046412     2.543131933847    -0.001747233426    12.000000000000
         H           -0.032175953588     2.157997933847    -0.103883233426     1.007825032230
         H           -0.014795953588    -2.145744066153    -0.076815233426     1.007825032230
         H            3.698386046412     0.022165933847     0.128430766574     1.007825032230
         H            2.119420046412    -3.309184066153     0.500065766574     1.007825032230
         H            2.954196046412    -2.818076066153    -0.978535233426     1.007825032230
         H            3.641827046412    -2.407973066153     0.597963766574     1.007825032230
         H            2.932037046412     2.836634933847    -1.028068233426     1.007825032230
         H            2.096556046412     3.348423933847     0.442855766574     1.007825032230
         H            3.625290046412     2.459691933847     0.554050766574     1.007825032230
         H           -2.714684953588     0.672872933847     1.728327766574     1.007825032230

  Basis Set: AUG-CC-PVTZ
    Blend: AUG-CC-PVTZ
  Basis Set: (AUG-CC-PVTZ AUX)
    Blend: AUG-CC-PVTZ-JKFIT
	 Reference Energy          =    -931.0555702736835428 [Eh]
	 Singles Energy            =      -0.0000000000000000 [Eh]
	 Same-Spin Energy          =      -0.6213742718903263 [Eh]
	 Opposite-Spin Energy      =      -1.8677878118210516 [Eh]
	 Correlation Energy        =      -2.4891620837113777 [Eh]
	 Total Energy              =    -933.5447323573948779 [Eh]

	 ================> DF-SCS-MP2 Energies <==================
	-----------------------------------------------------------
	 SCS Same-Spin Scale       =       0.3333333333333333 [-]
	 SCS Opposite-Spin Scale   =       1.2000000000000000 [-]
	 SCS Same-Spin Energy      =      -0.2071247572967754 [Eh]
	 SCS Opposite-Spin Energy  =      -2.2413453741852618 [Eh]
	 SCS Correlation Energy    =      -2.4484701314820372 [Eh]
	 SCS Total Energy          =    -933.5040404051655969 [Eh]
	-----------------------------------------------------------

  Dipole Moment: [D]
     X:     4.5857      Y:     0.7723      Z:     1.8847     Total:     5.0177

*** Psi4 exiting successfully. Buy a developer a beer!
