                               Psi4 1.4a3.dev225

  ==> Input File <==

--------------------------------------------------------------------------
#psi4
#
memory 32 gb

molecule  {
0 1
  S       -1.9906940    -0.0125100    -0.1365530
  O       -2.3617000    -0.1700640     1.4590810
  O       -2.4286150    -1.2343840    -0.7923790
  O       -2.4725380     1.3090340    -0.5392830
  C       -0.2242900    -0.0021990    -0.0874500
  C        1.8486770    -1.2201060     0.0278510
  C        1.8399080     1.2326580     0.0087760
  C        0.4429230     1.2221080    -0.0627730
  C        0.4524940    -1.2213400    -0.0491660
  C        2.5197880     0.0092800     0.0551460
  C        2.6153160    -2.5166400     0.0331700
  C        2.5970370     2.5347130    -0.0106060
  H       -0.1225000     2.1495790    -0.1127420
  H       -0.1051200    -2.1541630    -0.0856740
  H        3.6080620     0.0137470     0.1195720
  H        2.0290960    -3.3176030     0.4912070
  H        2.9092644    -2.8830821    -1.1737738
  H        3.5515030    -2.4163920     0.5891050
  H        2.8417130     2.8282160    -1.0369270
  H        2.0062320     3.3400050     0.4339970
  H        3.5349660     2.4512730     0.5451920
  H       -2.8050090     0.6644540     1.7194690
units angstrom
no_reorient  #important for SAPT in psi4, default
symmetry c1  #important for SAPT in psi4, default
}

set PROPERTIES_ORIGIN ["COM"]
properties('MP2/aug-cc-pvtz', properties = ['dipole'])
--------------------------------------------------------------------------

    Molecular point group: c1
  Charge       = 0
  Multiplicity = 1
  Basis Set: AUG-CC-PVTZ
    Blend: AUG-CC-PVTZ
  Basis Set: (AUG-CC-PVTZ AUX)
    Blend: AUG-CC-PVTZ-JKFIT

    Orbital Energies [Eh]
    ---------------------

    Doubly Occupied:

       1A    -92.229305     2A    -20.629121     3A    -20.565480
       4A    -20.561214     5A    -11.286791     6A    -11.268744
       7A    -11.268157     8A    -11.263879     9A    -11.263335
      10A    -11.262451    11A    -11.258322    12A    -11.241986
      13A     -9.192204    14A     -6.877825    15A     -6.876527
      16A     -6.876287    17A     -1.493198    18A     -1.379550
      19A     -1.351904    20A     -1.188694    21A     -1.081153
      22A     -1.075388    23A     -0.960046    24A     -0.947376
      25A     -0.924755    26A     -0.819716    27A     -0.807472
      28A     -0.740413    29A     -0.722988    30A     -0.691927
      31A     -0.684591    32A     -0.671444    33A     -0.628339
      34A     -0.603935    35A     -0.597341    36A     -0.591139
      37A     -0.575722    38A     -0.570956    39A     -0.558466
      40A     -0.548885    41A     -0.538506    42A     -0.522807
      43A     -0.508936    44A     -0.506313    45A     -0.495005
      46A     -0.484348    47A     -0.474236    48A     -0.363274
      49A     -0.344447

  @DF-RHF Final Energy:  -931.03766275313990

   => Energetics <=

    Nuclear Repulsion Energy =            829.6562297292377934
    One-Electron Energy =               -2924.6379903085999103
    Two-Electron Energy =                1163.9440978262223325
    Total Energy =                       -931.0376627531400118
  Basis Set: (AUG-CC-PVTZ AUX)
    Blend: AUG-CC-PVTZ-RI
    Molecular point group: c1

    Geometry (in Angstrom), charge = 0, multiplicity = 1:

       Center              X                  Y                   Z               Mass
    ------------   -----------------  -----------------  -----------------  -----------------
         S           -1.898623466598    -0.008300591922    -0.126622774182    31.972071174400
         O           -2.269629466598    -0.165854591922     1.469011225818    15.994914619570
         O           -2.336544466598    -1.230174591922    -0.782448774182    15.994914619570
         O           -2.380467466598     1.313243408078    -0.529352774182    15.994914619570
         C           -0.132219466598     0.002010408078    -0.077519774182    12.000000000000
         C            1.940747533402    -1.215896591922     0.037781225818    12.000000000000
         C            1.931978533402     1.236867408078     0.018706225818    12.000000000000
         C            0.534993533402     1.226317408078    -0.052842774182    12.000000000000
         C            0.544564533402    -1.217130591922    -0.039235774182    12.000000000000
         C            2.611858533402     0.013489408078     0.065076225818    12.000000000000
         C            2.707386533402    -2.512430591922     0.043100225818    12.000000000000
         C            2.689107533402     2.538922408078    -0.000675774182    12.000000000000
         H           -0.030429466598     2.153788408078    -0.102811774182     1.007825032230
         H           -0.013049466598    -2.149953591922    -0.075743774182     1.007825032230
         H            3.700132533402     0.017956408078     0.129502225818     1.007825032230
         H            2.121166533402    -3.313393591922     0.501137225818     1.007825032230
         H            3.001334933402    -2.878872691922    -1.163843574182     1.007825032230
         H            3.643573533402    -2.412182591922     0.599035225818     1.007825032230
         H            2.933783533402     2.832425408078    -1.026996774182     1.007825032230
         H            2.098302533402     3.344214408078     0.443927225818     1.007825032230
         H            3.627036533402     2.455482408078     0.555122225818     1.007825032230
         H           -2.712938466598     0.668663408078     1.729399225818     1.007825032230

  Basis Set: AUG-CC-PVTZ
    Blend: AUG-CC-PVTZ
  Basis Set: (AUG-CC-PVTZ AUX)
    Blend: AUG-CC-PVTZ-JKFIT
	 Reference Energy          =    -931.0376627531398981 [Eh]
	 Singles Energy            =      -0.0000000000000000 [Eh]
	 Same-Spin Energy          =      -0.6212811672482060 [Eh]
	 Opposite-Spin Energy      =      -1.8691776696126512 [Eh]
	 Correlation Energy        =      -2.4904588368608573 [Eh]
	 Total Energy              =    -933.5281215900007510 [Eh]

	 ================> DF-SCS-MP2 Energies <==================
	-----------------------------------------------------------
	 SCS Same-Spin Scale       =       0.3333333333333333 [-]
	 SCS Opposite-Spin Scale   =       1.2000000000000000 [-]
	 SCS Same-Spin Energy      =      -0.2070937224160687 [Eh]
	 SCS Opposite-Spin Energy  =      -2.2430132035351815 [Eh]
	 SCS Correlation Energy    =      -2.4501069259512502 [Eh]
	 SCS Total Energy          =    -933.4877696790911159 [Eh]
	-----------------------------------------------------------

  Dipole Moment: [D]
     X:     4.3666      Y:     1.0882      Z:     1.9646     Total:     4.9103

*** Psi4 exiting successfully. Buy a developer a beer!
