                               Psi4 1.4a3.dev225

  ==> Input File <==

--------------------------------------------------------------------------
#psi4
#
memory 32 gb

molecule  {
0 1
  S       -1.9906940    -0.0125100    -0.1365530
  O       -2.3617000    -0.1700640     1.4590810
  O       -2.4286150    -1.2343840    -0.7923790
  O       -2.4725380     1.3090340    -0.5392830
  C       -0.2242900    -0.0021990    -0.0874500
  C        1.8486770    -1.2201060     0.0278510
  C        1.8399080     1.2326580     0.0087760
  C        0.4429230     1.2221080    -0.0627730
  C        0.4524940    -1.2213400    -0.0491660
  C        2.5197880     0.0092800     0.0551460
  C        2.6153160    -2.5166400     0.0331700
  C        2.5970370     2.5347130    -0.0106060
  H       -0.1225000     2.1495790    -0.1127420
  H       -0.1051200    -2.1541630    -0.0856740
  H        3.6080620     0.0137470     0.1195720
  H        2.0290960    -3.3176030     0.4912070
  H        2.8638720    -2.8264950    -0.9873940
  H        3.5943132    -2.4118078     0.6145269
  H        2.8417130     2.8282160    -1.0369270
  H        2.0062320     3.3400050     0.4339970
  H        3.5349660     2.4512730     0.5451920
  H       -2.8050090     0.6644540     1.7194690
units angstrom
no_reorient  #important for SAPT in psi4, default
symmetry c1  #important for SAPT in psi4, default
}

set PROPERTIES_ORIGIN ["COM"]
properties('MP2/aug-cc-pvtz', properties = ['dipole'])
--------------------------------------------------------------------------

    Molecular point group: c1
  Charge       = 0
  Multiplicity = 1
  Basis Set: AUG-CC-PVTZ
    Blend: AUG-CC-PVTZ
  Basis Set: (AUG-CC-PVTZ AUX)
    Blend: AUG-CC-PVTZ-JKFIT

    Orbital Energies [Eh]
    ---------------------

    Doubly Occupied:

       1A    -92.228915     2A    -20.628756     3A    -20.565107
       4A    -20.560895     5A    -11.286251     6A    -11.267566
       7A    -11.267510     8A    -11.262976     9A    -11.262415
      10A    -11.257204    11A    -11.246294    12A    -11.241538
      13A     -9.191819    14A     -6.877439    15A     -6.876140
      16A     -6.875902    17A     -1.492841    18A     -1.379197
      19A     -1.351565    20A     -1.188015    21A     -1.081352
      22A     -1.075254    23A     -0.961230    24A     -0.951947
      25A     -0.924154    26A     -0.819079    27A     -0.809189
      28A     -0.739981    29A     -0.722801    30A     -0.691327
      31A     -0.683464    32A     -0.670559    33A     -0.627769
      34A     -0.602588    35A     -0.600552    36A     -0.592054
      37A     -0.584447    38A     -0.573816    39A     -0.566961
      40A     -0.544488    41A     -0.536806    42A     -0.523423
      43A     -0.508573    44A     -0.506897    45A     -0.501059
      46A     -0.484047    47A     -0.473534    48A     -0.363340
      49A     -0.345232

  @DF-RHF Final Energy:  -931.05529238758584

   => Energetics <=

    Nuclear Repulsion Energy =            830.2515165016062610
    One-Electron Energy =               -2925.8650834925961135
    Two-Electron Energy =                1164.5582746034040156
    Total Energy =                       -931.0552923875859506
  Basis Set: (AUG-CC-PVTZ AUX)
    Blend: AUG-CC-PVTZ-RI
    Molecular point group: c1

    Geometry (in Angstrom), charge = 0, multiplicity = 1:

       Center              X                  Y                   Z               Mass
    ------------   -----------------  -----------------  -----------------  -----------------
         S           -1.898609477807    -0.008631980885    -0.127770187197    31.972071174400
         O           -2.269615477807    -0.166185980885     1.467863812803    15.994914619570
         O           -2.336530477807    -1.230505980885    -0.783596187197    15.994914619570
         O           -2.380453477807     1.312912019115    -0.530500187197    15.994914619570
         C           -0.132205477807     0.001679019115    -0.078667187197    12.000000000000
         C            1.940761522193    -1.216227980885     0.036633812803    12.000000000000
         C            1.931992522193     1.236536019115     0.017558812803    12.000000000000
         C            0.535007522193     1.225986019115    -0.053990187197    12.000000000000
         C            0.544578522193    -1.217461980885    -0.040383187197    12.000000000000
         C            2.611872522193     0.013158019115     0.063928812803    12.000000000000
         C            2.707400522193    -2.512761980885     0.041952812803    12.000000000000
         C            2.689121522193     2.538591019115    -0.001823187197    12.000000000000
         H           -0.030415477807     2.153457019115    -0.103959187197     1.007825032230
         H           -0.013035477807    -2.150284980885    -0.076891187197     1.007825032230
         H            3.700146522193     0.017625019115     0.128354812803     1.007825032230
         H            2.121180522193    -3.313724980885     0.499989812803     1.007825032230
         H            2.955956522193    -2.822616980885    -0.978611187197     1.007825032230
         H            3.686397722193    -2.407929780885     0.623309712803     1.007825032230
         H            2.933797522193     2.832094019115    -1.028144187197     1.007825032230
         H            2.098316522193     3.343883019115     0.442779812803     1.007825032230
         H            3.627050522193     2.455151019115     0.553974812803     1.007825032230
         H           -2.712924477807     0.668332019115     1.728251812803     1.007825032230

  Basis Set: AUG-CC-PVTZ
    Blend: AUG-CC-PVTZ
  Basis Set: (AUG-CC-PVTZ AUX)
    Blend: AUG-CC-PVTZ-JKFIT
	 Reference Energy          =    -931.0552923875858369 [Eh]
	 Singles Energy            =      -0.0000000000000000 [Eh]
	 Same-Spin Energy          =      -0.6213072987434876 [Eh]
	 Opposite-Spin Energy      =      -1.8680315302997319 [Eh]
	 Correlation Energy        =      -2.4893388290432195 [Eh]
	 Total Energy              =    -933.5446312166289999 [Eh]

	 ================> DF-SCS-MP2 Energies <==================
	-----------------------------------------------------------
	 SCS Same-Spin Scale       =       0.3333333333333333 [-]
	 SCS Opposite-Spin Scale   =       1.2000000000000000 [-]
	 SCS Same-Spin Energy      =      -0.2071024329144958 [Eh]
	 SCS Opposite-Spin Energy  =      -2.2416378363596783 [Eh]
	 SCS Correlation Energy    =      -2.4487402692741740 [Eh]
	 SCS Total Energy          =    -933.5040326568599767 [Eh]
	-----------------------------------------------------------

  Dipole Moment: [D]
     X:     4.4027      Y:     1.0136      Z:     1.8800     Total:     4.8934

*** Psi4 exiting successfully. Buy a developer a beer!
