                               Psi4 1.4a3.dev225

  ==> Input File <==

--------------------------------------------------------------------------
#psi4
#
memory 32 gb

molecule  {
0 1
  S       -1.9906940    -0.0125100    -0.1365530
  O       -2.3617000    -0.1700640     1.4590810
  O       -2.4286150    -1.2343840    -0.7923790
  O       -2.4725380     1.3090340    -0.5392830
  C       -0.2242900    -0.0021990    -0.0874500
  C        1.8486770    -1.2201060     0.0278510
  C        1.8399080     1.2326580     0.0087760
  C        0.4429230     1.2221080    -0.0627730
  C        0.4524940    -1.2213400    -0.0491660
  C        2.5197880     0.0092800     0.0551460
  C        2.6153160    -2.5166400     0.0331700
  C        2.5970370     2.5347130    -0.0106060
  H       -0.1225000     2.1495790    -0.1127420
  H       -0.1051200    -2.1541630    -0.0856740
  H        3.6080620     0.0137470     0.1195720
  H        2.0290960    -3.3176030     0.4912070
  H        2.8638720    -2.8264950    -0.9873940
  H        3.5515030    -2.4163920     0.5891050
  H        2.8417130     2.8282160    -1.0369270
  H        2.0062320     3.3400050     0.4339970
  H        3.5349660     2.4512730     0.5451920
  H       -2.7597815     0.5793144     1.6929036
units angstrom
no_reorient  #important for SAPT in psi4, default
symmetry c1  #important for SAPT in psi4, default
}

set PROPERTIES_ORIGIN ["COM"]
properties('MP2/aug-cc-pvtz', properties = ['dipole'])
--------------------------------------------------------------------------

    Molecular point group: c1
  Charge       = 0
  Multiplicity = 1
  Basis Set: AUG-CC-PVTZ
    Blend: AUG-CC-PVTZ
  Basis Set: (AUG-CC-PVTZ AUX)
    Blend: AUG-CC-PVTZ-JKFIT

    Orbital Energies [Eh]
    ---------------------

    Doubly Occupied:

       1A    -92.230668     2A    -20.621088     3A    -20.566678
       4A    -20.561982     5A    -11.286836     6A    -11.267992
       7A    -11.267698     8A    -11.263473     9A    -11.262778
      10A    -11.257732    11A    -11.241824    12A    -11.240797
      13A     -9.193550    14A     -6.879198    15A     -6.877858
      16A     -6.877615    17A     -1.502589    18A     -1.398353
      19A     -1.352766    20A     -1.188606    21A     -1.082170
      22A     -1.076765    23A     -0.963403    24A     -0.954305
      25A     -0.931130    26A     -0.829326    27A     -0.810496
      28A     -0.753024    29A     -0.724912    30A     -0.693254
      31A     -0.684867    32A     -0.673325    33A     -0.631891
      34A     -0.603070    35A     -0.601388    36A     -0.592370
      37A     -0.585739    38A     -0.577827    39A     -0.570161
      40A     -0.548523    41A     -0.538415    42A     -0.525613
      43A     -0.509396    44A     -0.508030    45A     -0.502182
      46A     -0.485843    47A     -0.474917    48A     -0.364082
      49A     -0.345623

  @DF-RHF Final Energy:  -931.05283969773689

   => Energetics <=

    Nuclear Repulsion Energy =            831.2109348759811382
    One-Electron Energy =               -2927.5632967084789016
    Two-Electron Energy =                1165.2995221347609913
    Total Energy =                       -931.0528396977369994
  Basis Set: (AUG-CC-PVTZ AUX)
    Blend: AUG-CC-PVTZ-RI
    Molecular point group: c1

    Geometry (in Angstrom), charge = 0, multiplicity = 1:

       Center              X                  Y                   Z               Mass
    ------------   -----------------  -----------------  -----------------  -----------------
         S           -1.898622573270    -0.008145911813    -0.127488551570    31.972071174400
         O           -2.269628573270    -0.165699911813     1.468145448430    15.994914619570
         O           -2.336543573270    -1.230019911813    -0.783314551570    15.994914619570
         O           -2.380466573270     1.313398088187    -0.530218551570    15.994914619570
         C           -0.132218573270     0.002165088187    -0.078385551570    12.000000000000
         C            1.940748426730    -1.215741911813     0.036915448430    12.000000000000
         C            1.931979426730     1.237022088187     0.017840448430    12.000000000000
         C            0.534994426730     1.226472088187    -0.053708551570    12.000000000000
         C            0.544565426730    -1.216975911813    -0.040101551570    12.000000000000
         C            2.611859426730     0.013644088187     0.064210448430    12.000000000000
         C            2.707387426730    -2.512275911813     0.042234448430    12.000000000000
         C            2.689108426730     2.539077088187    -0.001541551570    12.000000000000
         H           -0.030428573270     2.153943088187    -0.103677551570     1.007825032230
         H           -0.013048573270    -2.149798911813    -0.076609551570     1.007825032230
         H            3.700133426730     0.018111088187     0.128636448430     1.007825032230
         H            2.121167426730    -3.313238911813     0.500271448430     1.007825032230
         H            2.955943426730    -2.822130911813    -0.978329551570     1.007825032230
         H            3.643574426730    -2.412027911813     0.598169448430     1.007825032230
         H            2.933784426730     2.832580088187    -1.027862551570     1.007825032230
         H            2.098303426730     3.344369088187     0.443061448430     1.007825032230
         H            3.627037426730     2.455637088187     0.554256448430     1.007825032230
         H           -2.667710073270     0.583678488187     1.701968048430     1.007825032230

  Basis Set: AUG-CC-PVTZ
    Blend: AUG-CC-PVTZ
  Basis Set: (AUG-CC-PVTZ AUX)
    Blend: AUG-CC-PVTZ-JKFIT
	 Reference Energy          =    -931.0528396977368857 [Eh]
	 Singles Energy            =      -0.0000000000000000 [Eh]
	 Same-Spin Energy          =      -0.6200199286517788 [Eh]
	 Opposite-Spin Energy      =      -1.8649085871690789 [Eh]
	 Correlation Energy        =      -2.4849285158208576 [Eh]
	 Total Energy              =    -933.5377682135577970 [Eh]

	 ================> DF-SCS-MP2 Energies <==================
	-----------------------------------------------------------
	 SCS Same-Spin Scale       =       0.3333333333333333 [-]
	 SCS Opposite-Spin Scale   =       1.2000000000000000 [-]
	 SCS Same-Spin Energy      =      -0.2066733095505929 [Eh]
	 SCS Opposite-Spin Energy  =      -2.2378903046028946 [Eh]
	 SCS Correlation Energy    =      -2.4445636141534877 [Eh]
	 SCS Total Energy          =    -933.4974033118903662 [Eh]
	-----------------------------------------------------------

  Dipole Moment: [D]
     X:     4.5288      Y:     0.9087      Z:     1.7976     Total:     4.9566

*** Psi4 exiting successfully. Buy a developer a beer!
