                               Psi4 1.4a3.dev225

  ==> Input File <==

--------------------------------------------------------------------------
#psi4
#
memory 32 gb

molecule  {
0 1
  S       -1.9906940    -0.0125100    -0.1365530
  O       -2.3617000    -0.1700640     1.4590810
  O       -2.4286150    -1.2343840    -0.7923790
  O       -2.4725380     1.3090340    -0.5392830
  C       -0.2242900    -0.0021990    -0.0874500
  C        1.8486770    -1.2201060     0.0278510
  C        1.8399080     1.2326580     0.0087760
  C        0.4429230     1.2221080    -0.0627730
  C        0.4524940    -1.2213400    -0.0491660
  C        2.5197880     0.0092800     0.0551460
  C        2.6153160    -2.5166400     0.0331700
  C        2.5970370     2.5347130    -0.0106060
  H       -0.1225000     2.1495790    -0.1127420
  H       -0.1051200    -2.1541630    -0.0856740
  H        3.6080620     0.0137470     0.1195720
  H        2.0153597    -3.3147113     0.4782858
  H        2.8638720    -2.8264950    -0.9873940
  H        3.5515030    -2.4163920     0.5891050
  H        2.8417130     2.8282160    -1.0369270
  H        2.0062320     3.3400050     0.4339970
  H        3.5349660     2.4512730     0.5451920
  H       -2.8050090     0.6644540     1.7194690
units angstrom
no_reorient  #important for SAPT in psi4, default
symmetry c1  #important for SAPT in psi4, default
}

set PROPERTIES_ORIGIN ["COM"]
properties('MP2/aug-cc-pvtz', properties = ['dipole'])
--------------------------------------------------------------------------

    Molecular point group: c1
  Charge       = 0
  Multiplicity = 1
  Basis Set: AUG-CC-PVTZ
    Blend: AUG-CC-PVTZ
  Basis Set: (AUG-CC-PVTZ AUX)
    Blend: AUG-CC-PVTZ-JKFIT

    Orbital Energies [Eh]
    ---------------------

    Doubly Occupied:

       1A    -92.228781     2A    -20.628648     3A    -20.564986
       4A    -20.560773     5A    -11.286078     6A    -11.267435
       7A    -11.267041     8A    -11.262748     9A    -11.262038
      10A    -11.257046    11A    -11.241466    12A    -11.240423
      13A     -9.191687    14A     -6.877307    15A     -6.876007
      16A     -6.875769    17A     -1.492723    18A     -1.379086
      19A     -1.351444    20A     -1.187874    21A     -1.081691
      22A     -1.075443    23A     -0.962481    24A     -0.953704
      25A     -0.924044    26A     -0.819153    27A     -0.809768
      28A     -0.740066    29A     -0.722796    30A     -0.691232
      31A     -0.683765    32A     -0.670763    33A     -0.627834
      34A     -0.602227    35A     -0.600537    36A     -0.591786
      37A     -0.584656    38A     -0.574572    39A     -0.569823
      40A     -0.548756    41A     -0.537684    42A     -0.523573
      43A     -0.508265    44A     -0.506658    45A     -0.500826
      46A     -0.483998    47A     -0.473614    48A     -0.363241
      49A     -0.344977

  @DF-RHF Final Energy:  -931.05738634505042

   => Energetics <=

    Nuclear Repulsion Energy =            830.4998250385592655
    One-Electron Energy =               -2926.3598360071296156
    Two-Electron Energy =                1164.8026246235199324
    Total Energy =                       -931.0573863450504177
  Basis Set: (AUG-CC-PVTZ AUX)
    Blend: AUG-CC-PVTZ-RI
    Molecular point group: c1

    Geometry (in Angstrom), charge = 0, multiplicity = 1:

       Center              X                  Y                   Z               Mass
    ------------   -----------------  -----------------  -----------------  -----------------
         S           -1.898303143202    -0.008622811948    -0.127562467561    31.972071174400
         O           -2.269309143202    -0.166176811948     1.468071532439    15.994914619570
         O           -2.336224143202    -1.230496811948    -0.783388467561    15.994914619570
         O           -2.380147143202     1.312921188052    -0.530292467561    15.994914619570
         C           -0.131899143202     0.001688188052    -0.078459467561    12.000000000000
         C            1.941067856798    -1.216218811948     0.036841532439    12.000000000000
         C            1.932298856798     1.236545188052     0.017766532439    12.000000000000
         C            0.535313856798     1.225995188052    -0.053782467561    12.000000000000
         C            0.544884856798    -1.217452811948    -0.040175467561    12.000000000000
         C            2.612178856798     0.013167188052     0.064136532439    12.000000000000
         C            2.707706856798    -2.512752811948     0.042160532439    12.000000000000
         C            2.689427856798     2.538600188052    -0.001615467561    12.000000000000
         H           -0.030109143202     2.153466188052    -0.103751467561     1.007825032230
         H           -0.012729143202    -2.150275811948    -0.076683467561     1.007825032230
         H            3.700452856798     0.017634188052     0.128562532439     1.007825032230
         H            2.107750556798    -3.310824111948     0.487276332439     1.007825032230
         H            2.956262856798    -2.822607811948    -0.978403467561     1.007825032230
         H            3.643893856798    -2.412504811948     0.598095532439     1.007825032230
         H            2.934103856798     2.832103188052    -1.027936467561     1.007825032230
         H            2.098622856798     3.343892188052     0.442987532439     1.007825032230
         H            3.627356856798     2.455160188052     0.554182532439     1.007825032230
         H           -2.712618143202     0.668341188052     1.728459532439     1.007825032230

  Basis Set: AUG-CC-PVTZ
    Blend: AUG-CC-PVTZ
  Basis Set: (AUG-CC-PVTZ AUX)
    Blend: AUG-CC-PVTZ-JKFIT
	 Reference Energy          =    -931.0573863450504177 [Eh]
	 Singles Energy            =      -0.0000000000000000 [Eh]
	 Same-Spin Energy          =      -0.6213095530398476 [Eh]
	 Opposite-Spin Energy      =      -1.8676940634317070 [Eh]
	 Correlation Energy        =      -2.4890036164715545 [Eh]
	 Total Energy              =    -933.5463899615219816 [Eh]

	 ================> DF-SCS-MP2 Energies <==================
	-----------------------------------------------------------
	 SCS Same-Spin Scale       =       0.3333333333333333 [-]
	 SCS Opposite-Spin Scale   =       1.2000000000000000 [-]
	 SCS Same-Spin Energy      =      -0.2071031843466158 [Eh]
	 SCS Opposite-Spin Energy  =      -2.2412328761180484 [Eh]
	 SCS Correlation Energy    =      -2.4483360604646642 [Eh]
	 SCS Total Energy          =    -933.5057224055150300 [Eh]
	-----------------------------------------------------------

  Dipole Moment: [D]
     X:     4.4274      Y:     1.0034      Z:     1.8842     Total:     4.9151

*** Psi4 exiting successfully. Buy a developer a beer!
