                               Psi4 1.4a3.dev225

  ==> Input File <==

--------------------------------------------------------------------------
#psi4
#
memory 32 gb

molecule  {
0 1
  S       -1.9906940    -0.0125100    -0.1365530
  O       -2.3617000    -0.1700640     1.4590810
  O       -2.4286150    -1.2343840    -0.7923790
  O       -2.5676927     1.2727854    -0.5314350
  C       -0.2242900    -0.0021990    -0.0874500
  C        1.8486770    -1.2201060     0.0278510
  C        1.8399080     1.2326580     0.0087760
  C        0.4429230     1.2221080    -0.0627730
  C        0.4524940    -1.2213400    -0.0491660
  C        2.5197880     0.0092800     0.0551460
  C        2.6153160    -2.5166400     0.0331700
  C        2.5970370     2.5347130    -0.0106060
  H       -0.1225000     2.1495790    -0.1127420
  H       -0.1051200    -2.1541630    -0.0856740
  H        3.6080620     0.0137470     0.1195720
  H        2.0290960    -3.3176030     0.4912070
  H        2.8638720    -2.8264950    -0.9873940
  H        3.5515030    -2.4163920     0.5891050
  H        2.8417130     2.8282160    -1.0369270
  H        2.0062320     3.3400050     0.4339970
  H        3.5349660     2.4512730     0.5451920
  H       -2.8050090     0.6644540     1.7194690
units angstrom
no_reorient  #important for SAPT in psi4, default
symmetry c1  #important for SAPT in psi4, default
}

set PROPERTIES_ORIGIN ["COM"]
properties('MP2/aug-cc-pvtz', properties = ['dipole'])
--------------------------------------------------------------------------

    Molecular point group: c1
  Charge       = 0
  Multiplicity = 1
  Basis Set: AUG-CC-PVTZ
    Blend: AUG-CC-PVTZ
  Basis Set: (AUG-CC-PVTZ AUX)
    Blend: AUG-CC-PVTZ-JKFIT

    Orbital Energies [Eh]
    ---------------------

    Doubly Occupied:

       1A    -92.227376     2A    -20.624940     3A    -20.563300
       4A    -20.556260     5A    -11.290252     6A    -11.269770
       7A    -11.269380     8A    -11.265952     9A    -11.264791
      10A    -11.259417    11A    -11.243098    12A    -11.241822
      13A     -9.190431    14A     -6.876046    15A     -6.874647
      16A     -6.874570    17A     -1.491144    18A     -1.375966
      19A     -1.346853    20A     -1.190580    21A     -1.083772
      22A     -1.078443    23A     -0.964251    24A     -0.955967
      25A     -0.925553    26A     -0.818833    27A     -0.812120
      28A     -0.739382    29A     -0.721956    30A     -0.691924
      31A     -0.684417    32A     -0.670611    33A     -0.625484
      34A     -0.604145    35A     -0.602505    36A     -0.593910
      37A     -0.586892    38A     -0.573564    39A     -0.569042
      40A     -0.549639    41A     -0.539542    42A     -0.521242
      43A     -0.510233    44A     -0.506432    45A     -0.499386
      46A     -0.480919    47A     -0.474463    48A     -0.365801
      49A     -0.347338

  @DF-RHF Final Energy:  -931.05716476903820

   => Energetics <=

    Nuclear Repulsion Energy =            829.7038321165695152
    One-Electron Energy =               -2924.7332650272478531
    Two-Electron Energy =                1163.9722681416399155
    Total Energy =                       -931.0571647690383088
  Basis Set: (AUG-CC-PVTZ AUX)
    Blend: AUG-CC-PVTZ-RI
    Molecular point group: c1

    Geometry (in Angstrom), charge = 0, multiplicity = 1:

       Center              X                  Y                   Z               Mass
    ------------   -----------------  -----------------  -----------------  -----------------
         S           -1.890196351548    -0.005490565946    -0.128307221774    31.972071174400
         O           -2.261202351548    -0.163044565946     1.467326778226    15.994914619570
         O           -2.328117351548    -1.227364565946    -0.784133221774    15.994914619570
         O           -2.467195051548     1.279804834054    -0.523189221774    15.994914619570
         C           -0.123792351548     0.004820434054    -0.079204221774    12.000000000000
         C            1.949174648452    -1.213086565946     0.036096778226    12.000000000000
         C            1.940405648452     1.239677434054     0.017021778226    12.000000000000
         C            0.543420648452     1.229127434054    -0.054527221774    12.000000000000
         C            0.552991648452    -1.214320565946    -0.040920221774    12.000000000000
         C            2.620285648452     0.016299434054     0.063391778226    12.000000000000
         C            2.715813648452    -2.509620565946     0.041415778226    12.000000000000
         C            2.697534648452     2.541732434054    -0.002360221774    12.000000000000
         H           -0.022002351548     2.156598434054    -0.104496221774     1.007825032230
         H           -0.004622351548    -2.147143565946    -0.077428221774     1.007825032230
         H            3.708559648452     0.020766434054     0.127817778226     1.007825032230
         H            2.129593648452    -3.310583565946     0.499452778226     1.007825032230
         H            2.964369648452    -2.819475565946    -0.979148221774     1.007825032230
         H            3.652000648452    -2.409372565946     0.597350778226     1.007825032230
         H            2.942210648452     2.835235434054    -1.028681221774     1.007825032230
         H            2.106729648452     3.347024434054     0.442242778226     1.007825032230
         H            3.635463648452     2.458292434054     0.553437778226     1.007825032230
         H           -2.704511351548     0.671473434054     1.727714778226     1.007825032230

  Basis Set: AUG-CC-PVTZ
    Blend: AUG-CC-PVTZ
  Basis Set: (AUG-CC-PVTZ AUX)
    Blend: AUG-CC-PVTZ-JKFIT
	 Reference Energy          =    -931.0571647690381951 [Eh]
	 Singles Energy            =      -0.0000000000000000 [Eh]
	 Same-Spin Energy          =      -0.6210641719387169 [Eh]
	 Opposite-Spin Energy      =      -1.8672399245129374 [Eh]
	 Correlation Energy        =      -2.4883040964516541 [Eh]
	 Total Energy              =    -933.5454688654898519 [Eh]

	 ================> DF-SCS-MP2 Energies <==================
	-----------------------------------------------------------
	 SCS Same-Spin Scale       =       0.3333333333333333 [-]
	 SCS Opposite-Spin Scale   =       1.2000000000000000 [-]
	 SCS Same-Spin Energy      =      -0.2070213906462390 [Eh]
	 SCS Opposite-Spin Energy  =      -2.2406879094155250 [Eh]
	 SCS Correlation Energy    =      -2.4477093000617640 [Eh]
	 SCS Total Energy          =    -933.5048740690999693 [Eh]
	-----------------------------------------------------------

  Dipole Moment: [D]
     X:     4.7795      Y:     1.0599      Z:     1.8700     Total:     5.2405

*** Psi4 exiting successfully. Buy a developer a beer!
