                               Psi4 1.4a3.dev225

  ==> Input File <==

--------------------------------------------------------------------------
#psi4
#
memory 32 gb

molecule  {
0 1
  S       -1.9906940    -0.0125100    -0.1365530
  O       -2.3617000    -0.1700640     1.4590810
  O       -2.4286150    -1.2343840    -0.7923790
  O       -2.4725380     1.3090340    -0.5392830
  C       -0.2242900    -0.0021990    -0.0874500
  C        1.8486770    -1.2201060     0.0278510
  C        1.8399080     1.2326580     0.0087760
  C        0.4429230     1.2221080    -0.0627730
  C        0.4524940    -1.2213400    -0.0491660
  C        2.5683380    -0.0780810     0.0584573
  C        2.6153160    -2.5166400     0.0331700
  C        2.5970370     2.5347130    -0.0106060
  H       -0.1225000     2.1495790    -0.1127420
  H       -0.1051200    -2.1541630    -0.0856740
  H        3.6080620     0.0137470     0.1195720
  H        2.0290960    -3.3176030     0.4912070
  H        2.8638720    -2.8264950    -0.9873940
  H        3.5515030    -2.4163920     0.5891050
  H        2.8417130     2.8282160    -1.0369270
  H        2.0062320     3.3400050     0.4339970
  H        3.5349660     2.4512730     0.5451920
  H       -2.8050090     0.6644540     1.7194690
units angstrom
no_reorient  #important for SAPT in psi4, default
symmetry c1  #important for SAPT in psi4, default
}

set PROPERTIES_ORIGIN ["COM"]
properties('MP2/aug-cc-pvtz', properties = ['dipole'])
--------------------------------------------------------------------------

    Molecular point group: c1
  Charge       = 0
  Multiplicity = 1
  Basis Set: AUG-CC-PVTZ
    Blend: AUG-CC-PVTZ
  Basis Set: (AUG-CC-PVTZ AUX)
    Blend: AUG-CC-PVTZ-JKFIT

    Orbital Energies [Eh]
    ---------------------

    Doubly Occupied:

       1A    -92.229092     2A    -20.629015     3A    -20.565487
       4A    -20.560897     5A    -11.287192     6A    -11.276897
       7A    -11.265145     8A    -11.261609     9A    -11.259632
      10A    -11.257484    11A    -11.242396    12A    -11.237446
      13A     -9.192016    14A     -6.877635    15A     -6.876333
      16A     -6.876100    17A     -1.493047    18A     -1.379379
      19A     -1.351752    20A     -1.185002    21A     -1.085519
      22A     -1.070467    23A     -0.959929    24A     -0.953363
      25A     -0.926481    26A     -0.821755    27A     -0.803679
      28A     -0.740386    29A     -0.723405    30A     -0.698412
      31A     -0.682040    32A     -0.671823    33A     -0.627830
      34A     -0.600142    35A     -0.599805    36A     -0.591205
      37A     -0.584976    38A     -0.580487    39A     -0.570104
      40A     -0.548908    41A     -0.543883    42A     -0.523664
      43A     -0.507095    44A     -0.501165    45A     -0.493367
      46A     -0.484393    47A     -0.473334    48A     -0.365979
      49A     -0.340330

  @DF-RHF Final Energy:  -931.04541867210423

   => Energetics <=

    Nuclear Repulsion Energy =            829.5723767816484724
    One-Electron Energy =               -2924.4806238859459881
    Two-Electron Energy =                1163.8628284321932824
    Total Energy =                       -931.0454186721042333
  Basis Set: (AUG-CC-PVTZ AUX)
    Blend: AUG-CC-PVTZ-RI
    Molecular point group: c1

    Geometry (in Angstrom), charge = 0, multiplicity = 1:

       Center              X                  Y                   Z               Mass
    ------------   -----------------  -----------------  -----------------  -----------------
         S           -1.901509225807    -0.002972015279    -0.127846058769    31.972071174400
         O           -2.272515225807    -0.160526015279     1.467787941231    15.994914619570
         O           -2.339430225807    -1.224846015279    -0.783672058769    15.994914619570
         O           -2.383353225807     1.318571984721    -0.530576058769    15.994914619570
         C           -0.135105225807     0.007338984721    -0.078743058769    12.000000000000
         C            1.937861774193    -1.210568015279     0.036557941231    12.000000000000
         C            1.929092774193     1.242195984721     0.017482941231    12.000000000000
         C            0.532107774193     1.231645984721    -0.054066058769    12.000000000000
         C            0.541678774193    -1.211802015279    -0.040459058769    12.000000000000
         C            2.657522774193    -0.068543015279     0.067164241231    12.000000000000
         C            2.704500774193    -2.507102015279     0.041876941231    12.000000000000
         C            2.686221774193     2.544250984721    -0.001899058769    12.000000000000
         H           -0.033315225807     2.159116984721    -0.104035058769     1.007825032230
         H           -0.015935225807    -2.144625015279    -0.076967058769     1.007825032230
         H            3.697246774193     0.023284984721     0.128278941231     1.007825032230
         H            2.118280774193    -3.308065015279     0.499913941231     1.007825032230
         H            2.953056774193    -2.816957015279    -0.978687058769     1.007825032230
         H            3.640687774193    -2.406854015279     0.597811941231     1.007825032230
         H            2.930897774193     2.837753984721    -1.028220058769     1.007825032230
         H            2.095416774193     3.349542984721     0.442703941231     1.007825032230
         H            3.624150774193     2.460810984721     0.553898941231     1.007825032230
         H           -2.715824225807     0.673991984721     1.728175941231     1.007825032230

  Basis Set: AUG-CC-PVTZ
    Blend: AUG-CC-PVTZ
  Basis Set: (AUG-CC-PVTZ AUX)
    Blend: AUG-CC-PVTZ-JKFIT
	 Reference Energy          =    -931.0454186721042333 [Eh]
	 Singles Energy            =      -0.0000000000000000 [Eh]
	 Same-Spin Energy          =      -0.6212148493023815 [Eh]
	 Opposite-Spin Energy      =      -1.8684494577363402 [Eh]
	 Correlation Energy        =      -2.4896643070387219 [Eh]
	 Total Energy              =    -933.5350829791429987 [Eh]

	 ================> DF-SCS-MP2 Energies <==================
	-----------------------------------------------------------
	 SCS Same-Spin Scale       =       0.3333333333333333 [-]
	 SCS Opposite-Spin Scale   =       1.2000000000000000 [-]
	 SCS Same-Spin Energy      =      -0.2070716164341271 [Eh]
	 SCS Opposite-Spin Energy  =      -2.2421393492836081 [Eh]
	 SCS Correlation Energy    =      -2.4492109657177354 [Eh]
	 SCS Total Energy          =    -933.4946296378219586 [Eh]
	-----------------------------------------------------------

  Dipole Moment: [D]
     X:     4.4272      Y:     1.1006      Z:     1.8892     Total:     4.9376

*** Psi4 exiting successfully. Buy a developer a beer!
