                               Psi4 1.4a3.dev225

  ==> Input File <==

--------------------------------------------------------------------------
#psi4
#
memory 32 gb

molecule  {
0 1
  S       -1.9906940    -0.0125100    -0.1365530
  O       -2.3617000    -0.1700640     1.4590810
  O       -2.4286150    -1.2343840    -0.7923790
  O       -2.4725380     1.3090340    -0.5392830
  C       -0.2242900    -0.0021990    -0.0874500
  C        1.8486770    -1.2201060     0.0278510
  C        1.8399080     1.2326580     0.0087760
  C        0.4429230     1.2221080    -0.0627730
  C        0.4524940    -1.2213400    -0.0491660
  C        2.5197880     0.0092800     0.0551460
  C        2.6153160    -2.5166400     0.0331700
  C        2.6070898     2.5520010    -0.0108633
  H       -0.1225000     2.1495790    -0.1127420
  H       -0.1051200    -2.1541630    -0.0856740
  H        3.6080620     0.0137470     0.1195720
  H        2.0290960    -3.3176030     0.4912070
  H        2.8638720    -2.8264950    -0.9873940
  H        3.5515030    -2.4163920     0.5891050
  H        2.8417130     2.8282160    -1.0369270
  H        2.0062320     3.3400050     0.4339970
  H        3.5349660     2.4512730     0.5451920
  H       -2.8050090     0.6644540     1.7194690
units angstrom
no_reorient  #important for SAPT in psi4, default
symmetry c1  #important for SAPT in psi4, default
}

set PROPERTIES_ORIGIN ["COM"]
properties('MP2/aug-cc-pvtz', properties = ['dipole'])
--------------------------------------------------------------------------

    Molecular point group: c1
  Charge       = 0
  Multiplicity = 1
  Basis Set: AUG-CC-PVTZ
    Blend: AUG-CC-PVTZ
  Basis Set: (AUG-CC-PVTZ AUX)
    Blend: AUG-CC-PVTZ-JKFIT

    Orbital Energies [Eh]
    ---------------------

    Doubly Occupied:

       1A    -92.228720     2A    -20.628601     3A    -20.564935
       4A    -20.560716     5A    -11.285991     6A    -11.268194
       7A    -11.267051     8A    -11.262760     9A    -11.261984
      10A    -11.257091    11A    -11.240993    12A    -11.240309
      13A     -9.191627    14A     -6.877247    15A     -6.875947
      16A     -6.875709    17A     -1.492671    18A     -1.379037
      19A     -1.351392    20A     -1.187332    21A     -1.080200
      22A     -1.074647    23A     -0.962622    24A     -0.953876
      25A     -0.923884    26A     -0.819081    27A     -0.809872
      28A     -0.739917    29A     -0.722684    30A     -0.691049
      31A     -0.683460    32A     -0.670437    33A     -0.627755
      34A     -0.601705    35A     -0.600057    36A     -0.590683
      37A     -0.586201    38A     -0.574515    39A     -0.571032
      40A     -0.549532    41A     -0.537570    42A     -0.523686
      43A     -0.507896    44A     -0.505371    45A     -0.501219
      46A     -0.483929    47A     -0.473388    48A     -0.363386
      49A     -0.345313

  @DF-RHF Final Energy:  -931.05734721524982

   => Energetics <=

    Nuclear Repulsion Energy =            830.0899924267681627
    One-Electron Energy =               -2925.5481326874269143
    Two-Electron Energy =                1164.4007930454088182
    Total Energy =                       -931.0573472152498198
  Basis Set: (AUG-CC-PVTZ AUX)
    Blend: AUG-CC-PVTZ-RI
    Molecular point group: c1

    Geometry (in Angstrom), charge = 0, multiplicity = 1:

       Center              X                  Y                   Z               Mass
    ------------   -----------------  -----------------  -----------------  -----------------
         S           -1.899026003630    -0.009722291081    -0.127615869907    31.972071174400
         O           -2.270032003630    -0.167276291081     1.468018130093    15.994914619570
         O           -2.336947003630    -1.231596291081    -0.783441869907    15.994914619570
         O           -2.380870003630     1.311821708919    -0.530345869907    15.994914619570
         C           -0.132622003630     0.000588708919    -0.078512869907    12.000000000000
         C            1.940344996370    -1.217318291081     0.036788130093    12.000000000000
         C            1.931575996370     1.235445708919     0.017713130093    12.000000000000
         C            0.534590996370     1.224895708919    -0.053835869907    12.000000000000
         C            0.544161996370    -1.218552291081    -0.040228869907    12.000000000000
         C            2.611455996370     0.012067708919     0.064083130093    12.000000000000
         C            2.706983996370    -2.513852291081     0.042107130093    12.000000000000
         C            2.698757796370     2.554788708919    -0.001926169907    12.000000000000
         H           -0.030832003630     2.152366708919    -0.103804869907     1.007825032230
         H           -0.013452003630    -2.151375291081    -0.076736869907     1.007825032230
         H            3.699729996370     0.016534708919     0.128509130093     1.007825032230
         H            2.120763996370    -3.314815291081     0.500144130093     1.007825032230
         H            2.955539996370    -2.823707291081    -0.978456869907     1.007825032230
         H            3.643170996370    -2.413604291081     0.598042130093     1.007825032230
         H            2.933380996370     2.831003708919    -1.027989869907     1.007825032230
         H            2.097899996370     3.342792708919     0.442934130093     1.007825032230
         H            3.626633996370     2.454060708919     0.554129130093     1.007825032230
         H           -2.713341003630     0.667241708919     1.728406130093     1.007825032230

  Basis Set: AUG-CC-PVTZ
    Blend: AUG-CC-PVTZ
  Basis Set: (AUG-CC-PVTZ AUX)
    Blend: AUG-CC-PVTZ-JKFIT
	 Reference Energy          =    -931.0573472152498198 [Eh]
	 Singles Energy            =      -0.0000000000000000 [Eh]
	 Same-Spin Energy          =      -0.6211440658406181 [Eh]
	 Opposite-Spin Energy      =      -1.8675544171500820 [Eh]
	 Correlation Energy        =      -2.4886984829907002 [Eh]
	 Total Energy              =    -933.5460456982405049 [Eh]

	 ================> DF-SCS-MP2 Energies <==================
	-----------------------------------------------------------
	 SCS Same-Spin Scale       =       0.3333333333333333 [-]
	 SCS Opposite-Spin Scale   =       1.2000000000000000 [-]
	 SCS Same-Spin Energy      =      -0.2070480219468727 [Eh]
	 SCS Opposite-Spin Energy  =      -2.2410653005800985 [Eh]
	 SCS Correlation Energy    =      -2.4481133225269711 [Eh]
	 SCS Total Energy          =    -933.5054605377767984 [Eh]
	-----------------------------------------------------------

  Dipole Moment: [D]
     X:     4.4271      Y:     1.0004      Z:     1.8907     Total:     4.9168

*** Psi4 exiting successfully. Buy a developer a beer!
