                               Psi4 1.4a3.dev225

  ==> Input File <==

--------------------------------------------------------------------------
#psi4
#
memory 32 gb

molecule  {
0 1
  S       -1.9906940    -0.0125100    -0.1365530
  O       -2.3617000    -0.1700640     1.4590810
  O       -2.4286150    -1.2343840    -0.7923790
  O       -2.4725380     1.3090340    -0.5392830
  C       -0.2242900    -0.0021990    -0.0874500
  C        1.8486770    -1.2201060     0.0278510
  C        1.8399080     1.2326580     0.0087760
  C        0.4429230     1.2221080    -0.0627730
  C        0.4524940    -1.2213400    -0.0491660
  C        2.5197880     0.0092800     0.0551460
  C        2.6153160    -2.5166400     0.0331700
  C        2.5970370     2.5347130    -0.0106060
  H       -0.1225000     2.1495790    -0.1127420
  H       -0.1051200    -2.1541630    -0.0856740
  H        3.6080620     0.0137470     0.1195720
  H        2.0290960    -3.3176030     0.4912070
  H        2.8638720    -2.8264950    -0.9873940
  H        3.5086928    -2.4209762     0.5636831
  H        2.8417130     2.8282160    -1.0369270
  H        2.0062320     3.3400050     0.4339970
  H        3.5349660     2.4512730     0.5451920
  H       -2.8050090     0.6644540     1.7194690
units angstrom
no_reorient  #important for SAPT in psi4, default
symmetry c1  #important for SAPT in psi4, default
}

set PROPERTIES_ORIGIN ["COM"]
properties('MP2/aug-cc-pvtz', properties = ['dipole'])
--------------------------------------------------------------------------

    Molecular point group: c1
  Charge       = 0
  Multiplicity = 1
  Basis Set: AUG-CC-PVTZ
    Blend: AUG-CC-PVTZ
  Basis Set: (AUG-CC-PVTZ AUX)
    Blend: AUG-CC-PVTZ-JKFIT

    Orbital Energies [Eh]
    ---------------------

    Doubly Occupied:

       1A    -92.228653     2A    -20.628550     3A    -20.564876
       4A    -20.560650     5A    -11.285901     6A    -11.267373
       7A    -11.266738     8A    -11.262623     9A    -11.261732
      10A    -11.257045    11A    -11.241426    12A    -11.234268
      13A     -9.191562    14A     -6.877182    15A     -6.875881
      16A     -6.875644    17A     -1.492613    18A     -1.378982
      19A     -1.351331    20A     -1.187782    21A     -1.082134
      22A     -1.075672    23A     -0.964702    24A     -0.955153
      25A     -0.923936    26A     -0.819307    27A     -0.810656
      28A     -0.740215    29A     -0.722901    30A     -0.691121
      31A     -0.683964    32A     -0.670855    33A     -0.627932
      34A     -0.602972    35A     -0.601168    36A     -0.591557
      37A     -0.587202    38A     -0.575610    39A     -0.570834
      40A     -0.550695    41A     -0.537865    42A     -0.523644
      43A     -0.508097    44A     -0.506671    45A     -0.500704
      46A     -0.483930    47A     -0.473649    48A     -0.363269
      49A     -0.344890

  @DF-RHF Final Energy:  -931.05647822404399

   => Energetics <=

    Nuclear Repulsion Energy =            830.7096482693862072
    One-Electron Energy =               -2926.7680175980476633
    Two-Electron Energy =                1165.0018911046176981
    Total Energy =                       -931.0564782240439854
  Basis Set: (AUG-CC-PVTZ AUX)
    Blend: AUG-CC-PVTZ-RI
    Molecular point group: c1

    Geometry (in Angstrom), charge = 0, multiplicity = 1:

       Center              X                  Y                   Z               Mass
    ------------   -----------------  -----------------  -----------------  -----------------
         S           -1.898145638464    -0.008582312061    -0.127494746358    31.972071174400
         O           -2.269151638464    -0.166136312061     1.468139253642    15.994914619570
         O           -2.336066638464    -1.230456312061    -0.783320746358    15.994914619570
         O           -2.379989638464     1.312961687939    -0.530224746358    15.994914619570
         C           -0.131741638464     0.001728687939    -0.078391746358    12.000000000000
         C            1.941225361536    -1.216178312061     0.036909253642    12.000000000000
         C            1.932456361536     1.236585687939     0.017834253642    12.000000000000
         C            0.535471361536     1.226035687939    -0.053714746358    12.000000000000
         C            0.545042361536    -1.217412312061    -0.040107746358    12.000000000000
         C            2.612336361536     0.013207687939     0.064204253642    12.000000000000
         C            2.707864361536    -2.512712312061     0.042228253642    12.000000000000
         C            2.689585361536     2.538640687939    -0.001547746358    12.000000000000
         H           -0.029951638464     2.153506687939    -0.103683746358     1.007825032230
         H           -0.012571638464    -2.150235312061    -0.076615746358     1.007825032230
         H            3.700610361536     0.017674687939     0.128630253642     1.007825032230
         H            2.121644361536    -3.313675312061     0.500265253642     1.007825032230
         H            2.956420361536    -2.822567312061    -0.978335746358     1.007825032230
         H            3.601241161536    -2.417048512061     0.572741353642     1.007825032230
         H            2.934261361536     2.832143687939    -1.027868746358     1.007825032230
         H            2.098780361536     3.343932687939     0.443055253642     1.007825032230
         H            3.627514361536     2.455200687939     0.554250253642     1.007825032230
         H           -2.712460638464     0.668381687939     1.728527253642     1.007825032230

  Basis Set: AUG-CC-PVTZ
    Blend: AUG-CC-PVTZ
  Basis Set: (AUG-CC-PVTZ AUX)
    Blend: AUG-CC-PVTZ-JKFIT
	 Reference Energy          =    -931.0564782240439854 [Eh]
	 Singles Energy            =      -0.0000000000000000 [Eh]
	 Same-Spin Energy          =      -0.6212948614177590 [Eh]
	 Opposite-Spin Energy      =      -1.8673860064545194 [Eh]
	 Correlation Energy        =      -2.4886808678722785 [Eh]
	 Total Energy              =    -933.5451590919162754 [Eh]

	 ================> DF-SCS-MP2 Energies <==================
	-----------------------------------------------------------
	 SCS Same-Spin Scale       =       0.3333333333333333 [-]
	 SCS Opposite-Spin Scale   =       1.2000000000000000 [-]
	 SCS Same-Spin Energy      =      -0.2070982871392530 [Eh]
	 SCS Opposite-Spin Energy  =      -2.2408632077454231 [Eh]
	 SCS Correlation Energy    =      -2.4479614948846762 [Eh]
	 SCS Total Energy          =    -933.5044397189286656 [Eh]
	-----------------------------------------------------------

  Dipole Moment: [D]
     X:     4.4502      Y:     0.9942      Z:     1.8979     Total:     4.9391

*** Psi4 exiting successfully. Buy a developer a beer!
