                               Psi4 1.4a3.dev225

  ==> Input File <==

--------------------------------------------------------------------------
#psi4
#
memory 32 gb

molecule  {
0 1
  S       -2.0024001     0.0137196    -0.1364264
  O       -2.3617000    -0.1700640     1.4590810
  O       -2.4286150    -1.2343840    -0.7923790
  O       -2.4725380     1.3090340    -0.5392830
  C       -0.2242900    -0.0021990    -0.0874500
  C        1.8486770    -1.2201060     0.0278510
  C        1.8399080     1.2326580     0.0087760
  C        0.4429230     1.2221080    -0.0627730
  C        0.4524940    -1.2213400    -0.0491660
  C        2.5197880     0.0092800     0.0551460
  C        2.6153160    -2.5166400     0.0331700
  C        2.5970370     2.5347130    -0.0106060
  H       -0.1225000     2.1495790    -0.1127420
  H       -0.1051200    -2.1541630    -0.0856740
  H        3.6080620     0.0137470     0.1195720
  H        2.0290960    -3.3176030     0.4912070
  H        2.8638720    -2.8264950    -0.9873940
  H        3.5515030    -2.4163920     0.5891050
  H        2.8417130     2.8282160    -1.0369270
  H        2.0062320     3.3400050     0.4339970
  H        3.5349660     2.4512730     0.5451920
  H       -2.8050090     0.6644540     1.7194690
units angstrom
no_reorient  #important for SAPT in psi4, default
symmetry c1  #important for SAPT in psi4, default
}

set PROPERTIES_ORIGIN ["COM"]
properties('MP2/aug-cc-pvtz', properties = ['dipole'])
--------------------------------------------------------------------------

    Molecular point group: c1
  Charge       = 0
  Multiplicity = 1
  Basis Set: AUG-CC-PVTZ
    Blend: AUG-CC-PVTZ
  Basis Set: (AUG-CC-PVTZ AUX)
    Blend: AUG-CC-PVTZ-JKFIT

    Orbital Energies [Eh]
    ---------------------

    Doubly Occupied:

       1A    -92.228698     2A    -20.630246     3A    -20.572257
       4A    -20.556183     5A    -11.285614     6A    -11.266626
       7A    -11.266251     8A    -11.261577     9A    -11.260580
      10A    -11.255833    11A    -11.241013    12A    -11.239594
      13A     -9.191722    14A     -6.877356    15A     -6.876153
      16A     -6.875697    17A     -1.497610    18A     -1.384124
      19A     -1.350996    20A     -1.186495    21A     -1.080734
      22A     -1.073087    23A     -0.961486    24A     -0.952790
      25A     -0.921906    26A     -0.818332    27A     -0.808780
      28A     -0.740052    29A     -0.723858    30A     -0.692377
      31A     -0.683436    32A     -0.671462    33A     -0.631751
      34A     -0.601693    35A     -0.600175    36A     -0.590840
      37A     -0.584665    38A     -0.574793    39A     -0.568743
      40A     -0.547353    41A     -0.538647    42A     -0.525412
      43A     -0.510194    44A     -0.507011    45A     -0.499894
      46A     -0.484197    47A     -0.470992    48A     -0.361938
      49A     -0.344144

  @DF-RHF Final Energy:  -931.05643136017704

   => Energetics <=

    Nuclear Repulsion Energy =            830.2906196318134562
    One-Electron Energy =               -2925.9433635483082980
    Two-Electron Energy =                1164.5963125563177982
    Total Energy =                       -931.0564313601769300
  Basis Set: (AUG-CC-PVTZ AUX)
    Blend: AUG-CC-PVTZ-RI
    Molecular point group: c1

    Geometry (in Angstrom), charge = 0, multiplicity = 1:

       Center              X                  Y                   Z               Mass
    ------------   -----------------  -----------------  -----------------  -----------------
         S           -1.908071842451     0.013114622509    -0.127527624311    31.972071174400
         O           -2.267371742451    -0.170668977491     1.467979775689    15.994914619570
         O           -2.334286742451    -1.234988977491    -0.783480224311    15.994914619570
         O           -2.378209742451     1.308429022509    -0.530384224311    15.994914619570
         C           -0.129961742451    -0.002803977491    -0.078551224311    12.000000000000
         C            1.943005257549    -1.220710977491     0.036749775689    12.000000000000
         C            1.934236257549     1.232053022509     0.017674775689    12.000000000000
         C            0.537251257549     1.221503022509    -0.053874224311    12.000000000000
         C            0.546822257549    -1.221944977491    -0.040267224311    12.000000000000
         C            2.614116257549     0.008675022509     0.064044775689    12.000000000000
         C            2.709644257549    -2.517244977491     0.042068775689    12.000000000000
         C            2.691365257549     2.534108022509    -0.001707224311    12.000000000000
         H           -0.028171742451     2.148974022509    -0.103843224311     1.007825032230
         H           -0.010791742451    -2.154767977491    -0.076775224311     1.007825032230
         H            3.702390257549     0.013142022509     0.128470775689     1.007825032230
         H            2.123424257549    -3.318207977491     0.500105775689     1.007825032230
         H            2.958200257549    -2.827099977491    -0.978495224311     1.007825032230
         H            3.645831257549    -2.416996977491     0.598003775689     1.007825032230
         H            2.936041257549     2.827611022509    -1.028028224311     1.007825032230
         H            2.100560257549     3.339400022509     0.442895775689     1.007825032230
         H            3.629294257549     2.450668022509     0.554090775689     1.007825032230
         H           -2.710680742451     0.663849022509     1.728367775689     1.007825032230

  Basis Set: AUG-CC-PVTZ
    Blend: AUG-CC-PVTZ
  Basis Set: (AUG-CC-PVTZ AUX)
    Blend: AUG-CC-PVTZ-JKFIT
	 Reference Energy          =    -931.0564313601770436 [Eh]
	 Singles Energy            =      -0.0000000000000000 [Eh]
	 Same-Spin Energy          =      -0.6211764767891900 [Eh]
	 Opposite-Spin Energy      =      -1.8675415946809526 [Eh]
	 Correlation Energy        =      -2.4887180714701427 [Eh]
	 Total Energy              =    -933.5451494316471326 [Eh]

	 ================> DF-SCS-MP2 Energies <==================
	-----------------------------------------------------------
	 SCS Same-Spin Scale       =       0.3333333333333333 [-]
	 SCS Opposite-Spin Scale   =       1.2000000000000000 [-]
	 SCS Same-Spin Energy      =      -0.2070588255963967 [Eh]
	 SCS Opposite-Spin Energy  =      -2.2410499136171431 [Eh]
	 SCS Correlation Energy    =      -2.4481087392135397 [Eh]
	 SCS Total Energy          =    -933.5045400993906242 [Eh]
	-----------------------------------------------------------

  Dipole Moment: [D]
     X:     4.2735      Y:     1.2327      Z:     1.9005     Total:     4.8368

*** Psi4 exiting successfully. Buy a developer a beer!
