                               Psi4 1.4a3.dev225

  ==> Input File <==

--------------------------------------------------------------------------
#psi4
#
memory 32 gb

molecule  {
0 1
  S       -1.9906940    -0.0125100    -0.1365530
  O       -2.3617000    -0.1700640     1.4590810
  O       -2.4286150    -1.2343840    -0.7923790
  O       -2.4725380     1.3090340    -0.5392830
  C       -0.2242900    -0.0021990    -0.0874500
  C        1.8486770    -1.2201060     0.0278510
  C        1.8399080     1.2326580     0.0087760
  C        0.4429230     1.2221080    -0.0627730
  C        0.4524940    -1.2213400    -0.0491660
  C        2.5197880     0.0092800     0.0551460
  C        2.6153160    -2.5166400     0.0331700
  C        2.5970370     2.5347130    -0.0106060
  H       -0.1225000     2.1495790    -0.1127420
  H       -0.1051200    -2.1541630    -0.0856740
  H        3.4084132     0.0129275     0.1077528
  H        2.0290960    -3.3176030     0.4912070
  H        2.8638720    -2.8264950    -0.9873940
  H        3.5515030    -2.4163920     0.5891050
  H        2.8417130     2.8282160    -1.0369270
  H        2.0062320     3.3400050     0.4339970
  H        3.5349660     2.4512730     0.5451920
  H       -2.8050090     0.6644540     1.7194690
units angstrom
no_reorient  #important for SAPT in psi4, default
symmetry c1  #important for SAPT in psi4, default
}

set PROPERTIES_ORIGIN ["COM"]
properties('MP2/aug-cc-pvtz', properties = ['dipole'])
--------------------------------------------------------------------------

    Molecular point group: c1
  Charge       = 0
  Multiplicity = 1
  Basis Set: AUG-CC-PVTZ
    Blend: AUG-CC-PVTZ
  Basis Set: (AUG-CC-PVTZ AUX)
    Blend: AUG-CC-PVTZ-JKFIT

    Orbital Energies [Eh]
    ---------------------

    Doubly Occupied:

       1A    -92.228371     2A    -20.628325     3A    -20.564609
       4A    -20.560392     5A    -11.285596     6A    -11.266050
       7A    -11.265717     8A    -11.261483     9A    -11.260744
      10A    -11.241664    11A    -11.240541    12A    -11.233142
      13A     -9.191285    14A     -6.876904    15A     -6.875603
      16A     -6.875366    17A     -1.492360    18A     -1.378746
      19A     -1.351068    20A     -1.188804    21A     -1.081014
      22A     -1.080828    23A     -0.967198    24A     -0.953393
      25A     -0.932849    26A     -0.827580    27A     -0.808962
      28A     -0.740599    29A     -0.730909    30A     -0.707480
      31A     -0.685685    32A     -0.670975    33A     -0.627944
      34A     -0.603649    35A     -0.600813    36A     -0.591147
      37A     -0.585422    38A     -0.584511    39A     -0.570465
      40A     -0.548037    41A     -0.543105    42A     -0.523209
      43A     -0.507516    44A     -0.506299    45A     -0.500539
      46A     -0.483635    47A     -0.473631    48A     -0.362824
      49A     -0.344012

  @DF-RHF Final Energy:  -931.02365896741060

   => Energetics <=

    Nuclear Repulsion Energy =            831.7257372550689070
    One-Electron Energy =               -2928.6768011999351984
    Two-Electron Energy =                1165.9274049774558080
    Total Energy =                       -931.0236589674104835
  Basis Set: (AUG-CC-PVTZ AUX)
    Blend: AUG-CC-PVTZ-RI
    Molecular point group: c1

    Geometry (in Angstrom), charge = 0, multiplicity = 1:

       Center              X                  Y                   Z               Mass
    ------------   -----------------  -----------------  -----------------  -----------------
         S           -1.897295982154    -0.008602706920    -0.127568437528    31.972071174400
         O           -2.268301982154    -0.166156706920     1.468065562472    15.994914619570
         O           -2.335216982154    -1.230476706920    -0.783394437528    15.994914619570
         O           -2.379139982154     1.312941293080    -0.530298437528    15.994914619570
         C           -0.130891982154     0.001708293080    -0.078465437528    12.000000000000
         C            1.942075017846    -1.216198706920     0.036835562472    12.000000000000
         C            1.933306017846     1.236565293080     0.017760562472    12.000000000000
         C            0.536321017846     1.226015293080    -0.053788437528    12.000000000000
         C            0.545892017846    -1.217432706920    -0.040181437528    12.000000000000
         C            2.613186017846     0.013187293080     0.064130562472    12.000000000000
         C            2.708714017846    -2.512732706920     0.042154562472    12.000000000000
         C            2.690435017846     2.538620293080    -0.001621437528    12.000000000000
         H           -0.029101982154     2.153486293080    -0.103757437528     1.007825032230
         H           -0.011721982154    -2.150255706920    -0.076689437528     1.007825032230
         H            3.501811217846     0.016834793080     0.116737362472     1.007825032230
         H            2.122494017846    -3.313695706920     0.500191562472     1.007825032230
         H            2.957270017846    -2.822587706920    -0.978409437528     1.007825032230
         H            3.644901017846    -2.412484706920     0.598089562472     1.007825032230
         H            2.935111017846     2.832123293080    -1.027942437528     1.007825032230
         H            2.099630017846     3.343912293080     0.442981562472     1.007825032230
         H            3.628364017846     2.455180293080     0.554176562472     1.007825032230
         H           -2.711610982154     0.668361293080     1.728453562472     1.007825032230

  Basis Set: AUG-CC-PVTZ
    Blend: AUG-CC-PVTZ
  Basis Set: (AUG-CC-PVTZ AUX)
    Blend: AUG-CC-PVTZ-JKFIT
	 Reference Energy          =    -931.0236589674105971 [Eh]
	 Singles Energy            =      -0.0000000000000000 [Eh]
	 Same-Spin Energy          =      -0.6209659722548770 [Eh]
	 Opposite-Spin Energy      =      -1.8669750380975878 [Eh]
	 Correlation Energy        =      -2.4879410103524648 [Eh]
	 Total Energy              =    -933.5115999777630122 [Eh]

	 ================> DF-SCS-MP2 Energies <==================
	-----------------------------------------------------------
	 SCS Same-Spin Scale       =       0.3333333333333333 [-]
	 SCS Opposite-Spin Scale   =       1.2000000000000000 [-]
	 SCS Same-Spin Energy      =      -0.2069886574182923 [Eh]
	 SCS Opposite-Spin Energy  =      -2.2403700457171052 [Eh]
	 SCS Correlation Energy    =      -2.4473587031353974 [Eh]
	 SCS Total Energy          =    -933.4710176705459617 [Eh]
	-----------------------------------------------------------

  Dipole Moment: [D]
     X:     4.4780      Y:     1.0036      Z:     1.8932     Total:     4.9643

*** Psi4 exiting successfully. Buy a developer a beer!
