                               Psi4 1.4a3.dev225

  ==> Input File <==

--------------------------------------------------------------------------
#psi4
#
memory 32 gb

molecule  {
0 1
  S       -1.9906940    -0.0125100    -0.1365530
  O       -2.3617000    -0.1700640     1.4590810
  O       -2.4286150    -1.2343840    -0.7923790
  O       -2.4725380     1.3090340    -0.5392830
  C       -0.2242900    -0.0021990    -0.0874500
  C        1.8486770    -1.2201060     0.0278510
  C        1.8399080     1.2326580     0.0087760
  C        0.4429230     1.2221080    -0.0627730
  C        0.4524940    -1.2213400    -0.0491660
  C        2.6168879    -0.1654419     0.0617685
  C        2.6153160    -2.5166400     0.0331700
  C        2.5970370     2.5347130    -0.0106060
  H       -0.1225000     2.1495790    -0.1127420
  H       -0.1051200    -2.1541630    -0.0856740
  H        3.6080620     0.0137470     0.1195720
  H        2.0290960    -3.3176030     0.4912070
  H        2.8638720    -2.8264950    -0.9873940
  H        3.5515030    -2.4163920     0.5891050
  H        2.8417130     2.8282160    -1.0369270
  H        2.0062320     3.3400050     0.4339970
  H        3.5349660     2.4512730     0.5451920
  H       -2.8050090     0.6644540     1.7194690
units angstrom
no_reorient  #important for SAPT in psi4, default
symmetry c1  #important for SAPT in psi4, default
}

set PROPERTIES_ORIGIN ["COM"]
properties('MP2/aug-cc-pvtz', properties = ['dipole'])
--------------------------------------------------------------------------

    Molecular point group: c1
  Charge       = 0
  Multiplicity = 1
  Basis Set: AUG-CC-PVTZ
    Blend: AUG-CC-PVTZ
  Basis Set: (AUG-CC-PVTZ AUX)
    Blend: AUG-CC-PVTZ-JKFIT

    Orbital Energies [Eh]
    ---------------------

    Doubly Occupied:

       1A    -92.229582     2A    -20.629534     3A    -20.566088
       4A    -20.561202     5A    -11.288811     6A    -11.282900
       7A    -11.267542     8A    -11.258514     9A    -11.256617
      10A    -11.256239    11A    -11.242909    12A    -11.234942
      13A     -9.192522    14A     -6.878140    15A     -6.876838
      16A     -6.876606    17A     -1.493511    18A     -1.379812
      19A     -1.352182    20A     -1.184103    21A     -1.092386
      22A     -1.064861    23A     -0.958408    24A     -0.952374
      25A     -0.929203    26A     -0.823877    27A     -0.800134
      28A     -0.740781    29A     -0.724093    30A     -0.707517
      31A     -0.680511    32A     -0.672937    33A     -0.627933
      34A     -0.599474    35A     -0.597734    36A     -0.590499
      37A     -0.587839    38A     -0.584815    39A     -0.570491
      40A     -0.552046    41A     -0.544506    42A     -0.523858
      43A     -0.507193    44A     -0.500537    45A     -0.484825
      46A     -0.479829    47A     -0.464328    48A     -0.373922
      49A     -0.333746

  @DF-RHF Final Energy:  -931.01467586549370

   => Energetics <=

    Nuclear Repulsion Energy =            828.7826385823016153
    One-Electron Energy =               -2922.8361220253718784
    Two-Electron Energy =                1163.0388075775763355
    Total Energy =                       -931.0146758654937003
  Basis Set: (AUG-CC-PVTZ AUX)
    Blend: AUG-CC-PVTZ-RI
    Molecular point group: c1

    Geometry (in Angstrom), charge = 0, multiplicity = 1:

       Center              X                  Y                   Z               Mass
    ------------   -----------------  -----------------  -----------------  -----------------
         S           -1.904640887029     0.002663109465    -0.128059644309    31.972071174400
         O           -2.275646887029    -0.154890890535     1.467574355691    15.994914619570
         O           -2.342561887029    -1.219210890535    -0.783885644309    15.994914619570
         O           -2.386484887029     1.324207109465    -0.530789644309    15.994914619570
         C           -0.138236887029     0.012974109465    -0.078956644309    12.000000000000
         C            1.934730112971    -1.204932890535     0.036344355691    12.000000000000
         C            1.925961112971     1.247831109465     0.017269355691    12.000000000000
         C            0.528976112971     1.237281109465    -0.054279644309    12.000000000000
         C            0.538547112971    -1.206166890535    -0.040672644309    12.000000000000
         C            2.702941012971    -0.150268790535     0.070261855691    12.000000000000
         C            2.701369112971    -2.501466890535     0.041663355691    12.000000000000
         C            2.683090112971     2.549886109465    -0.002112644309    12.000000000000
         H           -0.036446887029     2.164752109465    -0.104248644309     1.007825032230
         H           -0.019066887029    -2.138989890535    -0.077180644309     1.007825032230
         H            3.694115112971     0.028920109465     0.128065355691     1.007825032230
         H            2.115149112971    -3.302429890535     0.499700355691     1.007825032230
         H            2.949925112971    -2.811321890535    -0.978900644309     1.007825032230
         H            3.637556112971    -2.401218890535     0.597598355691     1.007825032230
         H            2.927766112971     2.843389109465    -1.028433644309     1.007825032230
         H            2.092285112971     3.355178109465     0.442490355691     1.007825032230
         H            3.621019112971     2.466446109465     0.553685355691     1.007825032230
         H           -2.718955887029     0.679627109465     1.727962355691     1.007825032230

  Basis Set: AUG-CC-PVTZ
    Blend: AUG-CC-PVTZ
  Basis Set: (AUG-CC-PVTZ AUX)
    Blend: AUG-CC-PVTZ-JKFIT
	 Reference Energy          =    -931.0146758654937003 [Eh]
	 Singles Energy            =      -0.0000000000000000 [Eh]
	 Same-Spin Energy          =      -0.6211320326920871 [Eh]
	 Opposite-Spin Energy      =      -1.8701887890609288 [Eh]
	 Correlation Energy        =      -2.4913208217530158 [Eh]
	 Total Energy              =    -933.5059966872466930 [Eh]

	 ================> DF-SCS-MP2 Energies <==================
	-----------------------------------------------------------
	 SCS Same-Spin Scale       =       0.3333333333333333 [-]
	 SCS Opposite-Spin Scale   =       1.2000000000000000 [-]
	 SCS Same-Spin Energy      =      -0.2070440108973624 [Eh]
	 SCS Opposite-Spin Energy  =      -2.2442265468731146 [Eh]
	 SCS Correlation Energy    =      -2.4512705577704770 [Eh]
	 SCS Total Energy          =    -933.4659464232641994 [Eh]
	-----------------------------------------------------------

  Dipole Moment: [D]
     X:     4.4073      Y:     1.1695      Z:     1.8888     Total:     4.9355

*** Psi4 exiting successfully. Buy a developer a beer!
