                               Psi4 1.4a3.dev225

  ==> Input File <==

--------------------------------------------------------------------------
#psi4
#
memory 32 gb

molecule  {
0 1
  S       -1.9906940    -0.0125100    -0.1365530
  O       -2.3617000    -0.1700640     1.4590810
  O       -2.4286150    -1.2343840    -0.7923790
  O       -2.4725380     1.3090340    -0.5392830
  C       -0.2242900    -0.0021990    -0.0874500
  C        1.8486770    -1.2201060     0.0278510
  C        1.8399080     1.2326580     0.0087760
  C        0.4928561     1.2224851    -0.0602156
  C        0.4524940    -1.2213400    -0.0491660
  C        2.5197880     0.0092800     0.0551460
  C        2.6153160    -2.5166400     0.0331700
  C        2.5970370     2.5347130    -0.0106060
  H       -0.1225000     2.1495790    -0.1127420
  H       -0.1051200    -2.1541630    -0.0856740
  H        3.6080620     0.0137470     0.1195720
  H        2.0290960    -3.3176030     0.4912070
  H        2.8638720    -2.8264950    -0.9873940
  H        3.5515030    -2.4163920     0.5891050
  H        2.8417130     2.8282160    -1.0369270
  H        2.0062320     3.3400050     0.4339970
  H        3.5349660     2.4512730     0.5451920
  H       -2.8050090     0.6644540     1.7194690
units angstrom
no_reorient  #important for SAPT in psi4, default
symmetry c1  #important for SAPT in psi4, default
}

set PROPERTIES_ORIGIN ["COM"]
properties('MP2/aug-cc-pvtz', properties = ['dipole'])
--------------------------------------------------------------------------

    Molecular point group: c1
  Charge       = 0
  Multiplicity = 1
  Basis Set: AUG-CC-PVTZ
    Blend: AUG-CC-PVTZ
  Basis Set: (AUG-CC-PVTZ AUX)
    Blend: AUG-CC-PVTZ-JKFIT

    Orbital Energies [Eh]
    ---------------------

    Doubly Occupied:

       1A    -92.230073     2A    -20.629031     3A    -20.565305
       4A    -20.561609     5A    -11.286759     6A    -11.266595
       7A    -11.264060     8A    -11.261547     9A    -11.260026
      10A    -11.258023    11A    -11.240540    12A    -11.240389
      13A     -9.192770    14A     -6.878412    15A     -6.877140
      16A     -6.876862    17A     -1.493105    18A     -1.379493
      19A     -1.351875    20A     -1.190211    21A     -1.086040
      22A     -1.072099    23A     -0.962766    24A     -0.952757
      25A     -0.925478    26A     -0.822107    27A     -0.808075
      28A     -0.740578    29A     -0.721021    30A     -0.692155
      31A     -0.683057    32A     -0.671863    33A     -0.628215
      34A     -0.601689    35A     -0.601018    36A     -0.589680
      37A     -0.585197    38A     -0.574379    39A     -0.568573
      40A     -0.546619    41A     -0.539041    42A     -0.523813
      43A     -0.508425    44A     -0.502692    45A     -0.501394
      46A     -0.484375    47A     -0.476202    48A     -0.360938
      49A     -0.350051

  @DF-RHF Final Energy:  -931.05431843619908

   => Energetics <=

    Nuclear Repulsion Energy =            830.4859518237554994
    One-Electron Energy =               -2926.3122984907195132
    Two-Electron Energy =                1164.7720282307650450
    Total Energy =                       -931.0543184361990825
  Basis Set: (AUG-CC-PVTZ AUX)
    Blend: AUG-CC-PVTZ-RI
    Molecular point group: c1

    Geometry (in Angstrom), charge = 0, multiplicity = 1:

       Center              X                  Y                   Z               Mass
    ------------   -----------------  -----------------  -----------------  -----------------
         S           -1.901598441246    -0.008631470920    -0.127797429227    31.972071174400
         O           -2.272604441246    -0.166185470920     1.467836570773    15.994914619570
         O           -2.339519441246    -1.230505470920    -0.783623429227    15.994914619570
         O           -2.383442441246     1.312912529080    -0.530527429227    15.994914619570
         C           -0.135194441246     0.001679529080    -0.078694429227    12.000000000000
         C            1.937772558754    -1.216227470920     0.036606570773    12.000000000000
         C            1.929003558754     1.236536529080     0.017531570773    12.000000000000
         C            0.581951658754     1.226363629080    -0.051460029227    12.000000000000
         C            0.541589558754    -1.217461470920    -0.040410429227    12.000000000000
         C            2.608883558754     0.013158529080     0.063901570773    12.000000000000
         C            2.704411558754    -2.512761470920     0.041925570773    12.000000000000
         C            2.686132558754     2.538591529080    -0.001850429227    12.000000000000
         H           -0.033404441246     2.153457529080    -0.103986429227     1.007825032230
         H           -0.016024441246    -2.150284470920    -0.076918429227     1.007825032230
         H            3.697157558754     0.017625529080     0.128327570773     1.007825032230
         H            2.118191558754    -3.313724470920     0.499962570773     1.007825032230
         H            2.952967558754    -2.822616470920    -0.978638429227     1.007825032230
         H            3.640598558754    -2.412513470920     0.597860570773     1.007825032230
         H            2.930808558754     2.832094529080    -1.028171429227     1.007825032230
         H            2.095327558754     3.343883529080     0.442752570773     1.007825032230
         H            3.624061558754     2.455151529080     0.553947570773     1.007825032230
         H           -2.715913441246     0.668332529080     1.728224570773     1.007825032230

  Basis Set: AUG-CC-PVTZ
    Blend: AUG-CC-PVTZ
  Basis Set: (AUG-CC-PVTZ AUX)
    Blend: AUG-CC-PVTZ-JKFIT
	 Reference Energy          =    -931.0543184361990825 [Eh]
	 Singles Energy            =      -0.0000000000000000 [Eh]
	 Same-Spin Energy          =      -0.6212720455588102 [Eh]
	 Opposite-Spin Energy      =      -1.8677862820870375 [Eh]
	 Correlation Energy        =      -2.4890583276458478 [Eh]
	 Total Energy              =    -933.5433767638448899 [Eh]

	 ================> DF-SCS-MP2 Energies <==================
	-----------------------------------------------------------
	 SCS Same-Spin Scale       =       0.3333333333333333 [-]
	 SCS Opposite-Spin Scale   =       1.2000000000000000 [-]
	 SCS Same-Spin Energy      =      -0.2070906818529367 [Eh]
	 SCS Opposite-Spin Energy  =      -2.2413435385044447 [Eh]
	 SCS Correlation Energy    =      -2.4484342203573815 [Eh]
	 SCS Total Energy          =    -933.5027526565564813 [Eh]
	-----------------------------------------------------------

  Dipole Moment: [D]
     X:     4.3851      Y:     0.9567      Z:     1.8924     Total:     4.8709

*** Psi4 exiting successfully. Buy a developer a beer!
