                               Psi4 1.4a3.dev225

  ==> Input File <==

--------------------------------------------------------------------------
#psi4
#
memory 32 gb

molecule  {
0 1
  S       -1.9906940    -0.0125100    -0.1365530
  O       -2.3617000    -0.1700640     1.4590810
  O       -2.4286150    -1.2343840    -0.7923790
  O       -2.4725380     1.3090340    -0.5392830
  C       -0.2242900    -0.0021990    -0.0874500
  C        1.8486770    -1.2201060     0.0278510
  C        1.8399080     1.2326580     0.0087760
  C        0.4429230     1.2221080    -0.0627730
  C        0.4524940    -1.2213400    -0.0491660
  C        2.5197880     0.0092800     0.0551460
  C        2.6153160    -2.5166400     0.0331700
  C        2.5970370     2.5347130    -0.0106060
  H       -0.1225000     2.1495790    -0.1127420
  H       -0.1051200    -2.1541630    -0.0856740
  H        3.6280269     0.0138289     0.1207539
  H        2.0290960    -3.3176030     0.4912070
  H        2.8638720    -2.8264950    -0.9873940
  H        3.5515030    -2.4163920     0.5891050
  H        2.8417130     2.8282160    -1.0369270
  H        2.0062320     3.3400050     0.4339970
  H        3.5349660     2.4512730     0.5451920
  H       -2.8050090     0.6644540     1.7194690
units angstrom
no_reorient  #important for SAPT in psi4, default
symmetry c1  #important for SAPT in psi4, default
}

set PROPERTIES_ORIGIN ["COM"]
properties('MP2/aug-cc-pvtz', properties = ['dipole'])
--------------------------------------------------------------------------

    Molecular point group: c1
  Charge       = 0
  Multiplicity = 1
  Basis Set: AUG-CC-PVTZ
    Blend: AUG-CC-PVTZ
  Basis Set: (AUG-CC-PVTZ AUX)
    Blend: AUG-CC-PVTZ-JKFIT

    Orbital Energies [Eh]
    ---------------------

    Doubly Occupied:

       1A    -92.228838     2A    -20.628697     3A    -20.565041
       4A    -20.560822     5A    -11.286149     6A    -11.267654
       7A    -11.267327     8A    -11.262948     9A    -11.262214
      10A    -11.259407    11A    -11.241462    12A    -11.240343
      13A     -9.191743    14A     -6.877363    15A     -6.876064
      16A     -6.875826    17A     -1.492775    18A     -1.379135
      19A     -1.351496    20A     -1.187896    21A     -1.081723
      22A     -1.075138    23A     -0.962246    24A     -0.953794
      25A     -0.923411    26A     -0.818598    27A     -0.809983
      28A     -0.740107    29A     -0.722545    30A     -0.690187
      31A     -0.682809    32A     -0.670567    33A     -0.627813
      34A     -0.602388    35A     -0.600870    36A     -0.591867
      37A     -0.585316    38A     -0.573662    39A     -0.568738
      40A     -0.548027    41A     -0.536603    42A     -0.523647
      43A     -0.508441    44A     -0.506840    45A     -0.500909
      46A     -0.484040    47A     -0.473601    48A     -0.363400
      49A     -0.345178

  @DF-RHF Final Energy:  -931.05676306994155

   => Energetics <=

    Nuclear Repulsion Energy =            830.3638907354840057
    One-Electron Energy =               -2926.0900058622714823
    Two-Electron Energy =                1164.6693520568460372
    Total Energy =                       -931.0567630699415531
  Basis Set: (AUG-CC-PVTZ AUX)
    Blend: AUG-CC-PVTZ-RI
    Molecular point group: c1

    Geometry (in Angstrom), charge = 0, multiplicity = 1:

       Center              X                  Y                   Z               Mass
    ------------   -----------------  -----------------  -----------------  -----------------
         S           -1.898485715842    -0.008607590157    -0.127638869594    31.972071174400
         O           -2.269491715842    -0.166161590157     1.467995130406    15.994914619570
         O           -2.336406715842    -1.230481590157    -0.783464869594    15.994914619570
         O           -2.380329715842     1.312936409843    -0.530368869594    15.994914619570
         C           -0.132081715842     0.001703409843    -0.078535869594    12.000000000000
         C            1.940885284158    -1.216203590157     0.036765130406    12.000000000000
         C            1.932116284158     1.236560409843     0.017690130406    12.000000000000
         C            0.535131284158     1.226010409843    -0.053858869594    12.000000000000
         C            0.544702284158    -1.217437590157    -0.040251869594    12.000000000000
         C            2.611996284158     0.013182409843     0.064060130406    12.000000000000
         C            2.707524284158    -2.512737590157     0.042084130406    12.000000000000
         C            2.689245284158     2.538615409843    -0.001691869594    12.000000000000
         H           -0.030291715842     2.153481409843    -0.103827869594     1.007825032230
         H           -0.012911715842    -2.150260590157    -0.076759869594     1.007825032230
         H            3.720235184158     0.017731309843     0.129668030406     1.007825032230
         H            2.121304284158    -3.313700590157     0.500121130406     1.007825032230
         H            2.956080284158    -2.822592590157    -0.978479869594     1.007825032230
         H            3.643711284158    -2.412489590157     0.598019130406     1.007825032230
         H            2.933921284158     2.832118409843    -1.028012869594     1.007825032230
         H            2.098440284158     3.343907409843     0.442911130406     1.007825032230
         H            3.627174284158     2.455175409843     0.554106130406     1.007825032230
         H           -2.712800715842     0.668356409843     1.728383130406     1.007825032230

  Basis Set: AUG-CC-PVTZ
    Blend: AUG-CC-PVTZ
  Basis Set: (AUG-CC-PVTZ AUX)
    Blend: AUG-CC-PVTZ-JKFIT
	 Reference Energy          =    -931.0567630699415531 [Eh]
	 Singles Energy            =      -0.0000000000000000 [Eh]
	 Same-Spin Energy          =      -0.6213533332306618 [Eh]
	 Opposite-Spin Energy      =      -1.8678454871202947 [Eh]
	 Correlation Energy        =      -2.4891988203509565 [Eh]
	 Total Energy              =    -933.5459618902924603 [Eh]

	 ================> DF-SCS-MP2 Energies <==================
	-----------------------------------------------------------
	 SCS Same-Spin Scale       =       0.3333333333333333 [-]
	 SCS Opposite-Spin Scale   =       1.2000000000000000 [-]
	 SCS Same-Spin Energy      =      -0.2071177777435539 [Eh]
	 SCS Opposite-Spin Energy  =      -2.2414145845443536 [Eh]
	 SCS Correlation Energy    =      -2.4485323622879074 [Eh]
	 SCS Total Energy          =    -933.5052954322294454 [Eh]
	-----------------------------------------------------------

  Dipole Moment: [D]
     X:     4.4198      Y:     1.0032      Z:     1.8893     Total:     4.9102

*** Psi4 exiting successfully. Buy a developer a beer!
