                               Psi4 1.4a3.dev225

  ==> Input File <==

--------------------------------------------------------------------------
#psi4
#
memory 32 gb

molecule  {
0 1
  S       -1.9906940    -0.0125100    -0.1365530
  O       -2.3617000    -0.1700640     1.4590810
  O       -2.4286150    -1.2343840    -0.7923790
  O       -2.4725380     1.3090340    -0.5392830
  C       -0.2242900    -0.0021990    -0.0874500
  C        1.8486770    -1.2201060     0.0278510
  C        1.8399080     1.2326580     0.0087760
  C        0.4429230     1.2221080    -0.0627730
  C        0.4524940    -1.2213400    -0.0491660
  C        2.5437408     0.0531584     0.0561202
  C        2.6153160    -2.5166400     0.0331700
  C        2.5970370     2.5347130    -0.0106060
  H       -0.1225000     2.1495790    -0.1127420
  H       -0.1051200    -2.1541630    -0.0856740
  H        3.6080620     0.0137470     0.1195720
  H        2.0290960    -3.3176030     0.4912070
  H        2.8638720    -2.8264950    -0.9873940
  H        3.5515030    -2.4163920     0.5891050
  H        2.8417130     2.8282160    -1.0369270
  H        2.0062320     3.3400050     0.4339970
  H        3.5349660     2.4512730     0.5451920
  H       -2.8050090     0.6644540     1.7194690
units angstrom
no_reorient  #important for SAPT in psi4, default
symmetry c1  #important for SAPT in psi4, default
}

set PROPERTIES_ORIGIN ["COM"]
properties('MP2/aug-cc-pvtz', properties = ['dipole'])
--------------------------------------------------------------------------

    Molecular point group: c1
  Charge       = 0
  Multiplicity = 1
  Basis Set: AUG-CC-PVTZ
    Blend: AUG-CC-PVTZ
  Basis Set: (AUG-CC-PVTZ AUX)
    Blend: AUG-CC-PVTZ-JKFIT

    Orbital Energies [Eh]
    ---------------------

    Doubly Occupied:

       1A    -92.228943     2A    -20.628786     3A    -20.565041
       4A    -20.561035     5A    -11.286721     6A    -11.272236
       7A    -11.265095     8A    -11.263870     9A    -11.260401
      10A    -11.257415    11A    -11.240846    12A    -11.240006
      13A     -9.191855    14A     -6.877474    15A     -6.876178
      16A     -6.875934    17A     -1.492870    18A     -1.379229
      19A     -1.351582    20A     -1.186191    21A     -1.082779
      22A     -1.073373    23A     -0.961079    24A     -0.953718
      25A     -0.925194    26A     -0.820147    27A     -0.806924
      28A     -0.740209    29A     -0.723252    30A     -0.692836
      31A     -0.685526    32A     -0.669874    33A     -0.628241
      34A     -0.601313    35A     -0.600294    36A     -0.591638
      37A     -0.585060    38A     -0.576674    39A     -0.569709
      40A     -0.547990    41A     -0.541525    42A     -0.523575
      43A     -0.507745    44A     -0.502616    45A     -0.499955
      46A     -0.483950    47A     -0.473873    48A     -0.363193
      49A     -0.343720

  @DF-RHF Final Energy:  -931.05419629044366

   => Energetics <=

    Nuclear Repulsion Energy =            830.0063097791215796
    One-Electron Energy =               -2925.3656232006669597
    Two-Electron Energy =                1164.3051171311014969
    Total Energy =                       -931.0541962904437696
  Basis Set: (AUG-CC-PVTZ AUX)
    Blend: AUG-CC-PVTZ-RI
    Molecular point group: c1

    Geometry (in Angstrom), charge = 0, multiplicity = 1:

       Center              X                  Y                   Z               Mass
    ------------   -----------------  -----------------  -----------------  -----------------
         S           -1.899922608793    -0.011437477405    -0.127695306544    31.972071174400
         O           -2.270928608793    -0.168991477405     1.467938693456    15.994914619570
         O           -2.337843608793    -1.233311477405    -0.783521306544    15.994914619570
         O           -2.381766608793     1.310106522595    -0.530425306544    15.994914619570
         C           -0.133518608793    -0.001126477405    -0.078592306544    12.000000000000
         C            1.939448391207    -1.219033477405     0.036708693456    12.000000000000
         C            1.930679391207     1.233730522595     0.017633693456    12.000000000000
         C            0.533694391207     1.223180522595    -0.053915306544    12.000000000000
         C            0.543265391207    -1.220267477405    -0.040308306544    12.000000000000
         C            2.634512191207     0.054230922595     0.064977893456    12.000000000000
         C            2.706087391207    -2.515567477405     0.042027693456    12.000000000000
         C            2.687808391207     2.535785522595    -0.001748306544    12.000000000000
         H           -0.031728608793     2.150651522595    -0.103884306544     1.007825032230
         H           -0.014348608793    -2.153090477405    -0.076816306544     1.007825032230
         H            3.698833391207     0.014819522595     0.128429693456     1.007825032230
         H            2.119867391207    -3.316530477405     0.500064693456     1.007825032230
         H            2.954643391207    -2.825422477405    -0.978536306544     1.007825032230
         H            3.642274391207    -2.415319477405     0.597962693456     1.007825032230
         H            2.932484391207     2.829288522595    -1.028069306544     1.007825032230
         H            2.097003391207     3.341077522595     0.442854693456     1.007825032230
         H            3.625737391207     2.452345522595     0.554049693456     1.007825032230
         H           -2.714237608793     0.665526522595     1.728326693456     1.007825032230

  Basis Set: AUG-CC-PVTZ
    Blend: AUG-CC-PVTZ
  Basis Set: (AUG-CC-PVTZ AUX)
    Blend: AUG-CC-PVTZ-JKFIT
	 Reference Energy          =    -931.0541962904436559 [Eh]
	 Singles Energy            =      -0.0000000000000000 [Eh]
	 Same-Spin Energy          =      -0.6212363375450585 [Eh]
	 Opposite-Spin Energy      =      -1.8678955456231534 [Eh]
	 Correlation Energy        =      -2.4891318831682119 [Eh]
	 Total Energy              =    -933.5433281736118261 [Eh]

	 ================> DF-SCS-MP2 Energies <==================
	-----------------------------------------------------------
	 SCS Same-Spin Scale       =       0.3333333333333333 [-]
	 SCS Opposite-Spin Scale   =       1.2000000000000000 [-]
	 SCS Same-Spin Energy      =      -0.2070787791816862 [Eh]
	 SCS Opposite-Spin Energy  =      -2.2414746547477842 [Eh]
	 SCS Correlation Energy    =      -2.4485534339294701 [Eh]
	 SCS Total Energy          =    -933.5027497243730750 [Eh]
	-----------------------------------------------------------

  Dipole Moment: [D]
     X:     4.4314      Y:     0.9524      Z:     1.8905     Total:     4.9111

*** Psi4 exiting successfully. Buy a developer a beer!
