                               Psi4 1.4a3.dev225

  ==> Input File <==

--------------------------------------------------------------------------
#psi4
#
memory 32 gb

molecule  {
0 1
  S       -1.9906940    -0.0125100    -0.1365530
  O       -2.3617000    -0.1700640     1.4590810
  O       -2.4286150    -1.2343840    -0.7923790
  O       -2.4725380     1.3090340    -0.5392830
  C       -0.2242900    -0.0021990    -0.0874500
  C        1.8486770    -1.2201060     0.0278510
  C        1.8399080     1.2326580     0.0087760
  C        0.4429230     1.2221080    -0.0627730
  C        0.4524940    -1.2213400    -0.0491660
  C        2.5197880     0.0092800     0.0551460
  C        2.6153160    -2.5166400     0.0331700
  C        2.5970370     2.5347130    -0.0106060
  H       -0.1225000     2.1495790    -0.1127420
  H       -0.1051200    -2.1541630    -0.0856740
  H        3.6080620     0.0137470     0.1195720
  H        2.0290960    -3.3176030     0.4912070
  H        2.8525239    -2.8123482    -0.9407990
  H        3.5515030    -2.4163920     0.5891050
  H        2.8417130     2.8282160    -1.0369270
  H        2.0062320     3.3400050     0.4339970
  H        3.5349660     2.4512730     0.5451920
  H       -2.8050090     0.6644540     1.7194690
units angstrom
no_reorient  #important for SAPT in psi4, default
symmetry c1  #important for SAPT in psi4, default
}

set PROPERTIES_ORIGIN ["COM"]
properties('MP2/aug-cc-pvtz', properties = ['dipole'])
--------------------------------------------------------------------------

    Molecular point group: c1
  Charge       = 0
  Multiplicity = 1
  Basis Set: AUG-CC-PVTZ
    Blend: AUG-CC-PVTZ
  Basis Set: (AUG-CC-PVTZ AUX)
    Blend: AUG-CC-PVTZ-JKFIT

    Orbital Energies [Eh]
    ---------------------

    Doubly Occupied:

       1A    -92.228697     2A    -20.628575     3A    -20.564911
       4A    -20.560699     5A    -11.285955     6A    -11.267335
       7A    -11.266813     8A    -11.262642     9A    -11.261869
      10A    -11.256943    11A    -11.241403    12A    -11.234344
      13A     -9.191604    14A     -6.877224    15A     -6.875924
      16A     -6.875687    17A     -1.492649    18A     -1.379014
      19A     -1.351372    20A     -1.187803    21A     -1.082208
      22A     -1.075610    23A     -0.964864    24A     -0.955000
      25A     -0.923931    26A     -0.819129    27A     -0.810886
      28A     -0.740082    29A     -0.722938    30A     -0.691109
      31A     -0.683533    32A     -0.670560    33A     -0.627737
      34A     -0.606452    35A     -0.602068    36A     -0.593163
      37A     -0.587594    38A     -0.574370    39A     -0.569006
      40A     -0.547775    41A     -0.537463    42A     -0.523736
      43A     -0.508499    44A     -0.506748    45A     -0.501401
      46A     -0.483926    47A     -0.473505    48A     -0.363356
      49A     -0.345209

  @DF-RHF Final Energy:  -931.05645409709439

   => Energetics <=

    Nuclear Repulsion Energy =            830.7076100720090608
    One-Electron Energy =               -2926.7614866759863617
    Two-Electron Energy =                1164.9974225068829128
    Total Energy =                       -931.0564540970942744
  Basis Set: (AUG-CC-PVTZ AUX)
    Blend: AUG-CC-PVTZ-RI
    Molecular point group: c1

    Geometry (in Angstrom), charge = 0, multiplicity = 1:

       Center              X                  Y                   Z               Mass
    ------------   -----------------  -----------------  -----------------  -----------------
         S           -1.898316081020    -0.008683785246    -0.127884890197    31.972071174400
         O           -2.269322081020    -0.166237785246     1.467749109803    15.994914619570
         O           -2.336237081020    -1.230557785246    -0.783710890197    15.994914619570
         O           -2.380160081020     1.312860214754    -0.530614890197    15.994914619570
         C           -0.131912081020     0.001627214754    -0.078781890197    12.000000000000
         C            1.941054918980    -1.216279785246     0.036519109803    12.000000000000
         C            1.932285918980     1.236484214754     0.017444109803    12.000000000000
         C            0.535300918980     1.225934214754    -0.054104890197    12.000000000000
         C            0.544871918980    -1.217513785246    -0.040497890197    12.000000000000
         C            2.612165918980     0.013106214754     0.063814109803    12.000000000000
         C            2.707693918980    -2.512813785246     0.041838109803    12.000000000000
         C            2.689414918980     2.538539214754    -0.001937890197    12.000000000000
         H           -0.030122081020     2.153405214754    -0.104073890197     1.007825032230
         H           -0.012742081020    -2.150336785246    -0.077005890197     1.007825032230
         H            3.700439918980     0.017573214754     0.128240109803     1.007825032230
         H            2.121473918980    -3.313776785246     0.499875109803     1.007825032230
         H            2.944901818980    -2.808521985246    -0.932130890197     1.007825032230
         H            3.643880918980    -2.412565785246     0.597773109803     1.007825032230
         H            2.934090918980     2.832042214754    -1.028258890197     1.007825032230
         H            2.098609918980     3.343831214754     0.442665109803     1.007825032230
         H            3.627343918980     2.455099214754     0.553860109803     1.007825032230
         H           -2.712631081020     0.668280214754     1.728137109803     1.007825032230

  Basis Set: AUG-CC-PVTZ
    Blend: AUG-CC-PVTZ
  Basis Set: (AUG-CC-PVTZ AUX)
    Blend: AUG-CC-PVTZ-JKFIT
	 Reference Energy          =    -931.0564540970943881 [Eh]
	 Singles Energy            =      -0.0000000000000000 [Eh]
	 Same-Spin Energy          =      -0.6213075424105692 [Eh]
	 Opposite-Spin Energy      =      -1.8674129103326997 [Eh]
	 Correlation Energy        =      -2.4887204527432689 [Eh]
	 Total Energy              =    -933.5451745498376113 [Eh]

	 ================> DF-SCS-MP2 Energies <==================
	-----------------------------------------------------------
	 SCS Same-Spin Scale       =       0.3333333333333333 [-]
	 SCS Opposite-Spin Scale   =       1.2000000000000000 [-]
	 SCS Same-Spin Energy      =      -0.2071025141368564 [Eh]
	 SCS Opposite-Spin Energy  =      -2.2408954923992397 [Eh]
	 SCS Correlation Energy    =      -2.4479980065360962 [Eh]
	 SCS Total Energy          =    -933.5044521036304559 [Eh]
	-----------------------------------------------------------

  Dipole Moment: [D]
     X:     4.4374      Y:     0.9907      Z:     1.8784     Total:     4.9194

*** Psi4 exiting successfully. Buy a developer a beer!
