                               Psi4 1.4a3.dev225

  ==> Input File <==

--------------------------------------------------------------------------
#psi4
#
memory 32 gb

molecule  {
0 1
  S       -1.9906940    -0.0125100    -0.1365530
  O       -2.3617000    -0.1700640     1.4590810
  O       -2.4286150    -1.2343840    -0.7923790
  O       -2.4725380     1.3090340    -0.5392830
  C       -0.2242900    -0.0021990    -0.0874500
  C        1.8486770    -1.2201060     0.0278510
  C        1.8399080     1.2326580     0.0087760
  C        0.4429230     1.2221080    -0.0627730
  C        0.4524940    -1.2213400    -0.0491660
  C        2.5197880     0.0092800     0.0551460
  C        2.6153160    -2.5166400     0.0331700
  C        2.5970370     2.5347130    -0.0106060
  H       -0.1225000     2.1495790    -0.1127420
  H       -0.1051200    -2.1541630    -0.0856740
  H        3.6080620     0.0137470     0.1195720
  H        2.0290960    -3.3176030     0.4912070
  H        2.7512454    -2.8254308    -1.0087093
  H        3.5515030    -2.4163920     0.5891050
  H        2.8417130     2.8282160    -1.0369270
  H        2.0062320     3.3400050     0.4339970
  H        3.5349660     2.4512730     0.5451920
  H       -2.8050090     0.6644540     1.7194690
units angstrom
no_reorient  #important for SAPT in psi4, default
symmetry c1  #important for SAPT in psi4, default
}

set PROPERTIES_ORIGIN ["COM"]
properties('MP2/aug-cc-pvtz', properties = ['dipole'])
--------------------------------------------------------------------------

    Molecular point group: c1
  Charge       = 0
  Multiplicity = 1
  Basis Set: AUG-CC-PVTZ
    Blend: AUG-CC-PVTZ
  Basis Set: (AUG-CC-PVTZ AUX)
    Blend: AUG-CC-PVTZ-JKFIT

    Orbital Energies [Eh]
    ---------------------

    Doubly Occupied:

       1A    -92.228701     2A    -20.628585     3A    -20.564906
       4A    -20.560721     5A    -11.286001     6A    -11.267304
       7A    -11.266778     8A    -11.262253     9A    -11.261640
      10A    -11.256629    11A    -11.241329    12A    -11.240771
      13A     -9.191610    14A     -6.877229    15A     -6.875929
      16A     -6.875692    17A     -1.492656    18A     -1.379022
      19A     -1.351379    20A     -1.187721    21A     -1.081885
      22A     -1.075363    23A     -0.962662    24A     -0.953496
      25A     -0.923898    26A     -0.818880    27A     -0.809258
      28A     -0.739805    29A     -0.722455    30A     -0.691047
      31A     -0.683607    32A     -0.670613    33A     -0.627770
      34A     -0.603807    35A     -0.601143    36A     -0.591019
      37A     -0.588500    38A     -0.574666    39A     -0.568253
      40A     -0.546682    41A     -0.537451    42A     -0.523737
      43A     -0.507799    44A     -0.506774    45A     -0.499792
      46A     -0.483975    47A     -0.473603    48A     -0.363136
      49A     -0.344482

  @DF-RHF Final Energy:  -931.05620046226090

   => Energetics <=

    Nuclear Repulsion Energy =            830.6147676122006942
    One-Electron Energy =               -2926.5971109357024034
    Two-Electron Energy =                1164.9261428612405780
    Total Energy =                       -931.0562004622609038
  Basis Set: (AUG-CC-PVTZ AUX)
    Blend: AUG-CC-PVTZ-RI
    Molecular point group: c1

    Geometry (in Angstrom), charge = 0, multiplicity = 1:

       Center              X                  Y                   Z               Mass
    ------------   -----------------  -----------------  -----------------  -----------------
         S           -1.897767415598    -0.008612911662    -0.127516993424    31.972071174400
         O           -2.268773415598    -0.166166911662     1.468117006576    15.994914619570
         O           -2.335688415598    -1.230486911662    -0.783342993424    15.994914619570
         O           -2.379611415598     1.312931088338    -0.530246993424    15.994914619570
         C           -0.131363415598     0.001698088338    -0.078413993424    12.000000000000
         C            1.941603584402    -1.216208911662     0.036887006576    12.000000000000
         C            1.932834584402     1.236555088338     0.017812006576    12.000000000000
         C            0.535849584402     1.226005088338    -0.053736993424    12.000000000000
         C            0.545420584402    -1.217442911662    -0.040129993424    12.000000000000
         C            2.612714584402     0.013177088338     0.064182006576    12.000000000000
         C            2.708242584402    -2.512742911662     0.042206006576    12.000000000000
         C            2.689963584402     2.538610088338    -0.001569993424    12.000000000000
         H           -0.029573415598     2.153476088338    -0.103705993424     1.007825032230
         H           -0.012193415598    -2.150265911662    -0.076637993424     1.007825032230
         H            3.700988584402     0.017644088338     0.128608006576     1.007825032230
         H            2.122022584402    -3.313705911662     0.500243006576     1.007825032230
         H            2.844171984402    -2.821533711662    -0.999673293424     1.007825032230
         H            3.644429584402    -2.412494911662     0.598141006576     1.007825032230
         H            2.934639584402     2.832113088338    -1.027890993424     1.007825032230
         H            2.099158584402     3.343902088338     0.443033006576     1.007825032230
         H            3.627892584402     2.455170088338     0.554228006576     1.007825032230
         H           -2.712082415598     0.668351088338     1.728505006576     1.007825032230

  Basis Set: AUG-CC-PVTZ
    Blend: AUG-CC-PVTZ
  Basis Set: (AUG-CC-PVTZ AUX)
    Blend: AUG-CC-PVTZ-JKFIT
	 Reference Energy          =    -931.0562004622609038 [Eh]
	 Singles Energy            =      -0.0000000000000000 [Eh]
	 Same-Spin Energy          =      -0.6213903629107800 [Eh]
	 Opposite-Spin Energy      =      -1.8678304394375793 [Eh]
	 Correlation Energy        =      -2.4892208023483593 [Eh]
	 Total Energy              =    -933.5454212646092174 [Eh]

	 ================> DF-SCS-MP2 Energies <==================
	-----------------------------------------------------------
	 SCS Same-Spin Scale       =       0.3333333333333333 [-]
	 SCS Opposite-Spin Scale   =       1.2000000000000000 [-]
	 SCS Same-Spin Energy      =      -0.2071301209702600 [Eh]
	 SCS Opposite-Spin Energy  =      -2.2413965273250951 [Eh]
	 SCS Correlation Energy    =      -2.4485266482953549 [Eh]
	 SCS Total Energy          =    -933.5047271105562459 [Eh]
	-----------------------------------------------------------

  Dipole Moment: [D]
     X:     4.4027      Y:     0.9751      Z:     1.8929     Total:     4.8906

*** Psi4 exiting successfully. Buy a developer a beer!
