                               Psi4 1.4a3.dev225

  ==> Input File <==

--------------------------------------------------------------------------
#psi4
#
memory 32 gb

molecule  {
0 1
  S       -1.9906940    -0.0125100    -0.1365530
  O       -2.3617000    -0.1700640     1.4590810
  O       -2.4286150    -1.2343840    -0.7923790
  O       -2.4725380     1.3090340    -0.5392830
  C       -0.2242900    -0.0021990    -0.0874500
  C        1.8486770    -1.2201060     0.0278510
  C        1.8399080     1.2326580     0.0087760
  C        0.4429230     1.2221080    -0.0627730
  C        0.4524940    -1.2213400    -0.0491660
  C        2.5197880     0.0092800     0.0551460
  C        2.6153160    -2.5166400     0.0331700
  C        2.5970370     2.5347130    -0.0106060
  H       -0.1225000     2.1495790    -0.1127420
  H       -0.1051200    -2.1541630    -0.0856740
  H        3.6080620     0.0137470     0.1195720
  H        2.0290960    -3.3176030     0.4912070
  H        2.8638720    -2.8264950    -0.9873940
  H        3.5515030    -2.4163920     0.5891050
  H        2.8417130     2.8282160    -1.0369270
  H        2.0170401     3.3252731     0.4258635
  H        3.5349660     2.4512730     0.5451920
  H       -2.8050090     0.6644540     1.7194690
units angstrom
no_reorient  #important for SAPT in psi4, default
symmetry c1  #important for SAPT in psi4, default
}

set PROPERTIES_ORIGIN ["COM"]
properties('MP2/aug-cc-pvtz', properties = ['dipole'])
--------------------------------------------------------------------------

    Molecular point group: c1
  Charge       = 0
  Multiplicity = 1
  Basis Set: AUG-CC-PVTZ
    Blend: AUG-CC-PVTZ
  Basis Set: (AUG-CC-PVTZ AUX)
    Blend: AUG-CC-PVTZ-JKFIT

    Orbital Energies [Eh]
    ---------------------

    Doubly Occupied:

       1A    -92.228753     2A    -20.628629     3A    -20.564969
       4A    -20.560742     5A    -11.286034     6A    -11.267286
       7A    -11.267046     8A    -11.262749     9A    -11.261997
      10A    -11.256979    11A    -11.240307    12A    -11.239069
      13A     -9.191659    14A     -6.877279    15A     -6.875979
      16A     -6.875742    17A     -1.492701    18A     -1.379065
      19A     -1.351422    20A     -1.187837    21A     -1.081862
      22A     -1.075461    23A     -0.963446    24A     -0.954113
      25A     -0.924006    26A     -0.819168    27A     -0.810278
      28A     -0.740082    29A     -0.722819    30A     -0.691217
      31A     -0.683717    32A     -0.670754    33A     -0.627835
      34A     -0.603007    35A     -0.600953    36A     -0.591738
      37A     -0.585803    38A     -0.574412    39A     -0.570563
      40A     -0.548794    41A     -0.537570    42A     -0.523589
      43A     -0.508569    44A     -0.506729    45A     -0.500891
      46A     -0.483972    47A     -0.473564    48A     -0.363222
      49A     -0.345033

  @DF-RHF Final Energy:  -931.05747454757284

   => Energetics <=

    Nuclear Repulsion Energy =            830.5604514698190997
    One-Electron Energy =               -2926.4770338222742794
    Two-Electron Energy =                1164.8591078048825693
    Total Energy =                       -931.0574745475728378
  Basis Set: (AUG-CC-PVTZ AUX)
    Blend: AUG-CC-PVTZ-RI
    Molecular point group: c1

    Geometry (in Angstrom), charge = 0, multiplicity = 1:

       Center              X                  Y                   Z               Mass
    ------------   -----------------  -----------------  -----------------  -----------------
         S           -1.898436109859    -0.008527337983    -0.127588404413    31.972071174400
         O           -2.269442109859    -0.166081337983     1.468045595587    15.994914619570
         O           -2.336357109859    -1.230401337983    -0.783414404413    15.994914619570
         O           -2.380280109859     1.313016662017    -0.530318404413    15.994914619570
         C           -0.132032109859     0.001783662017    -0.078485404413    12.000000000000
         C            1.940934890141    -1.216123337983     0.036815595587    12.000000000000
         C            1.932165890141     1.236640662017     0.017740595587    12.000000000000
         C            0.535180890141     1.226090662017    -0.053808404413    12.000000000000
         C            0.544751890141    -1.217357337983    -0.040201404413    12.000000000000
         C            2.612045890141     0.013262662017     0.064110595587    12.000000000000
         C            2.707573890141    -2.512657337983     0.042134595587    12.000000000000
         C            2.689294890141     2.538695662017    -0.001641404413    12.000000000000
         H           -0.030242109859     2.153561662017    -0.103777404413     1.007825032230
         H           -0.012862109859    -2.150180337983    -0.076709404413     1.007825032230
         H            3.700319890141     0.017729662017     0.128536595587     1.007825032230
         H            2.121353890141    -3.313620337983     0.500171595587     1.007825032230
         H            2.956129890141    -2.822512337983    -0.978429404413     1.007825032230
         H            3.643760890141    -2.412409337983     0.598069595587     1.007825032230
         H            2.933970890141     2.832198662017    -1.027962404413     1.007825032230
         H            2.109297990141     3.329255762017     0.434828095587     1.007825032230
         H            3.627223890141     2.455255662017     0.554156595587     1.007825032230
         H           -2.712751109859     0.668436662017     1.728433595587     1.007825032230

  Basis Set: AUG-CC-PVTZ
    Blend: AUG-CC-PVTZ
  Basis Set: (AUG-CC-PVTZ AUX)
    Blend: AUG-CC-PVTZ-JKFIT
	 Reference Energy          =    -931.0574745475728378 [Eh]
	 Singles Energy            =      -0.0000000000000000 [Eh]
	 Same-Spin Energy          =      -0.6212947521510371 [Eh]
	 Opposite-Spin Energy      =      -1.8675523337048343 [Eh]
	 Correlation Energy        =      -2.4888470858558716 [Eh]
	 Total Energy              =    -933.5463216334287608 [Eh]

	 ================> DF-SCS-MP2 Energies <==================
	-----------------------------------------------------------
	 SCS Same-Spin Scale       =       0.3333333333333333 [-]
	 SCS Opposite-Spin Scale   =       1.2000000000000000 [-]
	 SCS Same-Spin Energy      =      -0.2070982507170124 [Eh]
	 SCS Opposite-Spin Energy  =      -2.2410628004458011 [Eh]
	 SCS Correlation Energy    =      -2.4481610511628134 [Eh]
	 SCS Total Energy          =    -933.5056355987356937 [Eh]
	-----------------------------------------------------------

  Dipole Moment: [D]
     X:     4.4274      Y:     1.0125      Z:     1.8923     Total:     4.9202

*** Psi4 exiting successfully. Buy a developer a beer!
