                               Psi4 1.4a3.dev225

  ==> Input File <==

--------------------------------------------------------------------------
#psi4
#
memory 32 gb

molecule  {
0 1
  S       -1.9906940    -0.0125100    -0.1365530
  O       -2.3617000    -0.1700640     1.4590810
  O       -2.4286150    -1.2343840    -0.7923790
  O       -2.4965651     1.3005691    -0.5375036
  C       -0.2242900    -0.0021990    -0.0874500
  C        1.8486770    -1.2201060     0.0278510
  C        1.8399080     1.2326580     0.0087760
  C        0.4429230     1.2221080    -0.0627730
  C        0.4524940    -1.2213400    -0.0491660
  C        2.5197880     0.0092800     0.0551460
  C        2.6153160    -2.5166400     0.0331700
  C        2.5970370     2.5347130    -0.0106060
  H       -0.1225000     2.1495790    -0.1127420
  H       -0.1051200    -2.1541630    -0.0856740
  H        3.6080620     0.0137470     0.1195720
  H        2.0290960    -3.3176030     0.4912070
  H        2.8638720    -2.8264950    -0.9873940
  H        3.5515030    -2.4163920     0.5891050
  H        2.8417130     2.8282160    -1.0369270
  H        2.0062320     3.3400050     0.4339970
  H        3.5349660     2.4512730     0.5451920
  H       -2.8050090     0.6644540     1.7194690
units angstrom
no_reorient  #important for SAPT in psi4, default
symmetry c1  #important for SAPT in psi4, default
}

set PROPERTIES_ORIGIN ["COM"]
properties('MP2/aug-cc-pvtz', properties = ['dipole'])
--------------------------------------------------------------------------

    Molecular point group: c1
  Charge       = 0
  Multiplicity = 1
  Basis Set: AUG-CC-PVTZ
    Blend: AUG-CC-PVTZ
  Basis Set: (AUG-CC-PVTZ AUX)
    Blend: AUG-CC-PVTZ-JKFIT

    Orbital Energies [Eh]
    ---------------------

    Doubly Occupied:

       1A    -92.228433     2A    -20.627715     3A    -20.564587
       4A    -20.559643     5A    -11.287129     6A    -11.268039
       7A    -11.267698     8A    -11.263600     9A    -11.262755
      10A    -11.257703    11A    -11.241890    12A    -11.240734
      13A     -9.191371    14A     -6.876990    15A     -6.875666
      16A     -6.875469    17A     -1.492312    18A     -1.378300
      19A     -1.350315    20A     -1.188570    21A     -1.082177
      22A     -1.076214    23A     -0.962909    24A     -0.954311
      25A     -0.924412    26A     -0.819071    27A     -0.810443
      28A     -0.739863    29A     -0.722623    30A     -0.691373
      31A     -0.683853    32A     -0.670716    33A     -0.627243
      34A     -0.602894    35A     -0.601277    36A     -0.592320
      37A     -0.585725    38A     -0.573980    39A     -0.569381
      40A     -0.548434    41A     -0.538110    42A     -0.522979
      43A     -0.508755    44A     -0.506665    45A     -0.500685
      46A     -0.483164    47A     -0.473968    48A     -0.363943
      49A     -0.345635

  @DF-RHF Final Energy:  -931.05760724705840

   => Energetics <=

    Nuclear Repulsion Energy =            830.2702931761228911
    One-Electron Energy =               -2925.8917132326432693
    Two-Electron Energy =                1164.5638128094622061
    Total Energy =                       -931.0576072470582858
  Basis Set: (AUG-CC-PVTZ AUX)
    Blend: AUG-CC-PVTZ-RI
    Molecular point group: c1

    Geometry (in Angstrom), charge = 0, multiplicity = 1:

       Center              X                  Y                   Z               Mass
    ------------   -----------------  -----------------  -----------------  -----------------
         S           -1.896311757194    -0.007879351675    -0.127785455952    31.972071174400
         O           -2.267317757194    -0.165433351675     1.467848544048    15.994914619570
         O           -2.334232757194    -1.229753351675    -0.783611455952    15.994914619570
         O           -2.402182857194     1.305199748325    -0.528736055952    15.994914619570
         C           -0.129907757194     0.002431648325    -0.078682455952    12.000000000000
         C            1.943059242806    -1.215475351675     0.036618544048    12.000000000000
         C            1.934290242806     1.237288648325     0.017543544048    12.000000000000
         C            0.537305242806     1.226738648325    -0.054005455952    12.000000000000
         C            0.546876242806    -1.216709351675    -0.040398455952    12.000000000000
         C            2.614170242806     0.013910648325     0.063913544048    12.000000000000
         C            2.709698242806    -2.512009351675     0.041937544048    12.000000000000
         C            2.691419242806     2.539343648325    -0.001838455952    12.000000000000
         H           -0.028117757194     2.154209648325    -0.103974455952     1.007825032230
         H           -0.010737757194    -2.149532351675    -0.076906455952     1.007825032230
         H            3.702444242806     0.018377648325     0.128339544048     1.007825032230
         H            2.123478242806    -3.312972351675     0.499974544048     1.007825032230
         H            2.958254242806    -2.821864351675    -0.978626455952     1.007825032230
         H            3.645885242806    -2.411761351675     0.597872544048     1.007825032230
         H            2.936095242806     2.832846648325    -1.028159455952     1.007825032230
         H            2.100614242806     3.344635648325     0.442764544048     1.007825032230
         H            3.629348242806     2.455903648325     0.553959544048     1.007825032230
         H           -2.710626757194     0.669084648325     1.728236544048     1.007825032230

  Basis Set: AUG-CC-PVTZ
    Blend: AUG-CC-PVTZ
  Basis Set: (AUG-CC-PVTZ AUX)
    Blend: AUG-CC-PVTZ-JKFIT
	 Reference Energy          =    -931.0576072470583995 [Eh]
	 Singles Energy            =      -0.0000000000000000 [Eh]
	 Same-Spin Energy          =      -0.6212262542280819 [Eh]
	 Opposite-Spin Energy      =      -1.8675427941187399 [Eh]
	 Correlation Energy        =      -2.4887690483468217 [Eh]
	 Total Energy              =    -933.5463762954052527 [Eh]

	 ================> DF-SCS-MP2 Energies <==================
	-----------------------------------------------------------
	 SCS Same-Spin Scale       =       0.3333333333333333 [-]
	 SCS Opposite-Spin Scale   =       1.2000000000000000 [-]
	 SCS Same-Spin Energy      =      -0.2070754180760273 [Eh]
	 SCS Opposite-Spin Energy  =      -2.2410513529424878 [Eh]
	 SCS Correlation Energy    =      -2.4481267710185151 [Eh]
	 SCS Total Energy          =    -933.5057340180769643 [Eh]
	-----------------------------------------------------------

  Dipole Moment: [D]
     X:     4.5177      Y:     1.0162      Z:     1.8853     Total:     4.9997

*** Psi4 exiting successfully. Buy a developer a beer!
