                               Psi4 1.4a3.dev225

  ==> Input File <==

--------------------------------------------------------------------------
#psi4
#
memory 32 gb

molecule  {
0 1
  S       -1.9906940    -0.0125100    -0.1365530
  O       -2.3617000    -0.1700640     1.4590810
  O       -2.4286150    -1.2343840    -0.7923790
  O       -2.4725380     1.3090340    -0.5392830
  C       -0.2242900    -0.0021990    -0.0874500
  C        1.8486770    -1.2201060     0.0278510
  C        1.8399080     1.2326580     0.0087760
  C        0.4429230     1.2221080    -0.0627730
  C        0.4524940    -1.2213400    -0.0491660
  C        2.5197880     0.0092800     0.0551460
  C        2.6153160    -2.5166400     0.0331700
  C        2.5970370     2.5347130    -0.0106060
  H       -0.1225000     2.1495790    -0.1127420
  H       -0.1051200    -2.1541630    -0.0856740
  H        3.6080620     0.0137470     0.1195720
  H        2.0571001    -3.3226536     0.5166270
  H        2.8638720    -2.8264950    -0.9873940
  H        3.5515030    -2.4163920     0.5891050
  H        2.8417130     2.8282160    -1.0369270
  H        2.0062320     3.3400050     0.4339970
  H        3.5349660     2.4512730     0.5451920
  H       -2.8050090     0.6644540     1.7194690
units angstrom
no_reorient  #important for SAPT in psi4, default
symmetry c1  #important for SAPT in psi4, default
}

set PROPERTIES_ORIGIN ["COM"]
properties('MP2/aug-cc-pvtz', properties = ['dipole'])
--------------------------------------------------------------------------

    Molecular point group: c1
  Charge       = 0
  Multiplicity = 1
  Basis Set: AUG-CC-PVTZ
    Blend: AUG-CC-PVTZ
  Basis Set: (AUG-CC-PVTZ AUX)
    Blend: AUG-CC-PVTZ-JKFIT

    Orbital Energies [Eh]
    ---------------------

    Doubly Occupied:

       1A    -92.228763     2A    -20.628638     3A    -20.564977
       4A    -20.560746     5A    -11.286037     6A    -11.267456
       7A    -11.267271     8A    -11.262859     9A    -11.262075
      10A    -11.257238    11A    -11.241497    12A    -11.240227
      13A     -9.191669    14A     -6.877289    15A     -6.875989
      16A     -6.875751    17A     -1.492709    18A     -1.379073
      19A     -1.351428    20A     -1.187883    21A     -1.081512
      22A     -1.075439    23A     -0.962391    24A     -0.953829
      25A     -0.924020    26A     -0.819147    27A     -0.810063
      28A     -0.740080    29A     -0.722877    30A     -0.691172
      31A     -0.683494    32A     -0.670510    33A     -0.627765
      34A     -0.603373    35A     -0.601218    36A     -0.591769
      37A     -0.586566    38A     -0.574135    39A     -0.568036
      40A     -0.546389    41A     -0.537373    42A     -0.523627
      43A     -0.508423    44A     -0.507008    45A     -0.500937
      46A     -0.483962    47A     -0.473585    48A     -0.363404
      49A     -0.345187

  @DF-RHF Final Energy:  -931.05731061638517

   => Energetics <=

    Nuclear Repulsion Energy =            830.4236328811148269
    One-Electron Energy =               -2926.2081547725356359
    Two-Electron Energy =                1164.7272112750356428
    Total Energy =                       -931.0573106163851662
  Basis Set: (AUG-CC-PVTZ AUX)
    Blend: AUG-CC-PVTZ-RI
    Molecular point group: c1

    Geometry (in Angstrom), charge = 0, multiplicity = 1:

       Center              X                  Y                   Z               Mass
    ------------   -----------------  -----------------  -----------------  -----------------
         S           -1.898529267346    -0.008579785389    -0.127770176904    31.972071174400
         O           -2.269535267346    -0.166133785389     1.467863823096    15.994914619570
         O           -2.336450267346    -1.230453785389    -0.783596176904    15.994914619570
         O           -2.380373267346     1.312964214611    -0.530500176904    15.994914619570
         C           -0.132125267346     0.001731214611    -0.078667176904    12.000000000000
         C            1.940841732654    -1.216175785389     0.036633823096    12.000000000000
         C            1.932072732654     1.236588214611     0.017558823096    12.000000000000
         C            0.535087732654     1.226038214611    -0.053990176904    12.000000000000
         C            0.544658732654    -1.217409785389    -0.040383176904    12.000000000000
         C            2.611952732654     0.013210214611     0.063928823096    12.000000000000
         C            2.707480732654    -2.512709785389     0.041952823096    12.000000000000
         C            2.689201732654     2.538643214611    -0.001823176904    12.000000000000
         H           -0.030335267346     2.153509214611    -0.103959176904     1.007825032230
         H           -0.012955267346    -2.150232785389    -0.076891176904     1.007825032230
         H            3.700226732654     0.017677214611     0.128354823096     1.007825032230
         H            2.149264832654    -3.318723385389     0.525409823096     1.007825032230
         H            2.956036732654    -2.822564785389    -0.978611176904     1.007825032230
         H            3.643667732654    -2.412461785389     0.597887823096     1.007825032230
         H            2.933877732654     2.832146214611    -1.028144176904     1.007825032230
         H            2.098396732654     3.343935214611     0.442779823096     1.007825032230
         H            3.627130732654     2.455203214611     0.553974823096     1.007825032230
         H           -2.712844267346     0.668384214611     1.728251823096     1.007825032230

  Basis Set: AUG-CC-PVTZ
    Blend: AUG-CC-PVTZ
  Basis Set: (AUG-CC-PVTZ AUX)
    Blend: AUG-CC-PVTZ-JKFIT
	 Reference Energy          =    -931.0573106163851662 [Eh]
	 Singles Energy            =      -0.0000000000000000 [Eh]
	 Same-Spin Energy          =      -0.6212848910929568 [Eh]
	 Opposite-Spin Energy      =      -1.8676617466492362 [Eh]
	 Correlation Energy        =      -2.4889466377421932 [Eh]
	 Total Energy              =    -933.5462572541273403 [Eh]

	 ================> DF-SCS-MP2 Energies <==================
	-----------------------------------------------------------
	 SCS Same-Spin Scale       =       0.3333333333333333 [-]
	 SCS Opposite-Spin Scale   =       1.2000000000000000 [-]
	 SCS Same-Spin Energy      =      -0.2070949636976523 [Eh]
	 SCS Opposite-Spin Energy  =      -2.2411940959790835 [Eh]
	 SCS Correlation Energy    =      -2.4482890596767359 [Eh]
	 SCS Total Energy          =    -933.5055996760619337 [Eh]
	-----------------------------------------------------------

  Dipole Moment: [D]
     X:     4.4304      Y:     1.0035      Z:     1.9010     Total:     4.9243

*** Psi4 exiting successfully. Buy a developer a beer!
