                               Psi4 1.4a3.dev225

  ==> Input File <==

--------------------------------------------------------------------------
#psi4
#
memory 32 gb

molecule  {
0 1
  S       -1.9906940    -0.0125100    -0.1365530
  O       -2.3617000    -0.1700640     1.4590810
  O       -2.4286150    -1.2343840    -0.7923790
  O       -2.4725380     1.3090340    -0.5392830
  C       -0.2242900    -0.0021990    -0.0874500
  C        1.8486770    -1.2201060     0.0278510
  C        1.8399080     1.2326580     0.0087760
  C        0.3430567     1.2213538    -0.0678878
  C        0.4524940    -1.2213400    -0.0491660
  C        2.5197880     0.0092800     0.0551460
  C        2.6153160    -2.5166400     0.0331700
  C        2.5970370     2.5347130    -0.0106060
  H       -0.1225000     2.1495790    -0.1127420
  H       -0.1051200    -2.1541630    -0.0856740
  H        3.6080620     0.0137470     0.1195720
  H        2.0290960    -3.3176030     0.4912070
  H        2.8638720    -2.8264950    -0.9873940
  H        3.5515030    -2.4163920     0.5891050
  H        2.8417130     2.8282160    -1.0369270
  H        2.0062320     3.3400050     0.4339970
  H        3.5349660     2.4512730     0.5451920
  H       -2.8050090     0.6644540     1.7194690
units angstrom
no_reorient  #important for SAPT in psi4, default
symmetry c1  #important for SAPT in psi4, default
}

set PROPERTIES_ORIGIN ["COM"]
properties('MP2/aug-cc-pvtz', properties = ['dipole'])
--------------------------------------------------------------------------

    Molecular point group: c1
  Charge       = 0
  Multiplicity = 1
  Basis Set: AUG-CC-PVTZ
    Blend: AUG-CC-PVTZ
  Basis Set: (AUG-CC-PVTZ AUX)
    Blend: AUG-CC-PVTZ-JKFIT

    Orbital Energies [Eh]
    ---------------------

    Doubly Occupied:

       1A    -92.225860     2A    -20.627691     3A    -20.564250
       4A    -20.558821     5A    -11.284921     6A    -11.278686
       7A    -11.268603     8A    -11.265853     9A    -11.258212
      10A    -11.255139    11A    -11.243317    12A    -11.240456
      13A     -9.189221    14A     -6.874785    15A     -6.873428
      16A     -6.873284    17A     -1.491827    18A     -1.378110
      19A     -1.350448    20A     -1.185163    21A     -1.083751
      22A     -1.073282    23A     -0.962419    24A     -0.956193
      25A     -0.921113    26A     -0.814609    27A     -0.811500
      28A     -0.739898    29A     -0.727715    30A     -0.689163
      31A     -0.685651    32A     -0.668103    33A     -0.626940
      34A     -0.611209    35A     -0.600109    36A     -0.591377
      37A     -0.585494    38A     -0.574323    39A     -0.570009
      40A     -0.549872    41A     -0.533142    42A     -0.523258
      43A     -0.514330    44A     -0.504418    45A     -0.499929
      46A     -0.482985    47A     -0.465887    48A     -0.370817
      49A     -0.335359

  @DF-RHF Final Energy:  -931.04599259513964

   => Energetics <=

    Nuclear Repulsion Energy =            830.5904743970351092
    One-Electron Energy =               -2926.5510763008860522
    Two-Electron Energy =                1164.9146093087115332
    Total Energy =                       -931.0459925951395235
  Basis Set: (AUG-CC-PVTZ AUX)
    Blend: AUG-CC-PVTZ-RI
    Molecular point group: c1

    Geometry (in Angstrom), charge = 0, multiplicity = 1:

       Center              X                  Y                   Z               Mass
    ------------   -----------------  -----------------  -----------------  -----------------
         S           -1.891935785464    -0.008558497580    -0.127302541879    31.972071174400
         O           -2.262941785464    -0.166112497580     1.468331458121    15.994914619570
         O           -2.329856785464    -1.230432497580    -0.783128541879    15.994914619570
         O           -2.373779785464     1.312985502420    -0.530032541879    15.994914619570
         C           -0.125531785464     0.001752502420    -0.078199541879    12.000000000000
         C            1.947435214536    -1.216154497580     0.037101458121    12.000000000000
         C            1.938666214536     1.236609502420     0.018026458121    12.000000000000
         C            0.441814914536     1.225305302420    -0.058637341879    12.000000000000
         C            0.551252214536    -1.217388497580    -0.039915541879    12.000000000000
         C            2.618546214536     0.013231502420     0.064396458121    12.000000000000
         C            2.714074214536    -2.512688497580     0.042420458121    12.000000000000
         C            2.695795214536     2.538664502420    -0.001355541879    12.000000000000
         H           -0.023741785464     2.153530502420    -0.103491541879     1.007825032230
         H           -0.006361785464    -2.150211497580    -0.076423541879     1.007825032230
         H            3.706820214536     0.017698502420     0.128822458121     1.007825032230
         H            2.127854214536    -3.313651497580     0.500457458121     1.007825032230
         H            2.962630214536    -2.822543497580    -0.978143541879     1.007825032230
         H            3.650261214536    -2.412440497580     0.598355458121     1.007825032230
         H            2.940471214536     2.832167502420    -1.027676541879     1.007825032230
         H            2.104990214536     3.343956502420     0.443247458121     1.007825032230
         H            3.633724214536     2.455224502420     0.554442458121     1.007825032230
         H           -2.706250785464     0.668405502420     1.728719458121     1.007825032230

  Basis Set: AUG-CC-PVTZ
    Blend: AUG-CC-PVTZ
  Basis Set: (AUG-CC-PVTZ AUX)
    Blend: AUG-CC-PVTZ-JKFIT
	 Reference Energy          =    -931.0459925951396372 [Eh]
	 Singles Energy            =      -0.0000000000000000 [Eh]
	 Same-Spin Energy          =      -0.6211365053333361 [Eh]
	 Opposite-Spin Energy      =      -1.8681706008304220 [Eh]
	 Correlation Energy        =      -2.4893071061637579 [Eh]
	 Total Energy              =    -933.5352997013034155 [Eh]

	 ================> DF-SCS-MP2 Energies <==================
	-----------------------------------------------------------
	 SCS Same-Spin Scale       =       0.3333333333333333 [-]
	 SCS Opposite-Spin Scale   =       1.2000000000000000 [-]
	 SCS Same-Spin Energy      =      -0.2070455017777787 [Eh]
	 SCS Opposite-Spin Energy  =      -2.2418047209965062 [Eh]
	 SCS Correlation Energy    =      -2.4488502227742850 [Eh]
	 SCS Total Energy          =    -933.4948428179138773 [Eh]
	-----------------------------------------------------------

  Dipole Moment: [D]
     X:     4.5069      Y:     1.0818      Z:     1.8835     Total:     5.0030

*** Psi4 exiting successfully. Buy a developer a beer!
