                               Psi4 1.4a3.dev225

  ==> Input File <==

--------------------------------------------------------------------------
#psi4
#
memory 32 gb

molecule  {
0 1
  S       -1.9906940    -0.0125100    -0.1365530
  O       -2.3617000    -0.1700640     1.4590810
  O       -2.4286150    -1.2343840    -0.7923790
  O       -2.4725380     1.3090340    -0.5392830
  C       -0.2242900    -0.0021990    -0.0874500
  C        1.8486770    -1.2201060     0.0278510
  C        1.8399080     1.2326580     0.0087760
  C        0.4429230     1.2221080    -0.0627730
  C        0.4524940    -1.2213400    -0.0491660
  C        2.5197880     0.0092800     0.0551460
  C        2.6153160    -2.5166400     0.0331700
  C        2.5970370     2.5347130    -0.0106060
  H       -0.1225000     2.1495790    -0.1127420
  H       -0.1051200    -2.1541630    -0.0856740
  H        3.6080620     0.0137470     0.1195720
  H        2.0290960    -3.3176030     0.4912070
  H        2.8411758    -2.7982015    -0.8942041
  H        3.5515030    -2.4163920     0.5891050
  H        2.8417130     2.8282160    -1.0369270
  H        2.0062320     3.3400050     0.4339970
  H        3.5349660     2.4512730     0.5451920
  H       -2.8050090     0.6644540     1.7194690
units angstrom
no_reorient  #important for SAPT in psi4, default
symmetry c1  #important for SAPT in psi4, default
}

set PROPERTIES_ORIGIN ["COM"]
properties('MP2/aug-cc-pvtz', properties = ['dipole'])
--------------------------------------------------------------------------

    Molecular point group: c1
  Charge       = 0
  Multiplicity = 1
  Basis Set: AUG-CC-PVTZ
    Blend: AUG-CC-PVTZ
  Basis Set: (AUG-CC-PVTZ AUX)
    Blend: AUG-CC-PVTZ-JKFIT

    Orbital Energies [Eh]
    ---------------------

    Doubly Occupied:

       1A    -92.228640     2A    -20.628524     3A    -20.564858
       4A    -20.560652     5A    -11.285871     6A    -11.267254
       7A    -11.266547     8A    -11.262548     9A    -11.261739
      10A    -11.256825    11A    -11.241350    12A    -11.228218
      13A     -9.191548    14A     -6.877167    15A     -6.875867
      16A     -6.875630    17A     -1.492598    18A     -1.378963
      19A     -1.351323    20A     -1.187784    21A     -1.083089
      22A     -1.075809    23A     -0.968441    24A     -0.955791
      25A     -0.923853    26A     -0.819181    27A     -0.812060
      28A     -0.740135    29A     -0.723121    30A     -0.691036
      31A     -0.683428    32A     -0.670471    33A     -0.627696
      34A     -0.614293    35A     -0.601898    36A     -0.594041
      37A     -0.588213    38A     -0.574336    39A     -0.568808
      40A     -0.547576    41A     -0.537354    42A     -0.523869
      43A     -0.508753    44A     -0.506667    45A     -0.501777
      46A     -0.483882    47A     -0.473427    48A     -0.363438
      49A     -0.345381

  @DF-RHF Final Energy:  -931.05143837722926

   => Energetics <=

    Nuclear Repulsion Energy =            830.9560869951469613
    One-Electron Energy =               -2927.2315874913779226
    Two-Electron Energy =                1165.2240621190017009
    Total Energy =                       -931.0514383772292604
  Basis Set: (AUG-CC-PVTZ AUX)
    Blend: AUG-CC-PVTZ-RI
    Molecular point group: c1

    Geometry (in Angstrom), charge = 0, multiplicity = 1:

       Center              X                  Y                   Z               Mass
    ------------   -----------------  -----------------  -----------------  -----------------
         S           -1.898254603904    -0.008760423478    -0.128137313075    31.972071174400
         O           -2.269260603904    -0.166314423478     1.467496686925    15.994914619570
         O           -2.336175603904    -1.230634423478    -0.783963313075    15.994914619570
         O           -2.380098603904     1.312783576522    -0.530867313075    15.994914619570
         C           -0.131850603904     0.001550576522    -0.079034313075    12.000000000000
         C            1.941116396096    -1.216356423478     0.036266686925    12.000000000000
         C            1.932347396096     1.236407576522     0.017191686925    12.000000000000
         C            0.535362396096     1.225857576522    -0.054357313075    12.000000000000
         C            0.544933396096    -1.217590423478    -0.040750313075    12.000000000000
         C            2.612227396096     0.013029576522     0.063561686925    12.000000000000
         C            2.707755396096    -2.512890423478     0.041585686925    12.000000000000
         C            2.689476396096     2.538462576522    -0.002190313075    12.000000000000
         H           -0.030060603904     2.153328576522    -0.104326313075     1.007825032230
         H           -0.012680603904    -2.150413423478    -0.077258313075     1.007825032230
         H            3.700501396096     0.017496576522     0.127987686925     1.007825032230
         H            2.121535396096    -3.313853423478     0.499622686925     1.007825032230
         H            2.933615196096    -2.794451923478    -0.885788413075     1.007825032230
         H            3.643942396096    -2.412642423478     0.597520686925     1.007825032230
         H            2.934152396096     2.831965576522    -1.028511313075     1.007825032230
         H            2.098671396096     3.343754576522     0.442412686925     1.007825032230
         H            3.627405396096     2.455022576522     0.553607686925     1.007825032230
         H           -2.712569603904     0.668203576522     1.727884686925     1.007825032230

  Basis Set: AUG-CC-PVTZ
    Blend: AUG-CC-PVTZ
  Basis Set: (AUG-CC-PVTZ AUX)
    Blend: AUG-CC-PVTZ-JKFIT
	 Reference Energy          =    -931.0514383772292604 [Eh]
	 Singles Energy            =      -0.0000000000000000 [Eh]
	 Same-Spin Energy          =      -0.6213273280466565 [Eh]
	 Opposite-Spin Energy      =      -1.8672154028948662 [Eh]
	 Correlation Energy        =      -2.4885427309415227 [Eh]
	 Total Energy              =    -933.5399811081707639 [Eh]

	 ================> DF-SCS-MP2 Energies <==================
	-----------------------------------------------------------
	 SCS Same-Spin Scale       =       0.3333333333333333 [-]
	 SCS Opposite-Spin Scale   =       1.2000000000000000 [-]
	 SCS Same-Spin Energy      =      -0.2071091093488855 [Eh]
	 SCS Opposite-Spin Energy  =      -2.2406584834738394 [Eh]
	 SCS Correlation Energy    =      -2.4477675928227249 [Eh]
	 SCS Total Energy          =    -933.4992059700520031 [Eh]
	-----------------------------------------------------------

  Dipole Moment: [D]
     X:     4.4442      Y:     0.9815      Z:     1.8701     Total:     4.9205

*** Psi4 exiting successfully. Buy a developer a beer!
