                               Psi4 1.4a3.dev225

  ==> Input File <==

--------------------------------------------------------------------------
#psi4
#
memory 32 gb

molecule  {
0 1
  S       -1.9906940    -0.0125100    -0.1365530
  O       -2.3617000    -0.1700640     1.4590810
  O       -2.4286150    -1.2343840    -0.7923790
  O       -2.4240509     1.3247537    -0.5424732
  C       -0.2242900    -0.0021990    -0.0874500
  C        1.8486770    -1.2201060     0.0278510
  C        1.8399080     1.2326580     0.0087760
  C        0.4429230     1.2221080    -0.0627730
  C        0.4524940    -1.2213400    -0.0491660
  C        2.5197880     0.0092800     0.0551460
  C        2.6153160    -2.5166400     0.0331700
  C        2.5970370     2.5347130    -0.0106060
  H       -0.1225000     2.1495790    -0.1127420
  H       -0.1051200    -2.1541630    -0.0856740
  H        3.6080620     0.0137470     0.1195720
  H        2.0290960    -3.3176030     0.4912070
  H        2.8638720    -2.8264950    -0.9873940
  H        3.5515030    -2.4163920     0.5891050
  H        2.8417130     2.8282160    -1.0369270
  H        2.0062320     3.3400050     0.4339970
  H        3.5349660     2.4512730     0.5451920
  H       -2.8050090     0.6644540     1.7194690
units angstrom
no_reorient  #important for SAPT in psi4, default
symmetry c1  #important for SAPT in psi4, default
}

set PROPERTIES_ORIGIN ["COM"]
properties('MP2/aug-cc-pvtz', properties = ['dipole'])
--------------------------------------------------------------------------

    Molecular point group: c1
  Charge       = 0
  Multiplicity = 1
  Basis Set: AUG-CC-PVTZ
    Blend: AUG-CC-PVTZ
  Basis Set: (AUG-CC-PVTZ AUX)
    Blend: AUG-CC-PVTZ-JKFIT

    Orbital Energies [Eh]
    ---------------------

    Doubly Occupied:

       1A    -92.229443     2A    -20.630510     3A    -20.565723
       4A    -20.562992     5A    -11.283899     6A    -11.266216
       7A    -11.265927     8A    -11.261105     9A    -11.260599
      10A    -11.255892    11A    -11.240633    12A    -11.239583
      13A     -9.192293    14A     -6.877913    15A     -6.876661
      16A     -6.876343    17A     -1.493555    18A     -1.380648
      19A     -1.353643    20A     -1.186452    21A     -1.080504
      22A     -1.073852    23A     -0.961499    24A     -0.952579
      25A     -0.923292    26A     -0.819300    27A     -0.808677
      28A     -0.740561    29A     -0.723170    30A     -0.690939
      31A     -0.683309    32A     -0.670484    33A     -0.628911
      34A     -0.601573    35A     -0.600001    36A     -0.590682
      37A     -0.584500    38A     -0.575410    39A     -0.568743
      40A     -0.547184    41A     -0.536563    42A     -0.524850
      43A     -0.508020    44A     -0.506620    45A     -0.500851
      46A     -0.485635    47A     -0.472681    48A     -0.361958
      49A     -0.343839

  @DF-RHF Final Energy:  -931.05657553258709

   => Energetics <=

    Nuclear Repulsion Energy =            830.9040972950642754
    One-Electron Energy =               -2927.1889157400646582
    Two-Electron Energy =                1165.2282429124134069
    Total Energy =                       -931.0565755325869759
  Basis Set: (AUG-CC-PVTZ AUX)
    Blend: AUG-CC-PVTZ-RI
    Molecular point group: c1

    Geometry (in Angstrom), charge = 0, multiplicity = 1:

       Center              X                  Y                   Z               Mass
    ------------   -----------------  -----------------  -----------------  -----------------
         S           -1.902546379874    -0.009958694144    -0.127358179903    31.972071174400
         O           -2.273552379874    -0.167512694144     1.468275820097    15.994914619570
         O           -2.340467379874    -1.231832694144    -0.783184179903    15.994914619570
         O           -2.335903279874     1.327305005856    -0.533278379903    15.994914619570
         C           -0.136142379874     0.000352305856    -0.078255179903    12.000000000000
         C            1.936824620126    -1.217554694144     0.037045820097    12.000000000000
         C            1.928055620126     1.235209305856     0.017970820097    12.000000000000
         C            0.531070620126     1.224659305856    -0.053578179903    12.000000000000
         C            0.540641620126    -1.218788694144    -0.039971179903    12.000000000000
         C            2.607935620126     0.011831305856     0.064340820097    12.000000000000
         C            2.703463620126    -2.514088694144     0.042364820097    12.000000000000
         C            2.685184620126     2.537264305856    -0.001411179903    12.000000000000
         H           -0.034352379874     2.152130305856    -0.103547179903     1.007825032230
         H           -0.016972379874    -2.151611694144    -0.076479179903     1.007825032230
         H            3.696209620126     0.016298305856     0.128766820097     1.007825032230
         H            2.117243620126    -3.315051694144     0.500401820097     1.007825032230
         H            2.952019620126    -2.823943694144    -0.978199179903     1.007825032230
         H            3.639650620126    -2.413840694144     0.598299820097     1.007825032230
         H            2.929860620126     2.830767305856    -1.027732179903     1.007825032230
         H            2.094379620126     3.342556305856     0.443191820097     1.007825032230
         H            3.623113620126     2.453824305856     0.554386820097     1.007825032230
         H           -2.716861379874     0.667005305856     1.728663820097     1.007825032230

  Basis Set: AUG-CC-PVTZ
    Blend: AUG-CC-PVTZ
  Basis Set: (AUG-CC-PVTZ AUX)
    Blend: AUG-CC-PVTZ-JKFIT
	 Reference Energy          =    -931.0565755325870896 [Eh]
	 Singles Energy            =      -0.0000000000000000 [Eh]
	 Same-Spin Energy          =      -0.6214682645043679 [Eh]
	 Opposite-Spin Energy      =      -1.8680035751653752 [Eh]
	 Correlation Energy        =      -2.4894718396697431 [Eh]
	 Total Energy              =    -933.5460473722567940 [Eh]

	 ================> DF-SCS-MP2 Energies <==================
	-----------------------------------------------------------
	 SCS Same-Spin Scale       =       0.3333333333333333 [-]
	 SCS Opposite-Spin Scale   =       1.2000000000000000 [-]
	 SCS Same-Spin Energy      =      -0.2071560881681226 [Eh]
	 SCS Opposite-Spin Energy  =      -2.2416042901984503 [Eh]
	 SCS Correlation Energy    =      -2.4487603783665728 [Eh]
	 SCS Total Energy          =    -933.5053359109537041 [Eh]
	-----------------------------------------------------------

  Dipole Moment: [D]
     X:     4.2459      Y:     0.9800      Z:     1.8978     Total:     4.7529

*** Psi4 exiting successfully. Buy a developer a beer!
