                               Psi4 1.4a3.dev225

  ==> Input File <==

--------------------------------------------------------------------------
#psi4
#
memory 32 gb

molecule  {
0 1
  S       -1.9906940    -0.0125100    -0.1365530
  O       -2.3617000    -0.1700640     1.4590810
  O       -2.4286150    -1.2343840    -0.7923790
  O       -2.4725380     1.3090340    -0.5392830
  C       -0.2242900    -0.0021990    -0.0874500
  C        1.8486770    -1.2201060     0.0278510
  C        1.8399080     1.2326580     0.0087760
  C        0.4429230     1.2221080    -0.0627730
  C        0.4524940    -1.2213400    -0.0491660
  C        2.5197880     0.0092800     0.0551460
  C        2.6153160    -2.5166400     0.0331700
  C        2.5970370     2.5347130    -0.0106060
  H       -0.1225000     2.1495790    -0.1127420
  H       -0.1051200    -2.1541630    -0.0856740
  H        3.6080620     0.0137470     0.1195720
  H        2.1151137    -3.3298037     0.5656697
  H        2.8638720    -2.8264950    -0.9873940
  H        3.5515030    -2.4163920     0.5891050
  H        2.8417130     2.8282160    -1.0369270
  H        2.0062320     3.3400050     0.4339970
  H        3.5349660     2.4512730     0.5451920
  H       -2.8050090     0.6644540     1.7194690
units angstrom
no_reorient  #important for SAPT in psi4, default
symmetry c1  #important for SAPT in psi4, default
}

set PROPERTIES_ORIGIN ["COM"]
properties('MP2/aug-cc-pvtz', properties = ['dipole'])
--------------------------------------------------------------------------

    Molecular point group: c1
  Charge       = 0
  Multiplicity = 1
  Basis Set: AUG-CC-PVTZ
    Blend: AUG-CC-PVTZ
  Basis Set: (AUG-CC-PVTZ AUX)
    Blend: AUG-CC-PVTZ-JKFIT

    Orbital Energies [Eh]
    ---------------------

    Doubly Occupied:

       1A    -92.228743     2A    -20.628626     3A    -20.564970
       4A    -20.560714     5A    -11.285987     6A    -11.267602
       7A    -11.267468     8A    -11.263023     9A    -11.262136
      10A    -11.257487    11A    -11.241538    12A    -11.239970
      13A     -9.191649    14A     -6.877269    15A     -6.875969
      16A     -6.875731    17A     -1.492693    18A     -1.379058
      19A     -1.351409    20A     -1.187909    21A     -1.081323
      22A     -1.075447    23A     -0.962348    24A     -0.954049
      25A     -0.923995    26A     -0.819167    27A     -0.810488
      28A     -0.740120    29A     -0.723005    30A     -0.691111
      31A     -0.683180    32A     -0.670199    33A     -0.627705
      34A     -0.606403    35A     -0.601367    36A     -0.591771
      37A     -0.588551    38A     -0.573945    39A     -0.565856
      40A     -0.542871    41A     -0.536252    42A     -0.523685
      43A     -0.508619    44A     -0.507276    45A     -0.501026
      46A     -0.483907    47A     -0.473523    48A     -0.363622
      49A     -0.345472

  @DF-RHF Final Energy:  -931.05623150283100

   => Energetics <=

    Nuclear Repulsion Energy =            830.3284855942888498
    One-Electron Energy =               -2926.0169633263831201
    Two-Electron Energy =                1164.6322462292632736
    Total Energy =                       -931.0562315028309968
  Basis Set: (AUG-CC-PVTZ AUX)
    Blend: AUG-CC-PVTZ-RI
    Molecular point group: c1

    Geometry (in Angstrom), charge = 0, multiplicity = 1:

       Center              X                  Y                   Z               Mass
    ------------   -----------------  -----------------  -----------------  -----------------
         S           -1.898843549808    -0.008541050488    -0.128035860476    31.972071174400
         O           -2.269849549808    -0.166095050488     1.467598139524    15.994914619570
         O           -2.336764549808    -1.230415050488    -0.783861860476    15.994914619570
         O           -2.380687549808     1.313002949512    -0.530765860476    15.994914619570
         C           -0.132439549808     0.001769949512    -0.078932860476    12.000000000000
         C            1.940527450192    -1.216137050488     0.036368139524    12.000000000000
         C            1.931758450192     1.236626949512     0.017293139524    12.000000000000
         C            0.534773450192     1.226076949512    -0.054255860476    12.000000000000
         C            0.544344450192    -1.217371050488    -0.040648860476    12.000000000000
         C            2.611638450192     0.013248949512     0.063663139524    12.000000000000
         C            2.707166450192    -2.512671050488     0.041687139524    12.000000000000
         C            2.688887450192     2.538681949512    -0.002088860476    12.000000000000
         H           -0.030649549808     2.153547949512    -0.104224860476     1.007825032230
         H           -0.013269549808    -2.150194050488    -0.077156860476     1.007825032230
         H            3.699912450192     0.017715949512     0.128089139524     1.007825032230
         H            2.206964150192    -3.325834750488     0.574186839524     1.007825032230
         H            2.955722450192    -2.822526050488    -0.978876860476     1.007825032230
         H            3.643353450192    -2.412423050488     0.597622139524     1.007825032230
         H            2.933563450192     2.832184949512    -1.028409860476     1.007825032230
         H            2.098082450192     3.343973949512     0.442514139524     1.007825032230
         H            3.626816450192     2.455241949512     0.553709139524     1.007825032230
         H           -2.713158549808     0.668422949512     1.727986139524     1.007825032230

  Basis Set: AUG-CC-PVTZ
    Blend: AUG-CC-PVTZ
  Basis Set: (AUG-CC-PVTZ AUX)
    Blend: AUG-CC-PVTZ-JKFIT
	 Reference Energy          =    -931.0562315028309968 [Eh]
	 Singles Energy            =      -0.0000000000000000 [Eh]
	 Same-Spin Energy          =      -0.6213011045460040 [Eh]
	 Opposite-Spin Energy      =      -1.8676874114430562 [Eh]
	 Correlation Energy        =      -2.4889885159890603 [Eh]
	 Total Energy              =    -933.5452200188200322 [Eh]

	 ================> DF-SCS-MP2 Energies <==================
	-----------------------------------------------------------
	 SCS Same-Spin Scale       =       0.3333333333333333 [-]
	 SCS Opposite-Spin Scale   =       1.2000000000000000 [-]
	 SCS Same-Spin Energy      =      -0.2071003681820013 [Eh]
	 SCS Opposite-Spin Energy  =      -2.2412248937316672 [Eh]
	 SCS Correlation Energy    =      -2.4483252619136686 [Eh]
	 SCS Total Energy          =    -933.5045567647446205 [Eh]
	-----------------------------------------------------------

  Dipole Moment: [D]
     X:     4.4368      Y:     1.0061      Z:     1.9240     Total:     4.9396

*** Psi4 exiting successfully. Buy a developer a beer!
