                               Psi4 1.4a3.dev225

  ==> Input File <==

--------------------------------------------------------------------------
#psi4
#
memory 32 gb

molecule  {
0 1
  S       -1.9906940    -0.0125100    -0.1365530
  O       -2.3617000    -0.1700640     1.4590810
  O       -2.4286150    -1.2343840    -0.7923790
  O       -2.4725380     1.3090340    -0.5392830
  C       -0.2242900    -0.0021990    -0.0874500
  C        1.8486770    -1.2201060     0.0278510
  C        1.8399080     1.2326580     0.0087760
  C        0.4429230     1.2221080    -0.0627730
  C        0.4524940    -1.2213400    -0.0491660
  C        2.5197880     0.0092800     0.0551460
  C        2.6153160    -2.5166400     0.0331700
  C        2.5970370     2.5347130    -0.0106060
  H       -0.1225000     2.1495790    -0.1127420
  H       -0.1051200    -2.1541630    -0.0856740
  H        3.6080620     0.0137470     0.1195720
  H        2.0290960    -3.3176030     0.4912070
  H        2.8752201    -2.8406418    -1.0339890
  H        3.5515030    -2.4163920     0.5891050
  H        2.8417130     2.8282160    -1.0369270
  H        2.0062320     3.3400050     0.4339970
  H        3.5349660     2.4512730     0.5451920
  H       -2.8050090     0.6644540     1.7194690
units angstrom
no_reorient  #important for SAPT in psi4, default
symmetry c1  #important for SAPT in psi4, default
}

set PROPERTIES_ORIGIN ["COM"]
properties('MP2/aug-cc-pvtz', properties = ['dipole'])
--------------------------------------------------------------------------

    Molecular point group: c1
  Charge       = 0
  Multiplicity = 1
  Basis Set: AUG-CC-PVTZ
    Blend: AUG-CC-PVTZ
  Basis Set: (AUG-CC-PVTZ AUX)
    Blend: AUG-CC-PVTZ-JKFIT

    Orbital Energies [Eh]
    ---------------------

    Doubly Occupied:

       1A    -92.228873     2A    -20.628733     3A    -20.565074
       4A    -20.560846     5A    -11.286200     6A    -11.267580
       7A    -11.267457     8A    -11.262976     9A    -11.262284
      10A    -11.257330    11A    -11.246199    12A    -11.241570
      13A     -9.191778    14A     -6.877398    15A     -6.876098
      16A     -6.875860    17A     -1.492807    18A     -1.379168
      19A     -1.351524    20A     -1.188002    21A     -1.081278
      22A     -1.075323    23A     -0.961076    24A     -0.952085
      25A     -0.924169    26A     -0.819224    27A     -0.809011
      28A     -0.740097    29A     -0.722770    30A     -0.691341
      31A     -0.683844    32A     -0.670823    33A     -0.627905
      34A     -0.602694    35A     -0.598540    36A     -0.590947
      37A     -0.580138    38A     -0.574136    39A     -0.569514
      40A     -0.548303    41A     -0.537780    42A     -0.523430
      43A     -0.508262    44A     -0.506746    45A     -0.500090
      46A     -0.484063    47A     -0.473731    48A     -0.363257
      49A     -0.344893

  @DF-RHF Final Energy:  -931.05536017745089

   => Energetics <=

    Nuclear Repulsion Energy =            830.2533941401470656
    One-Electron Energy =               -2925.8710535437894578
    Two-Electron Energy =                1164.5622992261914987
    Total Energy =                       -931.0553601774508934
  Basis Set: (AUG-CC-PVTZ AUX)
    Blend: AUG-CC-PVTZ-RI
    Molecular point group: c1

    Geometry (in Angstrom), charge = 0, multiplicity = 1:

       Center              X                  Y                   Z               Mass
    ------------   -----------------  -----------------  -----------------  -----------------
         S           -1.898439035251    -0.008530507700    -0.127380043358    31.972071174400
         O           -2.269445035251    -0.166084507700     1.468253956642    15.994914619570
         O           -2.336360035251    -1.230404507700    -0.783206043358    15.994914619570
         O           -2.380283035251     1.313013492300    -0.530110043358    15.994914619570
         C           -0.132035035251     0.001780492300    -0.078277043358    12.000000000000
         C            1.940931964749    -1.216126507700     0.037023956642    12.000000000000
         C            1.932162964749     1.236637492300     0.017948956642    12.000000000000
         C            0.535177964749     1.226087492300    -0.053600043358    12.000000000000
         C            0.544748964749    -1.217360507700    -0.039993043358    12.000000000000
         C            2.612042964749     0.013259492300     0.064318956642    12.000000000000
         C            2.707570964749    -2.512660507700     0.042342956642    12.000000000000
         C            2.689291964749     2.538692492300    -0.001433043358    12.000000000000
         H           -0.030245035251     2.153558492300    -0.103569043358     1.007825032230
         H           -0.012865035251    -2.150183507700    -0.076501043358     1.007825032230
         H            3.700316964749     0.017726492300     0.128744956642     1.007825032230
         H            2.121350964749    -3.313623507700     0.500379956642     1.007825032230
         H            2.967475064749    -2.836662307700    -1.024816043358     1.007825032230
         H            3.643757964749    -2.412412507700     0.598277956642     1.007825032230
         H            2.933967964749     2.832195492300    -1.027754043358     1.007825032230
         H            2.098486964749     3.343984492300     0.443169956642     1.007825032230
         H            3.627220964749     2.455252492300     0.554364956642     1.007825032230
         H           -2.712754035251     0.668433492300     1.728641956642     1.007825032230

  Basis Set: AUG-CC-PVTZ
    Blend: AUG-CC-PVTZ
  Basis Set: (AUG-CC-PVTZ AUX)
    Blend: AUG-CC-PVTZ-JKFIT
	 Reference Energy          =    -931.0553601774508934 [Eh]
	 Singles Energy            =      -0.0000000000000000 [Eh]
	 Same-Spin Energy          =      -0.6212937438581706 [Eh]
	 Opposite-Spin Energy      =      -1.8679980101467941 [Eh]
	 Correlation Energy        =      -2.4892917540049648 [Eh]
	 Total Energy              =    -933.5446519314558600 [Eh]

	 ================> DF-SCS-MP2 Energies <==================
	-----------------------------------------------------------
	 SCS Same-Spin Scale       =       0.3333333333333333 [-]
	 SCS Opposite-Spin Scale   =       1.2000000000000000 [-]
	 SCS Same-Spin Energy      =      -0.2070979146193902 [Eh]
	 SCS Opposite-Spin Energy  =      -2.2415976121761529 [Eh]
	 SCS Correlation Energy    =      -2.4486955267955430 [Eh]
	 SCS Total Energy          =    -933.5040557042464116 [Eh]
	-----------------------------------------------------------

  Dipole Moment: [D]
     X:     4.4166      Y:     1.0192      Z:     1.9041     Total:     4.9163

*** Psi4 exiting successfully. Buy a developer a beer!
