                               Psi4 1.4a3.dev225

  ==> Input File <==

--------------------------------------------------------------------------
#psi4
#
memory 32 gb

molecule  {
0 1
  S       -1.9906940    -0.0125100    -0.1365530
  O       -2.3617000    -0.1700640     1.4590810
  O       -2.4286150    -1.2343840    -0.7923790
  O       -2.6142444     1.2523007    -0.5267869
  C       -0.2242900    -0.0021990    -0.0874500
  C        1.8486770    -1.2201060     0.0278510
  C        1.8399080     1.2326580     0.0087760
  C        0.4429230     1.2221080    -0.0627730
  C        0.4524940    -1.2213400    -0.0491660
  C        2.5197880     0.0092800     0.0551460
  C        2.6153160    -2.5166400     0.0331700
  C        2.5970370     2.5347130    -0.0106060
  H       -0.1225000     2.1495790    -0.1127420
  H       -0.1051200    -2.1541630    -0.0856740
  H        3.6080620     0.0137470     0.1195720
  H        2.0290960    -3.3176030     0.4912070
  H        2.8638720    -2.8264950    -0.9873940
  H        3.5515030    -2.4163920     0.5891050
  H        2.8417130     2.8282160    -1.0369270
  H        2.0062320     3.3400050     0.4339970
  H        3.5349660     2.4512730     0.5451920
  H       -2.8050090     0.6644540     1.7194690
units angstrom
no_reorient  #important for SAPT in psi4, default
symmetry c1  #important for SAPT in psi4, default
}

set PROPERTIES_ORIGIN ["COM"]
properties('MP2/aug-cc-pvtz', properties = ['dipole'])
--------------------------------------------------------------------------

    Molecular point group: c1
  Charge       = 0
  Multiplicity = 1
  Basis Set: AUG-CC-PVTZ
    Blend: AUG-CC-PVTZ
  Basis Set: (AUG-CC-PVTZ AUX)
    Blend: AUG-CC-PVTZ-JKFIT

    Orbital Energies [Eh]
    ---------------------

    Doubly Occupied:

       1A    -92.226644     2A    -20.623103     3A    -20.562361
       4A    -20.553988     5A    -11.292270     6A    -11.270872
       7A    -11.270452     8A    -11.267440     9A    -11.266081
      10A    -11.260505    11A    -11.243875    12A    -11.242513
      13A     -9.189791    14A     -6.875402    15A     -6.873962
      16A     -6.873945    17A     -1.490407    18A     -1.374420
      19A     -1.344462    20A     -1.191858    21A     -1.084791
      22A     -1.079856    23A     -0.965108    24A     -0.957026
      25A     -0.926317    26A     -0.818673    27A     -0.813182
      28A     -0.739160    29A     -0.721470    30A     -0.692312
      31A     -0.684812    32A     -0.670371    33A     -0.624261
      34A     -0.604939    35A     -0.603294    36A     -0.594940
      37A     -0.587636    38A     -0.573850    39A     -0.568287
      40A     -0.550413    41A     -0.540412    42A     -0.520200
      43A     -0.511214    44A     -0.506368    45A     -0.498036
      46A     -0.479901    47A     -0.474015    48A     -0.366970
      49A     -0.348421

  @DF-RHF Final Energy:  -931.05608575261601

   => Energetics <=

    Nuclear Repulsion Energy =            829.3625969952236119
    One-Electron Energy =               -2924.0361958117723589
    Two-Electron Energy =                1163.6175130639326198
    Total Energy =                       -931.0560857526161271
  Basis Set: (AUG-CC-PVTZ AUX)
    Blend: AUG-CC-PVTZ-RI
    Molecular point group: c1

    Geometry (in Angstrom), charge = 0, multiplicity = 1:

       Center              X                  Y                   Z               Mass
    ------------   -----------------  -----------------  -----------------  -----------------
         S           -1.886193931545    -0.003729333315    -0.128706855911    31.972071174400
         O           -2.257199931545    -0.161283333315     1.466927144089    15.994914619570
         O           -2.324114931545    -1.225603333315    -0.784532855911    15.994914619570
         O           -2.509744331545     1.261081366685    -0.518940755911    15.994914619570
         C           -0.119789931545     0.006581666685    -0.079603855911    12.000000000000
         C            1.953177068455    -1.211325333315     0.035697144089    12.000000000000
         C            1.944408068455     1.241438666685     0.016622144089    12.000000000000
         C            0.547423068455     1.230888666685    -0.054926855911    12.000000000000
         C            0.556994068455    -1.212559333315    -0.041319855911    12.000000000000
         C            2.624288068455     0.018060666685     0.062992144089    12.000000000000
         C            2.719816068455    -2.507859333315     0.041016144089    12.000000000000
         C            2.701537068455     2.543493666685    -0.002759855911    12.000000000000
         H           -0.017999931545     2.158359666685    -0.104895855911     1.007825032230
         H           -0.000619931545    -2.145382333315    -0.077827855911     1.007825032230
         H            3.712562068455     0.022527666685     0.127418144089     1.007825032230
         H            2.133596068455    -3.308822333315     0.499053144089     1.007825032230
         H            2.968372068455    -2.817714333315    -0.979547855911     1.007825032230
         H            3.656003068455    -2.407611333315     0.596951144089     1.007825032230
         H            2.946213068455     2.836996666685    -1.029080855911     1.007825032230
         H            2.110732068455     3.348785666685     0.441843144089     1.007825032230
         H            3.639466068455     2.460053666685     0.553038144089     1.007825032230
         H           -2.700508931545     0.673234666685     1.727315144089     1.007825032230

  Basis Set: AUG-CC-PVTZ
    Blend: AUG-CC-PVTZ
  Basis Set: (AUG-CC-PVTZ AUX)
    Blend: AUG-CC-PVTZ-JKFIT
	 Reference Energy          =    -931.0560857526160135 [Eh]
	 Singles Energy            =      -0.0000000000000000 [Eh]
	 Same-Spin Energy          =      -0.6209988138556414 [Eh]
	 Opposite-Spin Energy      =      -1.8671224863754281 [Eh]
	 Correlation Energy        =      -2.4881213002310694 [Eh]
	 Total Energy              =    -933.5442070528471277 [Eh]

	 ================> DF-SCS-MP2 Energies <==================
	-----------------------------------------------------------
	 SCS Same-Spin Scale       =       0.3333333333333333 [-]
	 SCS Opposite-Spin Scale   =       1.2000000000000000 [-]
	 SCS Same-Spin Energy      =      -0.2069996046185471 [Eh]
	 SCS Opposite-Spin Energy  =      -2.2405469836505136 [Eh]
	 SCS Correlation Energy    =      -2.4475465882690606 [Eh]
	 SCS Total Energy          =    -933.5036323408850194 [Eh]
	-----------------------------------------------------------

  Dipole Moment: [D]
     X:     4.9479      Y:     1.0930      Z:     1.8583     Total:     5.3972

*** Psi4 exiting successfully. Buy a developer a beer!
