                               Psi4 1.4a3.dev225

  ==> Input File <==

--------------------------------------------------------------------------
#psi4
#
memory 32 gb

molecule  {
0 1
  S       -1.9906940    -0.0125100    -0.1365530
  O       -2.3617000    -0.1700640     1.4590810
  O       -2.4286150    -1.2343840    -0.7923790
  O       -2.4725380     1.3090340    -0.5392830
  C       -0.2242900    -0.0021990    -0.0874500
  C        1.8486770    -1.2201060     0.0278510
  C        1.8399080     1.2326580     0.0087760
  C        0.4429230     1.2221080    -0.0627730
  C        0.4524940    -1.2213400    -0.0491660
  C        2.6039022    -0.0405584     0.0566145
  C        2.6153160    -2.5166400     0.0331700
  C        2.5970370     2.5347130    -0.0106060
  H       -0.1225000     2.1495790    -0.1127420
  H       -0.1051200    -2.1541630    -0.0856740
  H        3.6080620     0.0137470     0.1195720
  H        2.0290960    -3.3176030     0.4912070
  H        2.8638720    -2.8264950    -0.9873940
  H        3.5515030    -2.4163920     0.5891050
  H        2.8417130     2.8282160    -1.0369270
  H        2.0062320     3.3400050     0.4339970
  H        3.5349660     2.4512730     0.5451920
  H       -2.8050090     0.6644540     1.7194690
units angstrom
no_reorient  #important for SAPT in psi4, default
symmetry c1  #important for SAPT in psi4, default
}

set PROPERTIES_ORIGIN ["COM"]
properties('MP2/aug-cc-pvtz', properties = ['dipole'])
--------------------------------------------------------------------------

    Molecular point group: c1
  Charge       = 0
  Multiplicity = 1
  Basis Set: AUG-CC-PVTZ
    Blend: AUG-CC-PVTZ
  Basis Set: (AUG-CC-PVTZ AUX)
    Blend: AUG-CC-PVTZ-JKFIT

    Orbital Energies [Eh]
    ---------------------

    Doubly Occupied:

       1A    -92.229355     2A    -20.629243     3A    -20.565654
       4A    -20.561249     5A    -11.288023     6A    -11.276525
       7A    -11.268349     8A    -11.263669     9A    -11.261014
      10A    -11.259158    11A    -11.240987    12A    -11.237654
      13A     -9.192287    14A     -6.877905    15A     -6.876607
      16A     -6.876368    17A     -1.493291    18A     -1.379612
      19A     -1.351991    20A     -1.181779    21A     -1.081202
      22A     -1.072399    23A     -0.958199    24A     -0.953355
      25A     -0.928202    26A     -0.823639    27A     -0.800370
      28A     -0.740742    29A     -0.724626    30A     -0.702583
      31A     -0.683002    32A     -0.670434    33A     -0.628279
      34A     -0.599023    35A     -0.598643    36A     -0.591361
      37A     -0.584504    38A     -0.584213    39A     -0.570218
      40A     -0.548476    41A     -0.545965    42A     -0.523712
      43A     -0.507069    44A     -0.499853    45A     -0.492533
      46A     -0.484437    47A     -0.474387    48A     -0.359819
      49A     -0.342344

  @DF-RHF Final Energy:  -931.04366347917585

   => Energetics <=

    Nuclear Repulsion Energy =            828.8258696453383436
    One-Electron Energy =               -2922.9704487199110190
    Two-Electron Energy =                1163.1009155953970549
    Total Energy =                       -931.0436634791758479
  Basis Set: (AUG-CC-PVTZ AUX)
    Blend: AUG-CC-PVTZ-RI
    Molecular point group: c1

    Geometry (in Angstrom), charge = 0, multiplicity = 1:

       Center              X                  Y                   Z               Mass
    ------------   -----------------  -----------------  -----------------  -----------------
         S           -1.903803257845    -0.005392371888    -0.127727190855    31.972071174400
         O           -2.274809257845    -0.162946371888     1.467906809145    15.994914619570
         O           -2.341724257845    -1.227266371888    -0.783553190855    15.994914619570
         O           -2.385647257845     1.316151628112    -0.530457190855    15.994914619570
         C           -0.137399257845     0.004918628112    -0.078624190855    12.000000000000
         C            1.935567742155    -1.212988371888     0.036676809145    12.000000000000
         C            1.926798742155     1.239775628112     0.017601809145    12.000000000000
         C            0.529813742155     1.229225628112    -0.053947190855    12.000000000000
         C            0.539384742155    -1.214222371888    -0.040340190855    12.000000000000
         C            2.690792942155    -0.033440771888     0.065440309145    12.000000000000
         C            2.702206742155    -2.509522371888     0.041995809145    12.000000000000
         C            2.683927742155     2.541830628112    -0.001780190855    12.000000000000
         H           -0.035609257845     2.156696628112    -0.103916190855     1.007825032230
         H           -0.018229257845    -2.147045371888    -0.076848190855     1.007825032230
         H            3.694952742155     0.020864628112     0.128397809145     1.007825032230
         H            2.115986742155    -3.310485371888     0.500032809145     1.007825032230
         H            2.950762742155    -2.819377371888    -0.978568190855     1.007825032230
         H            3.638393742155    -2.409274371888     0.597930809145     1.007825032230
         H            2.928603742155     2.835333628112    -1.028101190855     1.007825032230
         H            2.093122742155     3.347122628112     0.442822809145     1.007825032230
         H            3.621856742155     2.458390628112     0.554017809145     1.007825032230
         H           -2.718118257845     0.671571628112     1.728294809145     1.007825032230

  Basis Set: AUG-CC-PVTZ
    Blend: AUG-CC-PVTZ
  Basis Set: (AUG-CC-PVTZ AUX)
    Blend: AUG-CC-PVTZ-JKFIT
	 Reference Energy          =    -931.0436634791758479 [Eh]
	 Singles Energy            =      -0.0000000000000000 [Eh]
	 Same-Spin Energy          =      -0.6214537331927150 [Eh]
	 Opposite-Spin Energy      =      -1.8688021240460726 [Eh]
	 Correlation Energy        =      -2.4902558572387878 [Eh]
	 Total Energy              =    -933.5339193364146695 [Eh]

	 ================> DF-SCS-MP2 Energies <==================
	-----------------------------------------------------------
	 SCS Same-Spin Scale       =       0.3333333333333333 [-]
	 SCS Opposite-Spin Scale   =       1.2000000000000000 [-]
	 SCS Same-Spin Energy      =      -0.2071512443975717 [Eh]
	 SCS Opposite-Spin Energy  =      -2.2425625488552869 [Eh]
	 SCS Correlation Energy    =      -2.4497137932528585 [Eh]
	 SCS Total Energy          =    -933.4933772724286882 [Eh]
	-----------------------------------------------------------

  Dipole Moment: [D]
     X:     4.4276      Y:     1.0575      Z:     1.8908     Total:     4.9293

*** Psi4 exiting successfully. Buy a developer a beer!
