                               Psi4 1.4a3.dev225

  ==> Input File <==

--------------------------------------------------------------------------
#psi4
#
memory 32 gb

molecule  {
0 1
  S       -1.9906940    -0.0125100    -0.1365530
  O       -2.3617000    -0.1700640     1.4590810
  O       -2.4286150    -1.2343840    -0.7923790
  O       -2.4725380     1.3090340    -0.5392830
  C       -0.2242900    -0.0021990    -0.0874500
  C        1.8486770    -1.2201060     0.0278510
  C        1.8399080     1.2326580     0.0087760
  C        0.4429230     1.2221080    -0.0627730
  C        0.4524940    -1.2213400    -0.0491660
  C        2.5197880     0.0092800     0.0551460
  C        2.6153160    -2.5166400     0.0331700
  C        2.5970370     2.5347130    -0.0106060
  H       -0.1225000     2.1495790    -0.1127420
  H       -0.1051200    -2.1541630    -0.0856740
  H        3.6080620     0.0137470     0.1195720
  H        2.0290960    -3.3176030     0.4912070
  H        2.8638720    -2.8264950    -0.9873940
  H        3.7227437    -2.3980553     0.6907927
  H        2.8417130     2.8282160    -1.0369270
  H        2.0062320     3.3400050     0.4339970
  H        3.5349660     2.4512730     0.5451920
  H       -2.8050090     0.6644540     1.7194690
units angstrom
no_reorient  #important for SAPT in psi4, default
symmetry c1  #important for SAPT in psi4, default
}

set PROPERTIES_ORIGIN ["COM"]
properties('MP2/aug-cc-pvtz', properties = ['dipole'])
--------------------------------------------------------------------------

    Molecular point group: c1
  Charge       = 0
  Multiplicity = 1
  Basis Set: AUG-CC-PVTZ
    Blend: AUG-CC-PVTZ
  Basis Set: (AUG-CC-PVTZ AUX)
    Blend: AUG-CC-PVTZ-JKFIT

    Orbital Energies [Eh]
    ---------------------

    Doubly Occupied:

       1A    -92.229461     2A    -20.629190     3A    -20.565592
       4A    -20.561404     5A    -11.286971     6A    -11.269138
       7A    -11.267920     8A    -11.263810     9A    -11.263744
      10A    -11.262937    11A    -11.257677    12A    -11.241802
      13A     -9.192355    14A     -6.877975    15A     -6.876678
      16A     -6.876440    17A     -1.493319    18A     -1.379649
      19A     -1.352055    20A     -1.188692    21A     -1.081391
      22A     -1.075107    23A     -0.960357    24A     -0.947150
      25A     -0.924631    26A     -0.819236    27A     -0.807970
      28A     -0.740022    29A     -0.723078    30A     -0.691830
      31A     -0.683263    32A     -0.670547    33A     -0.627967
      34A     -0.603841    35A     -0.600660    36A     -0.593123
      37A     -0.584681    38A     -0.573834    39A     -0.562827
      40A     -0.540132    41A     -0.527616    42A     -0.517551
      43A     -0.509456    44A     -0.506423    45A     -0.501756
      46A     -0.484163    47A     -0.472810    48A     -0.363588
      49A     -0.345959

  @DF-RHF Final Energy:  -931.03718932094921

   => Energetics <=

    Nuclear Repulsion Energy =            829.6494273279369054
    One-Electron Energy =               -2924.6176739736038144
    Two-Electron Energy =                1163.9310573247178127
    Total Energy =                       -931.0371893209492100
  Basis Set: (AUG-CC-PVTZ AUX)
    Blend: AUG-CC-PVTZ-RI
    Molecular point group: c1

    Geometry (in Angstrom), charge = 0, multiplicity = 1:

       Center              X                  Y                   Z               Mass
    ------------   -----------------  -----------------  -----------------  -----------------
         S           -1.899305236279    -0.008706483580    -0.128183348996    31.972071174400
         O           -2.270311236279    -0.166260483580     1.467450651004    15.994914619570
         O           -2.337226236279    -1.230580483580    -0.784009348996    15.994914619570
         O           -2.381149236279     1.312837516420    -0.530913348996    15.994914619570
         C           -0.132901236279     0.001604516420    -0.079080348996    12.000000000000
         C            1.940065763721    -1.216302483580     0.036220651004    12.000000000000
         C            1.931296763721     1.236461516420     0.017145651004    12.000000000000
         C            0.534311763721     1.225911516420    -0.054403348996    12.000000000000
         C            0.543882763721    -1.217536483580    -0.040796348996    12.000000000000
         C            2.611176763721     0.013083516420     0.063515651004    12.000000000000
         C            2.706704763721    -2.512836483580     0.041539651004    12.000000000000
         C            2.688425763721     2.538516516420    -0.002236348996    12.000000000000
         H           -0.031111236279     2.153382516420    -0.104372348996     1.007825032230
         H           -0.013731236279    -2.150359483580    -0.077304348996     1.007825032230
         H            3.699450763721     0.017550516420     0.127941651004     1.007825032230
         H            2.120484763721    -3.313799483580     0.499576651004     1.007825032230
         H            2.955260763721    -2.822691483580    -0.979024348996     1.007825032230
         H            3.814132463721    -2.394251783580     0.699162351004     1.007825032230
         H            2.933101763721     2.832019516420    -1.028557348996     1.007825032230
         H            2.097620763721     3.343808516420     0.442366651004     1.007825032230
         H            3.626354763721     2.455076516420     0.553561651004     1.007825032230
         H           -2.713620236279     0.668257516420     1.727838651004     1.007825032230

  Basis Set: AUG-CC-PVTZ
    Blend: AUG-CC-PVTZ
  Basis Set: (AUG-CC-PVTZ AUX)
    Blend: AUG-CC-PVTZ-JKFIT
	 Reference Energy          =    -931.0371893209492100 [Eh]
	 Singles Energy            =      -0.0000000000000000 [Eh]
	 Same-Spin Energy          =      -0.6213398767133840 [Eh]
	 Opposite-Spin Energy      =      -1.8693439216130574 [Eh]
	 Correlation Energy        =      -2.4906837983264412 [Eh]
	 Total Energy              =    -933.5278731192756823 [Eh]

	 ================> DF-SCS-MP2 Energies <==================
	-----------------------------------------------------------
	 SCS Same-Spin Scale       =       0.3333333333333333 [-]
	 SCS Opposite-Spin Scale   =       1.2000000000000000 [-]
	 SCS Same-Spin Energy      =      -0.2071132922377946 [Eh]
	 SCS Opposite-Spin Energy  =      -2.2432127059356688 [Eh]
	 SCS Correlation Energy    =      -2.4503259981734633 [Eh]
	 SCS Total Energy          =    -933.4875153191226218 [Eh]
	-----------------------------------------------------------

  Dipole Moment: [D]
     X:     4.3062      Y:     1.0527      Z:     1.8422     Total:     4.8006

*** Psi4 exiting successfully. Buy a developer a beer!
