                               Psi4 1.4a3.dev225

  ==> Input File <==

--------------------------------------------------------------------------
#psi4
#
memory 32 gb

molecule  {
0 1
  S       -1.9906940    -0.0125100    -0.1365530
  O       -2.3617000    -0.1700640     1.4590810
  O       -2.4286150    -1.2343840    -0.7923790
  O       -2.5204381     1.2917042    -0.5356021
  C       -0.2242900    -0.0021990    -0.0874500
  C        1.8486770    -1.2201060     0.0278510
  C        1.8399080     1.2326580     0.0087760
  C        0.4429230     1.2221080    -0.0627730
  C        0.4524940    -1.2213400    -0.0491660
  C        2.5197880     0.0092800     0.0551460
  C        2.6153160    -2.5166400     0.0331700
  C        2.5970370     2.5347130    -0.0106060
  H       -0.1225000     2.1495790    -0.1127420
  H       -0.1051200    -2.1541630    -0.0856740
  H        3.6080620     0.0137470     0.1195720
  H        2.0290960    -3.3176030     0.4912070
  H        2.8638720    -2.8264950    -0.9873940
  H        3.5515030    -2.4163920     0.5891050
  H        2.8417130     2.8282160    -1.0369270
  H        2.0062320     3.3400050     0.4339970
  H        3.5349660     2.4512730     0.5451920
  H       -2.8050090     0.6644540     1.7194690
units angstrom
no_reorient  #important for SAPT in psi4, default
symmetry c1  #important for SAPT in psi4, default
}

set PROPERTIES_ORIGIN ["COM"]
properties('MP2/aug-cc-pvtz', properties = ['dipole'])
--------------------------------------------------------------------------

    Molecular point group: c1
  Charge       = 0
  Multiplicity = 1
  Basis Set: AUG-CC-PVTZ
    Blend: AUG-CC-PVTZ
  Basis Set: (AUG-CC-PVTZ AUX)
    Blend: AUG-CC-PVTZ-JKFIT

    Orbital Energies [Eh]
    ---------------------

    Doubly Occupied:

       1A    -92.228086     2A    -20.626788     3A    -20.564174
       4A    -20.558519     5A    -11.288183     6A    -11.268626
       7A    -11.268268     8A    -11.264400     9A    -11.263447
      10A    -11.258285    11A    -11.242298    12A    -11.241104
      13A     -9.191060    14A     -6.876678    15A     -6.875330
      16A     -6.875173    17A     -1.491914    18A     -1.377521
      19A     -1.349177    20A     -1.189252    21A     -1.082717
      22A     -1.076972    23A     -0.963364    24A     -0.954872
      25A     -0.924791    26A     -0.818993    27A     -0.811013
      28A     -0.739680    29A     -0.722412    30A     -0.691549
      31A     -0.684037    32A     -0.670717    33A     -0.626667
      34A     -0.603319    35A     -0.601692    36A     -0.592856
      37A     -0.586121    38A     -0.573706    39A     -0.569398
      40A     -0.548841    41A     -0.538603    42A     -0.522381
      43A     -0.509239    44A     -0.506554    45A     -0.500370
      46A     -0.482363    47A     -0.474247    48A     -0.364576
      49A     -0.346213

  @DF-RHF Final Energy:  -931.05761970975323

   => Energetics <=

    Nuclear Repulsion Energy =            830.0740929193467537
    One-Electron Energy =               -2925.4903347462432066
    Two-Electron Energy =                1164.3586221171433408
    Total Energy =                       -931.0576197097532258
  Basis Set: (AUG-CC-PVTZ AUX)
    Blend: AUG-CC-PVTZ-RI
    Molecular point group: c1

    Geometry (in Angstrom), charge = 0, multiplicity = 1:

       Center              X                  Y                   Z               Mass
    ------------   -----------------  -----------------  -----------------  -----------------
         S           -1.894259205456    -0.007117165695    -0.127948943035    31.972071174400
         O           -2.265265205456    -0.164671165695     1.467685056965    15.994914619570
         O           -2.332180205456    -1.228991165695    -0.783774943035    15.994914619570
         O           -2.424003305456     1.297097034305    -0.526998043035    15.994914619570
         C           -0.127855205456     0.003193834305    -0.078845943035    12.000000000000
         C            1.945111794544    -1.214713165695     0.036455056965    12.000000000000
         C            1.936342794544     1.238050834305     0.017380056965    12.000000000000
         C            0.539357794544     1.227500834305    -0.054168943035    12.000000000000
         C            0.548928794544    -1.215947165695    -0.040561943035    12.000000000000
         C            2.616222794544     0.014672834305     0.063750056965    12.000000000000
         C            2.711750794544    -2.511247165695     0.041774056965    12.000000000000
         C            2.693471794544     2.540105834305    -0.002001943035    12.000000000000
         H           -0.026065205456     2.154971834305    -0.104137943035     1.007825032230
         H           -0.008685205456    -2.148770165695    -0.077069943035     1.007825032230
         H            3.704496794544     0.019139834305     0.128176056965     1.007825032230
         H            2.125530794544    -3.312210165695     0.499811056965     1.007825032230
         H            2.960306794544    -2.821102165695    -0.978789943035     1.007825032230
         H            3.647937794544    -2.410999165695     0.597709056965     1.007825032230
         H            2.938147794544     2.833608834305    -1.028322943035     1.007825032230
         H            2.102666794544     3.345397834305     0.442601056965     1.007825032230
         H            3.631400794544     2.456665834305     0.553796056965     1.007825032230
         H           -2.708574205456     0.669846834305     1.728073056965     1.007825032230

  Basis Set: AUG-CC-PVTZ
    Blend: AUG-CC-PVTZ
  Basis Set: (AUG-CC-PVTZ AUX)
    Blend: AUG-CC-PVTZ-JKFIT
	 Reference Energy          =    -931.0576197097532258 [Eh]
	 Singles Energy            =      -0.0000000000000000 [Eh]
	 Same-Spin Energy          =      -0.6211635326086471 [Eh]
	 Opposite-Spin Energy      =      -1.8674246453700245 [Eh]
	 Correlation Energy        =      -2.4885881779786718 [Eh]
	 Total Energy              =    -933.5462078877319527 [Eh]

	 ================> DF-SCS-MP2 Energies <==================
	-----------------------------------------------------------
	 SCS Same-Spin Scale       =       0.3333333333333333 [-]
	 SCS Opposite-Spin Scale   =       1.2000000000000000 [-]
	 SCS Same-Spin Energy      =      -0.2070545108695490 [Eh]
	 SCS Opposite-Spin Energy  =      -2.2409095744440295 [Eh]
	 SCS Correlation Energy    =      -2.4479640853135787 [Eh]
	 SCS Total Energy          =    -933.5055837950668547 [Eh]
	-----------------------------------------------------------

  Dipole Moment: [D]
     X:     4.6061      Y:     1.0299      Z:     1.8805     Total:     5.0807

*** Psi4 exiting successfully. Buy a developer a beer!
