                               Psi4 1.4a3.dev225

  ==> Input File <==

--------------------------------------------------------------------------
#psi4
#
memory 32 gb

molecule  {
0 1
  S       -1.9906940    -0.0125100    -0.1365530
  O       -2.3617000    -0.1700640     1.4590810
  O       -2.4286150    -1.2343840    -0.7923790
  O       -2.4725380     1.3090340    -0.5392830
  C       -0.2242900    -0.0021990    -0.0874500
  C        1.8486770    -1.2201060     0.0278510
  C        1.8399080     1.2326580     0.0087760
  C        0.4429230     1.2221080    -0.0627730
  C        0.4524940    -1.2213400    -0.0491660
  C        2.4327549    -0.0352048     0.0545702
  C        2.6153160    -2.5166400     0.0331700
  C        2.5970370     2.5347130    -0.0106060
  H       -0.1225000     2.1495790    -0.1127420
  H       -0.1051200    -2.1541630    -0.0856740
  H        3.6080620     0.0137470     0.1195720
  H        2.0290960    -3.3176030     0.4912070
  H        2.8638720    -2.8264950    -0.9873940
  H        3.5515030    -2.4163920     0.5891050
  H        2.8417130     2.8282160    -1.0369270
  H        2.0062320     3.3400050     0.4339970
  H        3.5349660     2.4512730     0.5451920
  H       -2.8050090     0.6644540     1.7194690
units angstrom
no_reorient  #important for SAPT in psi4, default
symmetry c1  #important for SAPT in psi4, default
}

set PROPERTIES_ORIGIN ["COM"]
properties('MP2/aug-cc-pvtz', properties = ['dipole'])
--------------------------------------------------------------------------

    Molecular point group: c1
  Charge       = 0
  Multiplicity = 1
  Basis Set: AUG-CC-PVTZ
    Blend: AUG-CC-PVTZ
  Basis Set: (AUG-CC-PVTZ AUX)
    Blend: AUG-CC-PVTZ-JKFIT

    Orbital Energies [Eh]
    ---------------------

    Doubly Occupied:

       1A    -92.228503     2A    -20.628353     3A    -20.564793
       4A    -20.560323     5A    -11.284438     6A    -11.267556
       7A    -11.264600     8A    -11.261763     9A    -11.257757
      10A    -11.255398    11A    -11.244277    12A    -11.241208
      13A     -9.191379    14A     -6.877002    15A     -6.875696
      16A     -6.875468    17A     -1.492427    18A     -1.378809
      19A     -1.351164    20A     -1.196478    21A     -1.087375
      22A     -1.075050    23A     -0.967552    24A     -0.954418
      25A     -0.921115    26A     -0.822962    27A     -0.813828
      28A     -0.740045    29A     -0.722284    30A     -0.689695
      31A     -0.678326    32A     -0.669571    33A     -0.627222
      34A     -0.606714    35A     -0.603605    36A     -0.592757
      37A     -0.586545    38A     -0.571606    39A     -0.565638
      40A     -0.549307    41A     -0.526747    42A     -0.524218
      43A     -0.514934    44A     -0.505570    45A     -0.501340
      46A     -0.483722    47A     -0.470612    48A     -0.371016
      49A     -0.345382

  @DF-RHF Final Energy:  -931.04578012787226

   => Energetics <=

    Nuclear Repulsion Energy =            832.2669341664253579
    One-Electron Energy =               -2929.8523276133269064
    Two-Electron Energy =                1166.5396133190290584
    Total Energy =                       -931.0457801278723764
  Basis Set: (AUG-CC-PVTZ AUX)
    Blend: AUG-CC-PVTZ-RI
    Molecular point group: c1

    Geometry (in Angstrom), charge = 0, multiplicity = 1:

       Center              X                  Y                   Z               Mass
    ------------   -----------------  -----------------  -----------------  -----------------
         S           -1.892763577792    -0.005737700334    -0.127595325393    31.972071174400
         O           -2.263769577792    -0.163291700334     1.468038674607    15.994914619570
         O           -2.330684577792    -1.227611700334    -0.783421325393    15.994914619570
         O           -2.374607577792     1.315806299666    -0.530325325393    15.994914619570
         C           -0.126359577792     0.004573299666    -0.078492325393    12.000000000000
         C            1.946607422208    -1.213333700334     0.036808674607    12.000000000000
         C            1.937838422208     1.239430299666     0.017733674607    12.000000000000
         C            0.540853422208     1.228880299666    -0.053815325393    12.000000000000
         C            0.550424422208    -1.214567700334    -0.040208325393    12.000000000000
         C            2.530685322208    -0.028432500334     0.063527874607    12.000000000000
         C            2.713246422208    -2.509867700334     0.042127674607    12.000000000000
         C            2.694967422208     2.541485299666    -0.001648325393    12.000000000000
         H           -0.024569577792     2.156351299666    -0.103784325393     1.007825032230
         H           -0.007189577792    -2.147390700334    -0.076716325393     1.007825032230
         H            3.705992422208     0.020519299666     0.128529674607     1.007825032230
         H            2.127026422208    -3.310830700334     0.500164674607     1.007825032230
         H            2.961802422208    -2.819722700334    -0.978436325393     1.007825032230
         H            3.649433422208    -2.409619700334     0.598062674607     1.007825032230
         H            2.939643422208     2.834988299666    -1.027969325393     1.007825032230
         H            2.104162422208     3.346777299666     0.442954674607     1.007825032230
         H            3.632896422208     2.458045299666     0.554149674607     1.007825032230
         H           -2.707078577792     0.671226299666     1.728426674607     1.007825032230

  Basis Set: AUG-CC-PVTZ
    Blend: AUG-CC-PVTZ
  Basis Set: (AUG-CC-PVTZ AUX)
    Blend: AUG-CC-PVTZ-JKFIT
	 Reference Energy          =    -931.0457801278722627 [Eh]
	 Singles Energy            =      -0.0000000000000000 [Eh]
	 Same-Spin Energy          =      -0.6214859277327025 [Eh]
	 Opposite-Spin Energy      =      -1.8679712763245448 [Eh]
	 Correlation Energy        =      -2.4894572040572474 [Eh]
	 Total Energy              =    -933.5352373319294657 [Eh]

	 ================> DF-SCS-MP2 Energies <==================
	-----------------------------------------------------------
	 SCS Same-Spin Scale       =       0.3333333333333333 [-]
	 SCS Opposite-Spin Scale   =       1.2000000000000000 [-]
	 SCS Same-Spin Energy      =      -0.2071619759109008 [Eh]
	 SCS Opposite-Spin Energy  =      -2.2415655315894538 [Eh]
	 SCS Correlation Energy    =      -2.4487275075003545 [Eh]
	 SCS Total Energy          =    -933.4945076353726563 [Eh]
	-----------------------------------------------------------

  Dipole Moment: [D]
     X:     4.3723      Y:     1.0590      Z:     1.8844     Total:     4.8774

*** Psi4 exiting successfully. Buy a developer a beer!
