                               Psi4 1.4a3.dev225

  ==> Input File <==

--------------------------------------------------------------------------
#psi4
#
memory 32 gb

molecule  {
0 1
  S       -1.9906940    -0.0125100    -0.1365530
  O       -2.3617000    -0.1700640     1.4590810
  O       -2.4286150    -1.2343840    -0.7923790
  O       -2.4725380     1.3090340    -0.5392830
  C       -0.2242900    -0.0021990    -0.0874500
  C        1.8486770    -1.2201060     0.0278510
  C        1.8399080     1.2326580     0.0087760
  C        0.4429230     1.2221080    -0.0627730
  C        0.4524940    -1.2213400    -0.0491660
  C        2.5411394    -0.0026271     0.0555259
  C        2.6153160    -2.5166400     0.0331700
  C        2.5970370     2.5347130    -0.0106060
  H       -0.1225000     2.1495790    -0.1127420
  H       -0.1051200    -2.1541630    -0.0856740
  H        3.6080620     0.0137470     0.1195720
  H        2.0290960    -3.3176030     0.4912070
  H        2.8638720    -2.8264950    -0.9873940
  H        3.5515030    -2.4163920     0.5891050
  H        2.8417130     2.8282160    -1.0369270
  H        2.0062320     3.3400050     0.4339970
  H        3.5349660     2.4512730     0.5451920
  H       -2.8050090     0.6644540     1.7194690
units angstrom
no_reorient  #important for SAPT in psi4, default
symmetry c1  #important for SAPT in psi4, default
}

set PROPERTIES_ORIGIN ["COM"]
properties('MP2/aug-cc-pvtz', properties = ['dipole'])
--------------------------------------------------------------------------

    Molecular point group: c1
  Charge       = 0
  Multiplicity = 1
  Basis Set: AUG-CC-PVTZ
    Blend: AUG-CC-PVTZ
  Basis Set: (AUG-CC-PVTZ AUX)
    Blend: AUG-CC-PVTZ-JKFIT

    Orbital Energies [Eh]
    ---------------------

    Doubly Occupied:

       1A    -92.228890     2A    -20.628771     3A    -20.565127
       4A    -20.560860     5A    -11.286510     6A    -11.269780
       7A    -11.267299     8A    -11.262412     9A    -11.262315
      10A    -11.257575    11A    -11.241327    12A    -11.239665
      13A     -9.191804    14A     -6.877423    15A     -6.876124
      16A     -6.875886    17A     -1.492837    18A     -1.379191
      19A     -1.351553    20A     -1.186133    21A     -1.080974
      22A     -1.075054    23A     -0.961261    24A     -0.953640
      25A     -0.924957    26A     -0.820199    27A     -0.807225
      28A     -0.740187    29A     -0.723127    30A     -0.693455
      31A     -0.683833    32A     -0.670734    33A     -0.627925
      34A     -0.601455    35A     -0.600288    36A     -0.591625
      37A     -0.585088    38A     -0.576422    39A     -0.569673
      40A     -0.547793    41A     -0.540765    42A     -0.523584
      43A     -0.507076    44A     -0.504630    45A     -0.500464
      46A     -0.484103    47A     -0.473921    48A     -0.361987
      49A     -0.344624

  @DF-RHF Final Energy:  -931.05635985516733

   => Energetics <=

    Nuclear Repulsion Energy =            830.0477392543559745
    One-Electron Energy =               -2925.4530944826960877
    Two-Electron Energy =                1164.3489953731730111
    Total Energy =                       -931.0563598551673294
  Basis Set: (AUG-CC-PVTZ AUX)
    Blend: AUG-CC-PVTZ-RI
    Molecular point group: c1

    Geometry (in Angstrom), charge = 0, multiplicity = 1:

       Center              X                  Y                   Z               Mass
    ------------   -----------------  -----------------  -----------------  -----------------
         S           -1.899754808169    -0.007839091269    -0.127656971835    31.972071174400
         O           -2.270760808169    -0.165393091269     1.467977028165    15.994914619570
         O           -2.337675808169    -1.229713091269    -0.783482971835    15.994914619570
         O           -2.381598808169     1.313704908731    -0.530386971835    15.994914619570
         C           -0.133350808169     0.002471908731    -0.078553971835    12.000000000000
         C            1.939616191831    -1.215435091269     0.036747028165    12.000000000000
         C            1.930847191831     1.237328908731     0.017672028165    12.000000000000
         C            0.533862191831     1.226778908731    -0.053876971835    12.000000000000
         C            0.543433191831    -1.216669091269    -0.040269971835    12.000000000000
         C            2.632078591831     0.002043808731     0.064421928165    12.000000000000
         C            2.706255191831    -2.511969091269     0.042066028165    12.000000000000
         C            2.687976191831     2.539383908731    -0.001709971835    12.000000000000
         H           -0.031560808169     2.154249908731    -0.103845971835     1.007825032230
         H           -0.014180808169    -2.149492091269    -0.076777971835     1.007825032230
         H            3.699001191831     0.018417908731     0.128468028165     1.007825032230
         H            2.120035191831    -3.312932091269     0.500103028165     1.007825032230
         H            2.954811191831    -2.821824091269    -0.978497971835     1.007825032230
         H            3.642442191831    -2.411721091269     0.598001028165     1.007825032230
         H            2.932652191831     2.832886908731    -1.028030971835     1.007825032230
         H            2.097171191831     3.344675908731     0.442893028165     1.007825032230
         H            3.625905191831     2.455943908731     0.554088028165     1.007825032230
         H           -2.714069808169     0.669124908731     1.728365028165     1.007825032230

  Basis Set: AUG-CC-PVTZ
    Blend: AUG-CC-PVTZ
  Basis Set: (AUG-CC-PVTZ AUX)
    Blend: AUG-CC-PVTZ-JKFIT
	 Reference Energy          =    -931.0563598551673294 [Eh]
	 Singles Energy            =      -0.0000000000000000 [Eh]
	 Same-Spin Energy          =      -0.6213083952066972 [Eh]
	 Opposite-Spin Energy      =      -1.8678242077808462 [Eh]
	 Correlation Energy        =      -2.4891326029875436 [Eh]
	 Total Energy              =    -933.5454924581548539 [Eh]

	 ================> DF-SCS-MP2 Energies <==================
	-----------------------------------------------------------
	 SCS Same-Spin Scale       =       0.3333333333333333 [-]
	 SCS Opposite-Spin Scale   =       1.2000000000000000 [-]
	 SCS Same-Spin Energy      =      -0.2071027984022324 [Eh]
	 SCS Opposite-Spin Energy  =      -2.2413890493370152 [Eh]
	 SCS Correlation Energy    =      -2.4484918477392474 [Eh]
	 SCS Total Energy          =    -933.5048517029065351 [Eh]
	-----------------------------------------------------------

  Dipole Moment: [D]
     X:     4.4326      Y:     1.0174      Z:     1.8903     Total:     4.9250

*** Psi4 exiting successfully. Buy a developer a beer!
