                               Psi4 1.4a3.dev225

  ==> Input File <==

--------------------------------------------------------------------------
#psi4
#
memory 32 gb

molecule  {
0 1
  S       -1.9906940    -0.0125100    -0.1365530
  O       -2.3617000    -0.1700640     1.4590810
  O       -2.4286150    -1.2343840    -0.7923790
  O       -2.4725380     1.3090340    -0.5392830
  C       -0.2242900    -0.0021990    -0.0874500
  C        1.8486770    -1.2201060     0.0278510
  C        1.8399080     1.2326580     0.0087760
  C        0.4429230     1.2221080    -0.0627730
  C        0.4524940    -1.2213400    -0.0491660
  C        2.5294980    -0.0081922     0.0558083
  C        2.6153160    -2.5166400     0.0331700
  C        2.5970370     2.5347130    -0.0106060
  H       -0.1225000     2.1495790    -0.1127420
  H       -0.1051200    -2.1541630    -0.0856740
  H        3.6080620     0.0137470     0.1195720
  H        2.0290960    -3.3176030     0.4912070
  H        2.8638720    -2.8264950    -0.9873940
  H        3.5515030    -2.4163920     0.5891050
  H        2.8417130     2.8282160    -1.0369270
  H        2.0062320     3.3400050     0.4339970
  H        3.5349660     2.4512730     0.5451920
  H       -2.8050090     0.6644540     1.7194690
units angstrom
no_reorient  #important for SAPT in psi4, default
symmetry c1  #important for SAPT in psi4, default
}

set PROPERTIES_ORIGIN ["COM"]
properties('MP2/aug-cc-pvtz', properties = ['dipole'])
--------------------------------------------------------------------------

    Molecular point group: c1
  Charge       = 0
  Multiplicity = 1
  Basis Set: AUG-CC-PVTZ
    Blend: AUG-CC-PVTZ
  Basis Set: (AUG-CC-PVTZ AUX)
    Blend: AUG-CC-PVTZ-JKFIT

    Orbital Energies [Eh]
    ---------------------

    Doubly Occupied:

       1A    -92.228821     2A    -20.628705     3A    -20.565072
       4A    -20.560775     5A    -11.286247     6A    -11.269582
       7A    -11.266060     8A    -11.262619     9A    -11.262148
      10A    -11.257283    11A    -11.241678    12A    -11.239766
      13A     -9.191731    14A     -6.877351    15A     -6.876051
      16A     -6.875814    17A     -1.492771    18A     -1.379128
      19A     -1.351489    20A     -1.187103    21A     -1.081599
      22A     -1.075037    23A     -0.961906    24A     -0.953677
      25A     -0.924452    26A     -0.819707    27A     -0.808541
      28A     -0.740123    29A     -0.722931    30A     -0.692375
      31A     -0.683438    32A     -0.670907    33A     -0.627809
      34A     -0.602002    35A     -0.600593    36A     -0.591683
      37A     -0.585226    38A     -0.575298    39A     -0.569486
      40A     -0.547943    41A     -0.539189    42A     -0.523596
      43A     -0.507043    44A     -0.506273    45A     -0.500639
      46A     -0.484068    47A     -0.473719    48A     -0.362963
      49A     -0.344645

  @DF-RHF Final Energy:  -931.05680809676221

   => Energetics <=

    Nuclear Repulsion Energy =            830.2825787791921357
    One-Electron Energy =               -2925.9246493889590965
    Two-Electron Energy =                1164.5852625130046363
    Total Energy =                       -931.0568080967623246
  Basis Set: (AUG-CC-PVTZ AUX)
    Blend: AUG-CC-PVTZ-RI
    Molecular point group: c1

    Geometry (in Angstrom), charge = 0, multiplicity = 1:

       Center              X                  Y                   Z               Mass
    ------------   -----------------  -----------------  -----------------  -----------------
         S           -1.899003891670    -0.007480120234    -0.127675187756    31.972071174400
         O           -2.270009891670    -0.165034120234     1.467958812244    15.994914619570
         O           -2.336924891670    -1.229354120234    -0.783501187756    15.994914619570
         O           -2.380847891670     1.314063879766    -0.530405187756    15.994914619570
         C           -0.132599891670     0.002830879766    -0.078572187756    12.000000000000
         C            1.940367108330    -1.215076120234     0.036728812244    12.000000000000
         C            1.931598108330     1.237687879766     0.017653812244    12.000000000000
         C            0.534613108330     1.227137879766    -0.053895187756    12.000000000000
         C            0.544184108330    -1.216310120234    -0.040288187756    12.000000000000
         C            2.621188108330    -0.003162320234     0.064686112244    12.000000000000
         C            2.707006108330    -2.511610120234     0.042047812244    12.000000000000
         C            2.688727108330     2.539742879766    -0.001728187756    12.000000000000
         H           -0.030809891670     2.154608879766    -0.103864187756     1.007825032230
         H           -0.013429891670    -2.149133120234    -0.076796187756     1.007825032230
         H            3.699752108330     0.018776879766     0.128449812244     1.007825032230
         H            2.120786108330    -3.312573120234     0.500084812244     1.007825032230
         H            2.955562108330    -2.821465120234    -0.978516187756     1.007825032230
         H            3.643193108330    -2.411362120234     0.597982812244     1.007825032230
         H            2.933403108330     2.833245879766    -1.028049187756     1.007825032230
         H            2.097922108330     3.345034879766     0.442874812244     1.007825032230
         H            3.626656108330     2.456302879766     0.554069812244     1.007825032230
         H           -2.713318891670     0.669483879766     1.728346812244     1.007825032230

  Basis Set: AUG-CC-PVTZ
    Blend: AUG-CC-PVTZ
  Basis Set: (AUG-CC-PVTZ AUX)
    Blend: AUG-CC-PVTZ-JKFIT
	 Reference Energy          =    -931.0568080967622109 [Eh]
	 Singles Energy            =      -0.0000000000000000 [Eh]
	 Same-Spin Energy          =      -0.6212984593204425 [Eh]
	 Opposite-Spin Energy      =      -1.8677505165272728 [Eh]
	 Correlation Energy        =      -2.4890489758477150 [Eh]
	 Total Energy              =    -933.5458570726099197 [Eh]

	 ================> DF-SCS-MP2 Energies <==================
	-----------------------------------------------------------
	 SCS Same-Spin Scale       =       0.3333333333333333 [-]
	 SCS Opposite-Spin Scale   =       1.2000000000000000 [-]
	 SCS Same-Spin Energy      =      -0.2070994864401475 [Eh]
	 SCS Opposite-Spin Energy  =      -2.2413006198327272 [Eh]
	 SCS Correlation Energy    =      -2.4484001062728749 [Eh]
	 SCS Total Energy          =    -933.5052082030350675 [Eh]
	-----------------------------------------------------------

  Dipole Moment: [D]
     X:     4.4303      Y:     1.0241      Z:     1.8897     Total:     4.9241

*** Psi4 exiting successfully. Buy a developer a beer!
