                               Psi4 1.4a3.dev225

  ==> Input File <==

--------------------------------------------------------------------------
#psi4
#
memory 32 gb

molecule  {
0 1
  S       -1.9906940    -0.0125100    -0.1365530
  O       -2.3617000    -0.1700640     1.4590810
  O       -2.4286150    -1.2343840    -0.7923790
  O       -2.4725380     1.3090340    -0.5392830
  C       -0.2242900    -0.0021990    -0.0874500
  C        1.8486770    -1.2201060     0.0278510
  C        1.8399080     1.2326580     0.0087760
  C        0.4429230     1.2221080    -0.0627730
  C        0.4524940    -1.2213400    -0.0491660
  C        2.5676937     0.0970368     0.0570944
  C        2.6153160    -2.5166400     0.0331700
  C        2.5970370     2.5347130    -0.0106060
  H       -0.1225000     2.1495790    -0.1127420
  H       -0.1051200    -2.1541630    -0.0856740
  H        3.6080620     0.0137470     0.1195720
  H        2.0290960    -3.3176030     0.4912070
  H        2.8638720    -2.8264950    -0.9873940
  H        3.5515030    -2.4163920     0.5891050
  H        2.8417130     2.8282160    -1.0369270
  H        2.0062320     3.3400050     0.4339970
  H        3.5349660     2.4512730     0.5451920
  H       -2.8050090     0.6644540     1.7194690
units angstrom
no_reorient  #important for SAPT in psi4, default
symmetry c1  #important for SAPT in psi4, default
}

set PROPERTIES_ORIGIN ["COM"]
properties('MP2/aug-cc-pvtz', properties = ['dipole'])
--------------------------------------------------------------------------

    Molecular point group: c1
  Charge       = 0
  Multiplicity = 1
  Basis Set: AUG-CC-PVTZ
    Blend: AUG-CC-PVTZ
  Basis Set: (AUG-CC-PVTZ AUX)
    Blend: AUG-CC-PVTZ-JKFIT

    Orbital Energies [Eh]
    ---------------------

    Doubly Occupied:

       1A    -92.229160     2A    -20.628973     3A    -20.565144
       4A    -20.561341     5A    -11.287498     6A    -11.276533
       7A    -11.265821     8A    -11.261931     9A    -11.258796
      10A    -11.257450    11A    -11.241271    12A    -11.238574
      13A     -9.192078    14A     -6.877696    15A     -6.876404
      16A     -6.876154    17A     -1.493063    18A     -1.379416
      19A     -1.351762    20A     -1.185097    21A     -1.085675
      22A     -1.070231    23A     -0.959785    24A     -0.953710
      25A     -0.926522    26A     -0.821361    27A     -0.803973
      28A     -0.740474    29A     -0.723789    30A     -0.695780
      31A     -0.686496    32A     -0.669025    33A     -0.628792
      34A     -0.600149    35A     -0.599879    36A     -0.591441
      37A     -0.584883    38A     -0.579768    39A     -0.569991
      40A     -0.548917    41A     -0.544057    42A     -0.523628
      43A     -0.507732    44A     -0.500802    45A     -0.493903
      46A     -0.483731    47A     -0.473542    48A     -0.365639
      49A     -0.340838

  @DF-RHF Final Energy:  -931.04556110335648

   => Energetics <=

    Nuclear Repulsion Energy =            829.5721049216371057
    One-Electron Energy =               -2924.4779812519191182
    Two-Electron Energy =                1163.8603152269254224
    Total Energy =                       -931.0455611033564765
  Basis Set: (AUG-CC-PVTZ AUX)
    Blend: AUG-CC-PVTZ-RI
    Molecular point group: c1

    Geometry (in Angstrom), charge = 0, multiplicity = 1:

       Center              X                  Y                   Z               Mass
    ------------   -----------------  -----------------  -----------------  -----------------
         S           -1.901467665900    -0.014267808338    -0.127758146310    31.972071174400
         O           -2.272473665900    -0.171821808338     1.467875853690    15.994914619570
         O           -2.339388665900    -1.236141808338    -0.783584146310    15.994914619570
         O           -2.383311665900     1.307276191662    -0.530488146310    15.994914619570
         C           -0.135063665900    -0.003956808338    -0.078655146310    12.000000000000
         C            1.937903334100    -1.221863808338     0.036645853690    12.000000000000
         C            1.929134334100     1.230900191662     0.017570853690    12.000000000000
         C            0.532149334100     1.220350191662    -0.053978146310    12.000000000000
         C            0.541720334100    -1.223097808338    -0.040371146310    12.000000000000
         C            2.656920034100     0.095278991662     0.065889253690    12.000000000000
         C            2.704542334100    -2.518397808338     0.041964853690    12.000000000000
         C            2.686263334100     2.532955191662    -0.001811146310    12.000000000000
         H           -0.033273665900     2.147821191662    -0.103947146310     1.007825032230
         H           -0.015893665900    -2.155920808338    -0.076879146310     1.007825032230
         H            3.697288334100     0.011989191662     0.128366853690     1.007825032230
         H            2.118322334100    -3.319360808338     0.500001853690     1.007825032230
         H            2.953098334100    -2.828252808338    -0.978599146310     1.007825032230
         H            3.640729334100    -2.418149808338     0.597899853690     1.007825032230
         H            2.930939334100     2.826458191662    -1.028132146310     1.007825032230
         H            2.095458334100     3.338247191662     0.442791853690     1.007825032230
         H            3.624192334100     2.449515191662     0.553986853690     1.007825032230
         H           -2.715782665900     0.662696191662     1.728263853690     1.007825032230

  Basis Set: AUG-CC-PVTZ
    Blend: AUG-CC-PVTZ
  Basis Set: (AUG-CC-PVTZ AUX)
    Blend: AUG-CC-PVTZ-JKFIT
	 Reference Energy          =    -931.0455611033564765 [Eh]
	 Singles Energy            =      -0.0000000000000000 [Eh]
	 Same-Spin Energy          =      -0.6211319051069644 [Eh]
	 Opposite-Spin Energy      =      -1.8683717197888456 [Eh]
	 Correlation Energy        =      -2.4895036248958098 [Eh]
	 Total Energy              =    -933.5350647282523369 [Eh]

	 ================> DF-SCS-MP2 Energies <==================
	-----------------------------------------------------------
	 SCS Same-Spin Scale       =       0.3333333333333333 [-]
	 SCS Opposite-Spin Scale   =       1.2000000000000000 [-]
	 SCS Same-Spin Energy      =      -0.2070439683689881 [Eh]
	 SCS Opposite-Spin Energy  =      -2.2420460637466149 [Eh]
	 SCS Correlation Energy    =      -2.4490900321156031 [Eh]
	 SCS Total Energy          =    -933.4946511354720542 [Eh]
	-----------------------------------------------------------

  Dipole Moment: [D]
     X:     4.4279      Y:     0.9065      Z:     1.8911     Total:     4.8994

*** Psi4 exiting successfully. Buy a developer a beer!
