                               Psi4 1.4a3.dev225

  ==> Input File <==

--------------------------------------------------------------------------
#psi4
#
memory 32 gb

molecule  {
0 1
  S       -1.9906940    -0.0125100    -0.1365530
  O       -2.3617000    -0.1700640     1.4590810
  O       -2.4286150    -1.2343840    -0.7923790
  O       -2.4725380     1.3090340    -0.5392830
  C       -0.2242900    -0.0021990    -0.0874500
  C        1.8486770    -1.2201060     0.0278510
  C        1.8399080     1.2326580     0.0087760
  C        0.4429230     1.2221080    -0.0627730
  C        0.4524940    -1.2213400    -0.0491660
  C        2.4712380     0.0966410     0.0518347
  C        2.6153160    -2.5166400     0.0331700
  C        2.5970370     2.5347130    -0.0106060
  H       -0.1225000     2.1495790    -0.1127420
  H       -0.1051200    -2.1541630    -0.0856740
  H        3.6080620     0.0137470     0.1195720
  H        2.0290960    -3.3176030     0.4912070
  H        2.8638720    -2.8264950    -0.9873940
  H        3.5515030    -2.4163920     0.5891050
  H        2.8417130     2.8282160    -1.0369270
  H        2.0062320     3.3400050     0.4339970
  H        3.5349660     2.4512730     0.5451920
  H       -2.8050090     0.6644540     1.7194690
units angstrom
no_reorient  #important for SAPT in psi4, default
symmetry c1  #important for SAPT in psi4, default
}

set PROPERTIES_ORIGIN ["COM"]
properties('MP2/aug-cc-pvtz', properties = ['dipole'])
--------------------------------------------------------------------------

    Molecular point group: c1
  Charge       = 0
  Multiplicity = 1
  Basis Set: AUG-CC-PVTZ
    Blend: AUG-CC-PVTZ
  Basis Set: (AUG-CC-PVTZ AUX)
    Blend: AUG-CC-PVTZ-JKFIT

    Orbital Energies [Eh]
    ---------------------

    Doubly Occupied:

       1A    -92.228680     2A    -20.628470     3A    -20.564645
       4A    -20.560835     5A    -11.285490     6A    -11.272380
       7A    -11.266371     8A    -11.259095     9A    -11.255957
      10A    -11.253806    11A    -11.243222    12A    -11.240485
      13A     -9.191567    14A     -6.877188    15A     -6.875892
      16A     -6.875647    17A     -1.492577    18A     -1.378966
      19A     -1.351295    20A     -1.193723    21A     -1.089383
      22A     -1.071541    23A     -0.965234    24A     -0.954177
      25A     -0.922944    26A     -0.818318    27A     -0.813536
      28A     -0.739897    29A     -0.722371    30A     -0.689120
      31A     -0.682213    32A     -0.669559    33A     -0.627828
      34A     -0.604822    35A     -0.602713    36A     -0.592185
      37A     -0.586029    38A     -0.571999    39A     -0.567625
      40A     -0.549208    41A     -0.534621    42A     -0.523826
      43A     -0.510750    44A     -0.503900    45A     -0.499765
      46A     -0.483483    47A     -0.471457    48A     -0.372346
      49A     -0.342394

  @DF-RHF Final Energy:  -931.04420867530814

   => Energetics <=

    Nuclear Repulsion Energy =            831.5328729188248644
    One-Electron Energy =               -2928.3951020916947527
    Two-Electron Energy =                1165.8180204975617471
    Total Energy =                       -931.0442086753080275
  Basis Set: (AUG-CC-PVTZ AUX)
    Blend: AUG-CC-PVTZ-RI
    Molecular point group: c1

    Geometry (in Angstrom), charge = 0, multiplicity = 1:

       Center              X                  Y                   Z               Mass
    ------------   -----------------  -----------------  -----------------  -----------------
         S           -1.895245890464    -0.014242277667    -0.127418874787    31.972071174400
         O           -2.266251890464    -0.171796277667     1.468215125213    15.994914619570
         O           -2.333166890464    -1.236116277667    -0.783244874787    15.994914619570
         O           -2.377089890464     1.307301722333    -0.530148874787    15.994914619570
         C           -0.128841890464    -0.003931277667    -0.078315874787    12.000000000000
         C            1.944125109536    -1.221838277667     0.036985125213    12.000000000000
         C            1.935356109536     1.230925722333     0.017910125213    12.000000000000
         C            0.538371109536     1.220375722333    -0.053638874787    12.000000000000
         C            0.547942109536    -1.223072277667    -0.040031874787    12.000000000000
         C            2.566686109536     0.094908722333     0.060968825213    12.000000000000
         C            2.710764109536    -2.518372277667     0.042304125213    12.000000000000
         C            2.692485109536     2.532980722333    -0.001471874787    12.000000000000
         H           -0.027051890464     2.147846722333    -0.103607874787     1.007825032230
         H           -0.009671890464    -2.155895277667    -0.076539874787     1.007825032230
         H            3.703510109536     0.012014722333     0.128706125213     1.007825032230
         H            2.124544109536    -3.319335277667     0.500341125213     1.007825032230
         H            2.959320109536    -2.828227277667    -0.978259874787     1.007825032230
         H            3.646951109536    -2.418124277667     0.598239125213     1.007825032230
         H            2.937161109536     2.826483722333    -1.027792874787     1.007825032230
         H            2.101680109536     3.338272722333     0.443131125213     1.007825032230
         H            3.630414109536     2.449540722333     0.554326125213     1.007825032230
         H           -2.709560890464     0.662721722333     1.728603125213     1.007825032230

  Basis Set: AUG-CC-PVTZ
    Blend: AUG-CC-PVTZ
  Basis Set: (AUG-CC-PVTZ AUX)
    Blend: AUG-CC-PVTZ-JKFIT
	 Reference Energy          =    -931.0442086753081412 [Eh]
	 Singles Energy            =      -0.0000000000000000 [Eh]
	 Same-Spin Energy          =      -0.6211025699158275 [Eh]
	 Opposite-Spin Energy      =      -1.8679083647241324 [Eh]
	 Correlation Energy        =      -2.4890109346399596 [Eh]
	 Total Energy              =    -933.5332196099481052 [Eh]

	 ================> DF-SCS-MP2 Energies <==================
	-----------------------------------------------------------
	 SCS Same-Spin Scale       =       0.3333333333333333 [-]
	 SCS Opposite-Spin Scale   =       1.2000000000000000 [-]
	 SCS Same-Spin Energy      =      -0.2070341899719425 [Eh]
	 SCS Opposite-Spin Energy  =      -2.2414900376689588 [Eh]
	 SCS Correlation Energy    =      -2.4485242276409012 [Eh]
	 SCS Total Energy          =    -933.4927329029490011 [Eh]
	-----------------------------------------------------------

  Dipole Moment: [D]
     X:     4.3957      Y:     0.8975      Z:     1.8896     Total:     4.8681

*** Psi4 exiting successfully. Buy a developer a beer!
