                               Psi4 1.4a3.dev225

  ==> Input File <==

--------------------------------------------------------------------------
#psi4
#
memory 32 gb

molecule  {
0 1
  S       -1.9906940    -0.0125100    -0.1365530
  O       -2.3617000    -0.1700640     1.4590810
  O       -2.4286150    -1.2343840    -0.7923790
  O       -2.3750358     1.3388442    -0.5451689
  C       -0.2242900    -0.0021990    -0.0874500
  C        1.8486770    -1.2201060     0.0278510
  C        1.8399080     1.2326580     0.0087760
  C        0.4429230     1.2221080    -0.0627730
  C        0.4524940    -1.2213400    -0.0491660
  C        2.5197880     0.0092800     0.0551460
  C        2.6153160    -2.5166400     0.0331700
  C        2.5970370     2.5347130    -0.0106060
  H       -0.1225000     2.1495790    -0.1127420
  H       -0.1051200    -2.1541630    -0.0856740
  H        3.6080620     0.0137470     0.1195720
  H        2.0290960    -3.3176030     0.4912070
  H        2.8638720    -2.8264950    -0.9873940
  H        3.5515030    -2.4163920     0.5891050
  H        2.8417130     2.8282160    -1.0369270
  H        2.0062320     3.3400050     0.4339970
  H        3.5349660     2.4512730     0.5451920
  H       -2.8050090     0.6644540     1.7194690
units angstrom
no_reorient  #important for SAPT in psi4, default
symmetry c1  #important for SAPT in psi4, default
}

set PROPERTIES_ORIGIN ["COM"]
properties('MP2/aug-cc-pvtz', properties = ['dipole'])
--------------------------------------------------------------------------

    Molecular point group: c1
  Charge       = 0
  Multiplicity = 1
  Basis Set: AUG-CC-PVTZ
    Blend: AUG-CC-PVTZ
  Basis Set: (AUG-CC-PVTZ AUX)
    Blend: AUG-CC-PVTZ-JKFIT

    Orbital Energies [Eh]
    ---------------------

    Doubly Occupied:

       1A    -92.230093     2A    -20.632382     3A    -20.566393
       4A    -20.565203     5A    -11.281691     6A    -11.264950
       7A    -11.264699     8A    -11.259363     9A    -11.259094
      10A    -11.254632    11A    -11.239769    12A    -11.238783
      13A     -9.192897    14A     -6.878517    15A     -6.877310
      16A     -6.876913    17A     -1.494425    18A     -1.382220
      19A     -1.355797    20A     -1.184981    21A     -1.079348
      22A     -1.072204    23A     -0.960522    24A     -0.951386
      25A     -0.922564    26A     -0.819444    27A     -0.807454
      28A     -0.741169    29A     -0.723446    30A     -0.690763
      31A     -0.682935    32A     -0.670139    33A     -0.629974
      34A     -0.600656    35A     -0.599130    36A     -0.589569
      37A     -0.583653    38A     -0.576635    39A     -0.568048
      40A     -0.546333    41A     -0.535507    42A     -0.526128
      43A     -0.508607    44A     -0.505700    45A     -0.500420
      46A     -0.487228    47A     -0.471534    48A     -0.360565
      49A     -0.342592

  @DF-RHF Final Energy:  -931.05502438376891

   => Energetics <=

    Nuclear Repulsion Energy =            831.3651194077231139
    One-Electron Energy =               -2928.1327533284807032
    Two-Electron Energy =                1165.7126095369885661
    Total Energy =                       -931.0550243837687958
  Basis Set: (AUG-CC-PVTZ AUX)
    Blend: AUG-CC-PVTZ-RI
    Molecular point group: c1

    Geometry (in Angstrom), charge = 0, multiplicity = 1:

       Center              X                  Y                   Z               Mass
    ------------   -----------------  -----------------  -----------------  -----------------
         S           -1.906760597974    -0.011170166530    -0.127126409128    31.972071174400
         O           -2.277766597974    -0.168724166530     1.468507590872    15.994914619570
         O           -2.344681597974    -1.233044166530    -0.782952409128    15.994914619570
         O           -2.291102397974     1.340184033470    -0.535742309128    15.994914619570
         C           -0.140356597974    -0.000859166530    -0.078023409128    12.000000000000
         C            1.932610402026    -1.218766166530     0.037277590872    12.000000000000
         C            1.923841402026     1.233997833470     0.018202590872    12.000000000000
         C            0.526856402026     1.223447833470    -0.053346409128    12.000000000000
         C            0.536427402026    -1.220000166530    -0.039739409128    12.000000000000
         C            2.603721402026     0.010619833470     0.064572590872    12.000000000000
         C            2.699249402026    -2.515300166530     0.042596590872    12.000000000000
         C            2.680970402026     2.536052833470    -0.001179409128    12.000000000000
         H           -0.038566597974     2.150918833470    -0.103315409128     1.007825032230
         H           -0.021186597974    -2.152823166530    -0.076247409128     1.007825032230
         H            3.691995402026     0.015086833470     0.128998590872     1.007825032230
         H            2.113029402026    -3.316263166530     0.500633590872     1.007825032230
         H            2.947805402026    -2.825155166530    -0.977967409128     1.007825032230
         H            3.635436402026    -2.415052166530     0.598531590872     1.007825032230
         H            2.925646402026     2.829555833470    -1.027500409128     1.007825032230
         H            2.090165402026     3.341344833470     0.443423590872     1.007825032230
         H            3.618899402026     2.452612833470     0.554618590872     1.007825032230
         H           -2.721075597974     0.665793833470     1.728895590872     1.007825032230

  Basis Set: AUG-CC-PVTZ
    Blend: AUG-CC-PVTZ
  Basis Set: (AUG-CC-PVTZ AUX)
    Blend: AUG-CC-PVTZ-JKFIT
	 Reference Energy          =    -931.0550243837689095 [Eh]
	 Singles Energy            =      -0.0000000000000000 [Eh]
	 Same-Spin Energy          =      -0.6216761439680508 [Eh]
	 Opposite-Spin Energy      =      -1.8684024052726556 [Eh]
	 Correlation Energy        =      -2.4900785492407063 [Eh]
	 Total Energy              =    -933.5451029330096162 [Eh]

	 ================> DF-SCS-MP2 Energies <==================
	-----------------------------------------------------------
	 SCS Same-Spin Scale       =       0.3333333333333333 [-]
	 SCS Opposite-Spin Scale   =       1.2000000000000000 [-]
	 SCS Same-Spin Energy      =      -0.2072253813226836 [Eh]
	 SCS Opposite-Spin Energy  =      -2.2420828863271867 [Eh]
	 SCS Correlation Energy    =      -2.4493082676498701 [Eh]
	 SCS Total Energy          =    -933.5043326514187356 [Eh]
	-----------------------------------------------------------

  Dipole Moment: [D]
     X:     4.0596      Y:     0.9603      Z:     1.9045     Total:     4.5858

*** Psi4 exiting successfully. Buy a developer a beer!
