                               Psi4 1.4a3.dev225

  ==> Input File <==

--------------------------------------------------------------------------
#psi4
#
memory 32 gb

molecule  {
0 1
  S       -1.9906940    -0.0125100    -0.1365530
  O       -2.3617000    -0.1700640     1.4590810
  O       -2.4286150    -1.2343840    -0.7923790
  O       -2.4725380     1.3090340    -0.5392830
  C       -0.2242900    -0.0021990    -0.0874500
  C        1.8486770    -1.2201060     0.0278510
  C        1.8399080     1.2326580     0.0087760
  C        0.4429230     1.2221080    -0.0627730
  C        0.4524940    -1.2213400    -0.0491660
  C        2.6035088     0.0597250     0.0554959
  C        2.6153160    -2.5166400     0.0331700
  C        2.5970370     2.5347130    -0.0106060
  H       -0.1225000     2.1495790    -0.1127420
  H       -0.1051200    -2.1541630    -0.0856740
  H        3.6080620     0.0137470     0.1195720
  H        2.0290960    -3.3176030     0.4912070
  H        2.8638720    -2.8264950    -0.9873940
  H        3.5515030    -2.4163920     0.5891050
  H        2.8417130     2.8282160    -1.0369270
  H        2.0062320     3.3400050     0.4339970
  H        3.5349660     2.4512730     0.5451920
  H       -2.8050090     0.6644540     1.7194690
units angstrom
no_reorient  #important for SAPT in psi4, default
symmetry c1  #important for SAPT in psi4, default
}

set PROPERTIES_ORIGIN ["COM"]
properties('MP2/aug-cc-pvtz', properties = ['dipole'])
--------------------------------------------------------------------------

    Molecular point group: c1
  Charge       = 0
  Multiplicity = 1
  Basis Set: AUG-CC-PVTZ
    Blend: AUG-CC-PVTZ
  Basis Set: (AUG-CC-PVTZ AUX)
    Blend: AUG-CC-PVTZ-JKFIT

    Orbital Energies [Eh]
    ---------------------

    Doubly Occupied:

       1A    -92.229393     2A    -20.629219     3A    -20.565462
       4A    -20.561498     5A    -11.288194     6A    -11.276151
       7A    -11.268697     8A    -11.264403     9A    -11.260190
      10A    -11.259133    11A    -11.239857    12A    -11.238785
      13A     -9.192322    14A     -6.877939    15A     -6.876647
      16A     -6.876398    17A     -1.493300    18A     -1.379632
      19A     -1.351997    20A     -1.181834    21A     -1.081374
      22A     -1.072186    23A     -0.958031    24A     -0.953646
      25A     -0.928201    26A     -0.823585    27A     -0.800326
      28A     -0.740922    29A     -0.724921    30A     -0.701181
      31A     -0.685294    32A     -0.668756    33A     -0.628970
      34A     -0.599041    35A     -0.598658    36A     -0.591476
      37A     -0.584469    38A     -0.583739    39A     -0.570154
      40A     -0.548463    41A     -0.546099    42A     -0.523692
      43A     -0.507399    44A     -0.499673    45A     -0.492843
      46A     -0.484034    47A     -0.474523    48A     -0.359529
      49A     -0.342736

  @DF-RHF Final Energy:  -931.04376264764960

   => Energetics <=

    Nuclear Repulsion Energy =            828.8264579366175440
    One-Electron Energy =               -2922.9704964940947320
    Two-Electron Energy =                1163.1002759098273600
    Total Energy =                       -931.0437626476496007
  Basis Set: (AUG-CC-PVTZ AUX)
    Blend: AUG-CC-PVTZ-RI
    Molecular point group: c1

    Geometry (in Angstrom), charge = 0, multiplicity = 1:

       Center              X                  Y                   Z               Mass
    ------------   -----------------  -----------------  -----------------  -----------------
         S           -1.903777881983    -0.011861049165    -0.127655036716    31.972071174400
         O           -2.274783881983    -0.169415049165     1.467978963284    15.994914619570
         O           -2.341698881983    -1.233735049165    -0.783481036716    15.994914619570
         O           -2.385621881983     1.309682950835    -0.530385036716    15.994914619570
         C           -0.137373881983    -0.001550049165    -0.078552036716    12.000000000000
         C            1.935593118017    -1.219457049165     0.036748963284    12.000000000000
         C            1.926824118017     1.233306950835     0.017673963284    12.000000000000
         C            0.529839118017     1.222756950835    -0.053875036716    12.000000000000
         C            0.539410118017    -1.220691049165    -0.040268036716    12.000000000000
         C            2.690424918017     0.060373950835     0.064393863284    12.000000000000
         C            2.702232118017    -2.515991049165     0.042067963284    12.000000000000
         C            2.683953118017     2.535361950835    -0.001708036716    12.000000000000
         H           -0.035583881983     2.150227950835    -0.103844036716     1.007825032230
         H           -0.018203881983    -2.153514049165    -0.076776036716     1.007825032230
         H            3.694978118017     0.014395950835     0.128469963284     1.007825032230
         H            2.116012118017    -3.316954049165     0.500104963284     1.007825032230
         H            2.950788118017    -2.825846049165    -0.978496036716     1.007825032230
         H            3.638419118017    -2.415743049165     0.598002963284     1.007825032230
         H            2.928629118017     2.828864950835    -1.028029036716     1.007825032230
         H            2.093148118017     3.340653950835     0.442894963284     1.007825032230
         H            3.621882118017     2.451921950835     0.554089963284     1.007825032230
         H           -2.718092881983     0.665102950835     1.728366963284     1.007825032230

  Basis Set: AUG-CC-PVTZ
    Blend: AUG-CC-PVTZ
  Basis Set: (AUG-CC-PVTZ AUX)
    Blend: AUG-CC-PVTZ-JKFIT
	 Reference Energy          =    -931.0437626476496007 [Eh]
	 Singles Energy            =      -0.0000000000000000 [Eh]
	 Same-Spin Energy          =      -0.6214052450774163 [Eh]
	 Opposite-Spin Energy      =      -1.8687569697574458 [Eh]
	 Correlation Energy        =      -2.4901622148348621 [Eh]
	 Total Energy              =    -933.5339248624844686 [Eh]

	 ================> DF-SCS-MP2 Energies <==================
	-----------------------------------------------------------
	 SCS Same-Spin Scale       =       0.3333333333333333 [-]
	 SCS Opposite-Spin Scale   =       1.2000000000000000 [-]
	 SCS Same-Spin Energy      =      -0.2071350816924721 [Eh]
	 SCS Opposite-Spin Energy  =      -2.2425083637089349 [Eh]
	 SCS Correlation Energy    =      -2.4496434454014069 [Eh]
	 SCS Total Energy          =    -933.4934060930510213 [Eh]
	-----------------------------------------------------------

  Dipole Moment: [D]
     X:     4.4280      Y:     0.9491      Z:     1.8920     Total:     4.9079

*** Psi4 exiting successfully. Buy a developer a beer!
