                               Psi4 1.4a3.dev225

  ==> Input File <==

--------------------------------------------------------------------------
#psi4
#
memory 32 gb

molecule  {
0 1
  S       -1.9906940    -0.0125100    -0.1365530
  O       -2.3617000    -0.1700640     1.4590810
  O       -2.4286150    -1.2343840    -0.7923790
  O       -2.4725380     1.3090340    -0.5392830
  C       -0.2242900    -0.0021990    -0.0874500
  C        1.8486770    -1.2201060     0.0278510
  C        1.8399080     1.2326580     0.0087760
  C        0.4429230     1.2221080    -0.0627730
  C        0.4524940    -1.2213400    -0.0491660
  C        2.5440630    -0.0344005     0.0568016
  C        2.6153160    -2.5166400     0.0331700
  C        2.5970370     2.5347130    -0.0106060
  H       -0.1225000     2.1495790    -0.1127420
  H       -0.1051200    -2.1541630    -0.0856740
  H        3.6080620     0.0137470     0.1195720
  H        2.0290960    -3.3176030     0.4912070
  H        2.8638720    -2.8264950    -0.9873940
  H        3.5515030    -2.4163920     0.5891050
  H        2.8417130     2.8282160    -1.0369270
  H        2.0062320     3.3400050     0.4339970
  H        3.5349660     2.4512730     0.5451920
  H       -2.8050090     0.6644540     1.7194690
units angstrom
no_reorient  #important for SAPT in psi4, default
symmetry c1  #important for SAPT in psi4, default
}

set PROPERTIES_ORIGIN ["COM"]
properties('MP2/aug-cc-pvtz', properties = ['dipole'])
--------------------------------------------------------------------------

    Molecular point group: c1
  Charge       = 0
  Multiplicity = 1
  Basis Set: AUG-CC-PVTZ
    Blend: AUG-CC-PVTZ
  Basis Set: (AUG-CC-PVTZ AUX)
    Blend: AUG-CC-PVTZ-JKFIT

    Orbital Energies [Eh]
    ---------------------

    Doubly Occupied:

       1A    -92.228908     2A    -20.628808     3A    -20.565218
       4A    -20.560806     5A    -11.286562     6A    -11.272576
       7A    -11.264660     8A    -11.263279     9A    -11.261191
      10A    -11.257437    11A    -11.241968    12A    -11.238883
      13A     -9.191823    14A     -6.877443    15A     -6.876142
      16A     -6.875907    17A     -1.492862    18A     -1.379210
      19A     -1.351577    20A     -1.186143    21A     -1.082646
      22A     -1.073548    23A     -0.961121    24A     -0.953578
      25A     -0.925159    26A     -0.820516    27A     -0.806592
      28A     -0.740213    29A     -0.723103    30A     -0.694423
      31A     -0.682955    32A     -0.671252    33A     -0.627813
      34A     -0.601308    35A     -0.600251    36A     -0.591524
      37A     -0.585107    38A     -0.576998    39A     -0.569771
      40A     -0.548007    41A     -0.541452    42A     -0.523612
      43A     -0.507047    44A     -0.503168    45A     -0.499745
      46A     -0.484189    47A     -0.473757    48A     -0.363429
      49A     -0.343397

  @DF-RHF Final Energy:  -931.05412505650202

   => Energetics <=

    Nuclear Repulsion Energy =            830.0064380936589714
    One-Electron Energy =               -2925.3669498365625259
    Two-Electron Energy =                1164.3063866864013107
    Total Energy =                       -931.0541250565020164
  Basis Set: (AUG-CC-PVTZ AUX)
    Blend: AUG-CC-PVTZ-RI
    Molecular point group: c1

    Geometry (in Angstrom), charge = 0, multiplicity = 1:

       Center              X                  Y                   Z               Mass
    ------------   -----------------  -----------------  -----------------  -----------------
         S           -1.899943391971    -0.005789580876    -0.127739259548    31.972071174400
         O           -2.270949391971    -0.163343580876     1.467894740452    15.994914619570
         O           -2.337864391971    -1.227663580876    -0.783565259548    15.994914619570
         O           -2.381787391971     1.315754419124    -0.530469259548    15.994914619570
         C           -0.133539391971     0.004521419124    -0.078636259548    12.000000000000
         C            1.939427608029    -1.213385580876     0.036664740452    12.000000000000
         C            1.930658608029     1.239378419124     0.017589740452    12.000000000000
         C            0.533673608029     1.228828419124    -0.053959259548    12.000000000000
         C            0.543244608029    -1.214619580876    -0.040352259548    12.000000000000
         C            2.634813608029    -0.027680080876     0.065615340452    12.000000000000
         C            2.706066608029    -2.509919580876     0.041983740452    12.000000000000
         C            2.687787608029     2.541433419124    -0.001792259548    12.000000000000
         H           -0.031749391971     2.156299419124    -0.103928259548     1.007825032230
         H           -0.014369391971    -2.147442580876    -0.076860259548     1.007825032230
         H            3.698812608029     0.020467419124     0.128385740452     1.007825032230
         H            2.119846608029    -3.310882580876     0.500020740452     1.007825032230
         H            2.954622608029    -2.819774580876    -0.978580259548     1.007825032230
         H            3.642253608029    -2.409671580876     0.597918740452     1.007825032230
         H            2.932463608029     2.834936419124    -1.028113259548     1.007825032230
         H            2.096982608029     3.346725419124     0.442810740452     1.007825032230
         H            3.625716608029     2.457993419124     0.554005740452     1.007825032230
         H           -2.714258391971     0.671174419124     1.728282740452     1.007825032230

  Basis Set: AUG-CC-PVTZ
    Blend: AUG-CC-PVTZ
  Basis Set: (AUG-CC-PVTZ AUX)
    Blend: AUG-CC-PVTZ-JKFIT
	 Reference Energy          =    -931.0541250565020164 [Eh]
	 Singles Energy            =      -0.0000000000000000 [Eh]
	 Same-Spin Energy          =      -0.6212794958878715 [Eh]
	 Opposite-Spin Energy      =      -1.8679360996264744 [Eh]
	 Correlation Energy        =      -2.4892155955143460 [Eh]
	 Total Energy              =    -933.5433406520163544 [Eh]

	 ================> DF-SCS-MP2 Energies <==================
	-----------------------------------------------------------
	 SCS Same-Spin Scale       =       0.3333333333333333 [-]
	 SCS Opposite-Spin Scale   =       1.2000000000000000 [-]
	 SCS Same-Spin Energy      =      -0.2070931652959571 [Eh]
	 SCS Opposite-Spin Energy  =      -2.2415233195517694 [Eh]
	 SCS Correlation Energy    =      -2.4486164848477268 [Eh]
	 SCS Total Energy          =    -933.5027415413497920 [Eh]
	-----------------------------------------------------------

  Dipole Moment: [D]
     X:     4.4310      Y:     1.0543      Z:     1.8895     Total:     4.9311

*** Psi4 exiting successfully. Buy a developer a beer!
