                               Psi4 1.4a3.dev225

  ==> Input File <==

--------------------------------------------------------------------------
#psi4
#
memory 32 gb

molecule  {
0 1
  S       -1.9906940    -0.0125100    -0.1365530
  O       -2.3617000    -0.1700640     1.4590810
  O       -2.4286150    -1.2343840    -0.7923790
  O       -2.4725380     1.3090340    -0.5392830
  C       -0.2242900    -0.0021990    -0.0874500
  C        1.8486770    -1.2201060     0.0278510
  C        1.8399080     1.2326580     0.0087760
  C        0.4429230     1.2221080    -0.0627730
  C        0.4524940    -1.2213400    -0.0491660
  C        2.4983239    -0.0024089     0.0550231
  C        2.6153160    -2.5166400     0.0331700
  C        2.5970370     2.5347130    -0.0106060
  H       -0.1225000     2.1495790    -0.1127420
  H       -0.1051200    -2.1541630    -0.0856740
  H        3.6080620     0.0137470     0.1195720
  H        2.0290960    -3.3176030     0.4912070
  H        2.8638720    -2.8264950    -0.9873940
  H        3.5515030    -2.4163920     0.5891050
  H        2.8417130     2.8282160    -1.0369270
  H        2.0062320     3.3400050     0.4339970
  H        3.5349660     2.4512730     0.5451920
  H       -2.8050090     0.6644540     1.7194690
units angstrom
no_reorient  #important for SAPT in psi4, default
symmetry c1  #important for SAPT in psi4, default
}

set PROPERTIES_ORIGIN ["COM"]
properties('MP2/aug-cc-pvtz', properties = ['dipole'])
--------------------------------------------------------------------------

    Molecular point group: c1
  Charge       = 0
  Multiplicity = 1
  Basis Set: AUG-CC-PVTZ
    Blend: AUG-CC-PVTZ
  Basis Set: (AUG-CC-PVTZ AUX)
    Blend: AUG-CC-PVTZ-JKFIT

    Orbital Energies [Eh]
    ---------------------

    Doubly Occupied:

       1A    -92.228670     2A    -20.628542     3A    -20.564905
       4A    -20.560622     5A    -11.285605     6A    -11.267338
       7A    -11.264833     8A    -11.262510     9A    -11.262457
      10A    -11.256682    11A    -11.242172    12A    -11.240530
      13A     -9.191570    14A     -6.877190    15A     -6.875889
      16A     -6.875654    17A     -1.492615    18A     -1.378984
      19A     -1.351340    20A     -1.189765    21A     -1.082653
      22A     -1.075584    23A     -0.963681    24A     -0.953845
      25A     -0.923183    26A     -0.818506    27A     -0.812271
      28A     -0.740002    29A     -0.722569    30A     -0.690169
      31A     -0.682329    32A     -0.670827    33A     -0.627612
      34A     -0.603495    35A     -0.601462    36A     -0.591944
      37A     -0.585593    38A     -0.572987    39A     -0.568571
      40A     -0.548300    41A     -0.534039    42A     -0.523653
      43A     -0.511025    44A     -0.507041    45A     -0.501183
      46A     -0.483928    47A     -0.473155    48A     -0.364934
      49A     -0.345238

  @DF-RHF Final Energy:  -931.05689579529235

   => Energetics <=

    Nuclear Repulsion Energy =            830.9091949283763370
    One-Electron Energy =               -2927.1768725822194028
    Two-Electron Energy =                1165.2107818585504901
    Total Energy =                       -931.0568957952923483
  Basis Set: (AUG-CC-PVTZ AUX)
    Blend: AUG-CC-PVTZ-RI
    Molecular point group: c1

    Geometry (in Angstrom), charge = 0, multiplicity = 1:

       Center              X                  Y                   Z               Mass
    ------------   -----------------  -----------------  -----------------  -----------------
         S           -1.896993038505    -0.007853166035    -0.127624539240    31.972071174400
         O           -2.267999038505    -0.165407166035     1.468009460760    15.994914619570
         O           -2.334914038505    -1.229727166035    -0.783450539240    15.994914619570
         O           -2.378837038505     1.313690833965    -0.530354539240    15.994914619570
         C           -0.130589038505     0.002457833965    -0.078521539240    12.000000000000
         C            1.942377961495    -1.215449166035     0.036779460760    12.000000000000
         C            1.933608961495     1.237314833965     0.017704460760    12.000000000000
         C            0.536623961495     1.226764833965    -0.053844539240    12.000000000000
         C            0.546194961495    -1.216683166035    -0.040237539240    12.000000000000
         C            2.592024861495     0.002247933965     0.063951560760    12.000000000000
         C            2.709016961495    -2.511983166035     0.042098460760    12.000000000000
         C            2.690737961495     2.539369833965    -0.001677539240    12.000000000000
         H           -0.028799038505     2.154235833965    -0.103813539240     1.007825032230
         H           -0.011419038505    -2.149506166035    -0.076745539240     1.007825032230
         H            3.701762961495     0.018403833965     0.128500460760     1.007825032230
         H            2.122796961495    -3.312946166035     0.500135460760     1.007825032230
         H            2.957572961495    -2.821838166035    -0.978465539240     1.007825032230
         H            3.645203961495    -2.411735166035     0.598033460760     1.007825032230
         H            2.935413961495     2.832872833965    -1.027998539240     1.007825032230
         H            2.099932961495     3.344661833965     0.442925460760     1.007825032230
         H            3.628666961495     2.455929833965     0.554120460760     1.007825032230
         H           -2.711308038505     0.669110833965     1.728397460760     1.007825032230

  Basis Set: AUG-CC-PVTZ
    Blend: AUG-CC-PVTZ
  Basis Set: (AUG-CC-PVTZ AUX)
    Blend: AUG-CC-PVTZ-JKFIT
	 Reference Energy          =    -931.0568957952923483 [Eh]
	 Singles Energy            =      -0.0000000000000000 [Eh]
	 Same-Spin Energy          =      -0.6213174284559237 [Eh]
	 Opposite-Spin Energy      =      -1.8676311131407817 [Eh]
	 Correlation Energy        =      -2.4889485415967054 [Eh]
	 Total Energy              =    -933.5458443368891039 [Eh]

	 ================> DF-SCS-MP2 Energies <==================
	-----------------------------------------------------------
	 SCS Same-Spin Scale       =       0.3333333333333333 [-]
	 SCS Opposite-Spin Scale   =       1.2000000000000000 [-]
	 SCS Same-Spin Energy      =      -0.2071058094853079 [Eh]
	 SCS Opposite-Spin Energy  =      -2.2411573357689378 [Eh]
	 SCS Correlation Energy    =      -2.4482631452542458 [Eh]
	 SCS Total Energy          =    -933.5051589405466075 [Eh]
	-----------------------------------------------------------

  Dipole Moment: [D]
     X:     4.4202      Y:     1.0174      Z:     1.8888     Total:     4.9134

*** Psi4 exiting successfully. Buy a developer a beer!
