                               Psi4 1.4a3.dev225

  ==> Input File <==

--------------------------------------------------------------------------
#psi4
#
memory 32 gb

molecule  {
0 1
  S       -1.9906940    -0.0125100    -0.1365530
  O       -2.3617000    -0.1700640     1.4590810
  O       -2.4286150    -1.2343840    -0.7923790
  O       -2.4725380     1.3090340    -0.5392830
  C       -0.2242900    -0.0021990    -0.0874500
  C        1.8486770    -1.2201060     0.0278510
  C        1.8399080     1.2326580     0.0087760
  C        0.4429230     1.2221080    -0.0627730
  C        0.4524940    -1.2213400    -0.0491660
  C        2.5197880     0.0092800     0.0551460
  C        2.6153160    -2.5166400     0.0331700
  C        2.5970370     2.5347130    -0.0106060
  H       -0.1225000     2.1495790    -0.1127420
  H       -0.1051200    -2.1541630    -0.0856740
  H        3.6080620     0.0137470     0.1195720
  H        1.9752637    -3.3045817     0.4387245
  H        2.8638720    -2.8264950    -0.9873940
  H        3.5515030    -2.4163920     0.5891050
  H        2.8417130     2.8282160    -1.0369270
  H        2.0062320     3.3400050     0.4339970
  H        3.5349660     2.4512730     0.5451920
  H       -2.8050090     0.6644540     1.7194690
units angstrom
no_reorient  #important for SAPT in psi4, default
symmetry c1  #important for SAPT in psi4, default
}

set PROPERTIES_ORIGIN ["COM"]
properties('MP2/aug-cc-pvtz', properties = ['dipole'])
--------------------------------------------------------------------------

    Molecular point group: c1
  Charge       = 0
  Multiplicity = 1
  Basis Set: AUG-CC-PVTZ
    Blend: AUG-CC-PVTZ
  Basis Set: (AUG-CC-PVTZ AUX)
    Blend: AUG-CC-PVTZ-JKFIT

    Orbital Energies [Eh]
    ---------------------

    Doubly Occupied:

       1A    -92.228802     2A    -20.628661     3A    -20.564997
       4A    -20.560803     5A    -11.286123     6A    -11.267416
       7A    -11.266821     8A    -11.262649     9A    -11.262010
      10A    -11.256850    11A    -11.241438    12A    -11.240621
      13A     -9.191708    14A     -6.877328    15A     -6.876028
      16A     -6.875791    17A     -1.492740    18A     -1.379101
      19A     -1.351464    20A     -1.187875    21A     -1.081907
      22A     -1.075455    23A     -0.962616    24A     -0.953613
      25A     -0.924075    26A     -0.819179    27A     -0.809493
      28A     -0.740067    29A     -0.722730    30A     -0.691308
      31A     -0.684069    32A     -0.671034    33A     -0.627923
      34A     -0.602020    35A     -0.599402    36A     -0.591819
      37A     -0.582671    38A     -0.575632    39A     -0.571042
      40A     -0.550597    41A     -0.537840    42A     -0.523516
      43A     -0.508147    44A     -0.506167    45A     -0.500662
      46A     -0.484032    47A     -0.473632    48A     -0.363080
      49A     -0.344773

  @DF-RHF Final Energy:  -931.05683009338861

   => Energetics <=

    Nuclear Repulsion Energy =            830.5800461363013483
    One-Electron Energy =               -2926.5183003245447253
    Two-Electron Energy =                1164.8814240948547649
    Total Energy =                       -931.0568300933884984
  Basis Set: (AUG-CC-PVTZ AUX)
    Blend: AUG-CC-PVTZ-RI
    Molecular point group: c1

    Geometry (in Angstrom), charge = 0, multiplicity = 1:

       Center              X                  Y                   Z               Mass
    ------------   -----------------  -----------------  -----------------  -----------------
         S           -1.898085927418    -0.008677687970    -0.127348148458    31.972071174400
         O           -2.269091927418    -0.166231687970     1.468285851542    15.994914619570
         O           -2.336006927418    -1.230551687970    -0.783174148458    15.994914619570
         O           -2.379929927418     1.312866312030    -0.530078148458    15.994914619570
         C           -0.131681927418     0.001633312030    -0.078245148458    12.000000000000
         C            1.941285072582    -1.216273687970     0.037055851542    12.000000000000
         C            1.932516072582     1.236490312030     0.017980851542    12.000000000000
         C            0.535531072582     1.225940312030    -0.053568148458    12.000000000000
         C            0.545102072582    -1.217507687970    -0.039961148458    12.000000000000
         C            2.612396072582     0.013112312030     0.064350851542    12.000000000000
         C            2.707924072582    -2.512807687970     0.042374851542    12.000000000000
         C            2.689645072582     2.538545312030    -0.001401148458    12.000000000000
         H           -0.029891927418     2.153411312030    -0.103537148458     1.007825032230
         H           -0.012511927418    -2.150330687970    -0.076469148458     1.007825032230
         H            3.700670072582     0.017579312030     0.128776851542     1.007825032230
         H            2.067871772582    -3.300749387970     0.447929351542     1.007825032230
         H            2.956480072582    -2.822662687970    -0.978189148458     1.007825032230
         H            3.644111072582    -2.412559687970     0.598309851542     1.007825032230
         H            2.934321072582     2.832048312030    -1.027722148458     1.007825032230
         H            2.098840072582     3.343837312030     0.443201851542     1.007825032230
         H            3.627574072582     2.455105312030     0.554396851542     1.007825032230
         H           -2.712400927418     0.668286312030     1.728673851542     1.007825032230

  Basis Set: AUG-CC-PVTZ
    Blend: AUG-CC-PVTZ
  Basis Set: (AUG-CC-PVTZ AUX)
    Blend: AUG-CC-PVTZ-JKFIT
	 Reference Energy          =    -931.0568300933886121 [Eh]
	 Singles Energy            =      -0.0000000000000000 [Eh]
	 Same-Spin Energy          =      -0.6213655037572081 [Eh]
	 Opposite-Spin Energy      =      -1.8677694393056581 [Eh]
	 Correlation Energy        =      -2.4891349430628660 [Eh]
	 Total Energy              =    -933.5459650364514346 [Eh]

	 ================> DF-SCS-MP2 Energies <==================
	-----------------------------------------------------------
	 SCS Same-Spin Scale       =       0.3333333333333333 [-]
	 SCS Opposite-Spin Scale   =       1.2000000000000000 [-]
	 SCS Same-Spin Energy      =      -0.2071218345857360 [Eh]
	 SCS Opposite-Spin Energy  =      -2.2413233271667896 [Eh]
	 SCS Correlation Energy    =      -2.4484451617525256 [Eh]
	 SCS Total Energy          =    -933.5052752551411004 [Eh]
	-----------------------------------------------------------

  Dipole Moment: [D]
     X:     4.4257      Y:     1.0052      Z:     1.8676     Total:     4.9076

*** Psi4 exiting successfully. Buy a developer a beer!
