                               Psi4 1.4a3.dev225

  ==> Input File <==

--------------------------------------------------------------------------
#psi4
#
memory 32 gb

molecule  {
0 1
  S       -1.9906940    -0.0125100    -0.1365530
  O       -2.3617000    -0.1700640     1.4590810
  O       -2.4286150    -1.2343840    -0.7923790
  O       -2.4725380     1.3090340    -0.5392830
  C       -0.2242900    -0.0021990    -0.0874500
  C        1.8486770    -1.2201060     0.0278510
  C        1.8399080     1.2326580     0.0087760
  C        0.4429230     1.2221080    -0.0627730
  C        0.4524940    -1.2213400    -0.0491660
  C        2.5197880     0.0092800     0.0551460
  C        2.6153160    -2.5166400     0.0331700
  C        2.5970370     2.5347130    -0.0106060
  H       -0.1225000     2.1495790    -0.1127420
  H       -0.1051200    -2.1541630    -0.0856740
  H        3.6080620     0.0137470     0.1195720
  H        2.0290960    -3.3176030     0.4912070
  H        2.8638720    -2.8264950    -0.9873940
  H        3.5686271    -2.4145583     0.5992738
  H        2.8417130     2.8282160    -1.0369270
  H        2.0062320     3.3400050     0.4339970
  H        3.5349660     2.4512730     0.5451920
  H       -2.8050090     0.6644540     1.7194690
units angstrom
no_reorient  #important for SAPT in psi4, default
symmetry c1  #important for SAPT in psi4, default
}

set PROPERTIES_ORIGIN ["COM"]
properties('MP2/aug-cc-pvtz', properties = ['dipole'])
--------------------------------------------------------------------------

    Molecular point group: c1
  Charge       = 0
  Multiplicity = 1
  Basis Set: AUG-CC-PVTZ
    Blend: AUG-CC-PVTZ
  Basis Set: (AUG-CC-PVTZ AUX)
    Blend: AUG-CC-PVTZ-JKFIT

    Orbital Energies [Eh]
    ---------------------

    Doubly Occupied:

       1A    -92.228828     2A    -20.628687     3A    -20.565030
       4A    -20.560814     5A    -11.286136     6A    -11.267476
       7A    -11.267282     8A    -11.262857     9A    -11.262190
      10A    -11.257144    11A    -11.242752    12A    -11.241500
      13A     -9.191734    14A     -6.877353    15A     -6.876054
      16A     -6.875816    17A     -1.492765    18A     -1.379126
      19A     -1.351487    20A     -1.187926    21A     -1.081493
      22A     -1.075360    23A     -0.961857    24A     -0.953051
      25A     -0.924081    26A     -0.819112    27A     -0.809579
      28A     -0.740027    29A     -0.722806    30A     -0.691254
      31A     -0.683578    32A     -0.670623    33A     -0.627784
      34A     -0.602473    35A     -0.600715    36A     -0.591883
      37A     -0.584871    38A     -0.574076    39A     -0.568353
      40A     -0.546672    41A     -0.537392    42A     -0.523545
      43A     -0.508413    44A     -0.506836    45A     -0.500941
      46A     -0.484010    47A     -0.473582    48A     -0.363311
      49A     -0.345117

  @DF-RHF Final Energy:  -931.05689908531895

   => Energetics <=

    Nuclear Repulsion Energy =            830.3834964371311571
    One-Electron Energy =               -2926.1292906793760267
    Two-Electron Energy =                1164.6888951569258097
    Total Energy =                       -931.0568990853189462
  Basis Set: (AUG-CC-PVTZ AUX)
    Blend: AUG-CC-PVTZ-RI
    Molecular point group: c1

    Geometry (in Angstrom), charge = 0, multiplicity = 1:

       Center              X                  Y                   Z               Mass
    ------------   -----------------  -----------------  -----------------  -----------------
         S           -1.898470326112    -0.008617080346    -0.127687555162    31.972071174400
         O           -2.269476326112    -0.166171080346     1.467946444838    15.994914619570
         O           -2.336391326112    -1.230491080346    -0.783513555162    15.994914619570
         O           -2.380314326112     1.312926919654    -0.530417555162    15.994914619570
         C           -0.132066326112     0.001693919654    -0.078584555162    12.000000000000
         C            1.940900673888    -1.216213080346     0.036716444838    12.000000000000
         C            1.932131673888     1.236550919654     0.017641444838    12.000000000000
         C            0.535146673888     1.226000919654    -0.053907555162    12.000000000000
         C            0.544717673888    -1.217447080346    -0.040300555162    12.000000000000
         C            2.612011673888     0.013172919654     0.064011444838    12.000000000000
         C            2.707539673888    -2.512747080346     0.042035444838    12.000000000000
         C            2.689260673888     2.538605919654    -0.001740555162    12.000000000000
         H           -0.030276326112     2.153471919654    -0.103876555162     1.007825032230
         H           -0.012896326112    -2.150270080346    -0.076808555162     1.007825032230
         H            3.700285673888     0.017639919654     0.128437444838     1.007825032230
         H            2.121319673888    -3.313710080346     0.500072444838     1.007825032230
         H            2.956095673888    -2.822602080346    -0.978528555162     1.007825032230
         H            3.660850773888    -2.410665380346     0.608139244838     1.007825032230
         H            2.933936673888     2.832108919654    -1.028061555162     1.007825032230
         H            2.098455673888     3.343897919654     0.442862444838     1.007825032230
         H            3.627189673888     2.455165919654     0.554057444838     1.007825032230
         H           -2.712785326112     0.668346919654     1.728334444838     1.007825032230

  Basis Set: AUG-CC-PVTZ
    Blend: AUG-CC-PVTZ
  Basis Set: (AUG-CC-PVTZ AUX)
    Blend: AUG-CC-PVTZ-JKFIT
	 Reference Energy          =    -931.0568990853189462 [Eh]
	 Singles Energy            =      -0.0000000000000000 [Eh]
	 Same-Spin Energy          =      -0.6213011028109552 [Eh]
	 Opposite-Spin Energy      =      -1.8678132268254912 [Eh]
	 Correlation Energy        =      -2.4891143296364464 [Eh]
	 Total Energy              =    -933.5460134149553824 [Eh]

	 ================> DF-SCS-MP2 Energies <==================
	-----------------------------------------------------------
	 SCS Same-Spin Scale       =       0.3333333333333333 [-]
	 SCS Opposite-Spin Scale   =       1.2000000000000000 [-]
	 SCS Same-Spin Energy      =      -0.2071003676036517 [Eh]
	 SCS Opposite-Spin Energy  =      -2.2413758721905892 [Eh]
	 SCS Correlation Energy    =      -2.4484762397942408 [Eh]
	 SCS Total Energy          =    -933.5053753251131639 [Eh]
	-----------------------------------------------------------

  Dipole Moment: [D]
     X:     4.4184      Y:     1.0072      Z:     1.8861     Total:     4.9086

*** Psi4 exiting successfully. Buy a developer a beer!
