                               Psi4 1.4a3.dev225

  ==> Input File <==

--------------------------------------------------------------------------
#psi4
#
memory 32 gb

molecule  {
0 1
  S       -1.9906940    -0.0125100    -0.1365530
  O       -2.3617000    -0.1700640     1.4590810
  O       -2.4286150    -1.2343840    -0.7923790
  O       -2.3255524     1.3512882    -0.5473667
  C       -0.2242900    -0.0021990    -0.0874500
  C        1.8486770    -1.2201060     0.0278510
  C        1.8399080     1.2326580     0.0087760
  C        0.4429230     1.2221080    -0.0627730
  C        0.4524940    -1.2213400    -0.0491660
  C        2.5197880     0.0092800     0.0551460
  C        2.6153160    -2.5166400     0.0331700
  C        2.5970370     2.5347130    -0.0106060
  H       -0.1225000     2.1495790    -0.1127420
  H       -0.1051200    -2.1541630    -0.0856740
  H        3.6080620     0.0137470     0.1195720
  H        2.0290960    -3.3176030     0.4912070
  H        2.8638720    -2.8264950    -0.9873940
  H        3.5515030    -2.4163920     0.5891050
  H        2.8417130     2.8282160    -1.0369270
  H        2.0062320     3.3400050     0.4339970
  H        3.5349660     2.4512730     0.5451920
  H       -2.8050090     0.6644540     1.7194690
units angstrom
no_reorient  #important for SAPT in psi4, default
symmetry c1  #important for SAPT in psi4, default
}

set PROPERTIES_ORIGIN ["COM"]
properties('MP2/aug-cc-pvtz', properties = ['dipole'])
--------------------------------------------------------------------------

    Molecular point group: c1
  Charge       = 0
  Multiplicity = 1
  Basis Set: AUG-CC-PVTZ
    Blend: AUG-CC-PVTZ
  Basis Set: (AUG-CC-PVTZ AUX)
    Blend: AUG-CC-PVTZ-JKFIT

    Orbital Energies [Eh]
    ---------------------

    Doubly Occupied:

       1A    -92.230724     2A    -20.634259     3A    -20.567395
       4A    -20.566993     5A    -11.279444     6A    -11.263642
       7A    -11.263434     8A    -11.257571     9A    -11.257525
      10A    -11.253330    11A    -11.238886    12A    -11.237956
      13A     -9.193495    14A     -6.879114    15A     -6.877950
      16A     -6.877475    17A     -1.495329    18A     -1.383798
      19A     -1.357908    20A     -1.183464    21A     -1.078159
      22A     -1.070498    23A     -0.959518    24A     -0.950166
      25A     -0.921858    26A     -0.819581    27A     -0.806200
      28A     -0.741903    29A     -0.723639    30A     -0.690709
      31A     -0.682532    32A     -0.669651    33A     -0.630999
      34A     -0.599714    35A     -0.598244    36A     -0.588443
      37A     -0.582784    38A     -0.577953    39A     -0.567252
      40A     -0.545472    41A     -0.534489    42A     -0.527388
      43A     -0.509368    44A     -0.504623    45A     -0.499697
      46A     -0.488711    47A     -0.470187    48A     -0.359115
      49A     -0.341305

  @DF-RHF Final Energy:  -931.05274402518364

   => Energetics <=

    Nuclear Repulsion Energy =            831.8577462625013368
    One-Electron Energy =               -2929.1412832297814930
    Two-Electron Energy =                1166.2307929420967412
    Total Energy =                       -931.0527440251835287
  Basis Set: (AUG-CC-PVTZ AUX)
    Blend: AUG-CC-PVTZ-RI
    Molecular point group: c1

    Geometry (in Angstrom), charge = 0, multiplicity = 1:

       Center              X                  Y                   Z               Mass
    ------------   -----------------  -----------------  -----------------  -----------------
         S           -1.911015079550    -0.012240076211    -0.126937446777    31.972071174400
         O           -2.282021079550    -0.169794076211     1.468696553223    15.994914619570
         O           -2.348936079550    -1.234114076211    -0.782763446777    15.994914619570
         O           -2.245873479550     1.351558123789    -0.537751146777    15.994914619570
         C           -0.144611079550    -0.001929076211    -0.077834446777    12.000000000000
         C            1.928355920450    -1.219836076211     0.037466553223    12.000000000000
         C            1.919586920450     1.232927923789     0.018391553223    12.000000000000
         C            0.522601920450     1.222377923789    -0.053157446777    12.000000000000
         C            0.532172920450    -1.221070076211    -0.039550446777    12.000000000000
         C            2.599466920450     0.009549923789     0.064761553223    12.000000000000
         C            2.694994920450    -2.516370076211     0.042785553223    12.000000000000
         C            2.676715920450     2.534982923789    -0.000990446777    12.000000000000
         H           -0.042821079550     2.149848923789    -0.103126446777     1.007825032230
         H           -0.025441079550    -2.153893076211    -0.076058446777     1.007825032230
         H            3.687740920450     0.014016923789     0.129187553223     1.007825032230
         H            2.108774920450    -3.317333076211     0.500822553223     1.007825032230
         H            2.943550920450    -2.826225076211    -0.977778446777     1.007825032230
         H            3.631181920450    -2.416122076211     0.598720553223     1.007825032230
         H            2.921391920450     2.828485923789    -1.027311446777     1.007825032230
         H            2.085910920450     3.340274923789     0.443612553223     1.007825032230
         H            3.614644920450     2.451542923789     0.554807553223     1.007825032230
         H           -2.725330079550     0.664723923789     1.729084553223     1.007825032230

  Basis Set: AUG-CC-PVTZ
    Blend: AUG-CC-PVTZ
  Basis Set: (AUG-CC-PVTZ AUX)
    Blend: AUG-CC-PVTZ-JKFIT
	 Reference Energy          =    -931.0527440251836424 [Eh]
	 Singles Energy            =      -0.0000000000000000 [Eh]
	 Same-Spin Energy          =      -0.6219230959189823 [Eh]
	 Opposite-Spin Energy      =      -1.8688777009431301 [Eh]
	 Correlation Energy        =      -2.4908007968621124 [Eh]
	 Total Energy              =    -933.5435448220457602 [Eh]

	 ================> DF-SCS-MP2 Energies <==================
	-----------------------------------------------------------
	 SCS Same-Spin Scale       =       0.3333333333333333 [-]
	 SCS Opposite-Spin Scale   =       1.2000000000000000 [-]
	 SCS Same-Spin Energy      =      -0.2073076986396608 [Eh]
	 SCS Opposite-Spin Energy  =      -2.2426532411317561 [Eh]
	 SCS Correlation Energy    =      -2.4499609397714170 [Eh]
	 SCS Total Energy          =    -933.5027049649551145 [Eh]
	-----------------------------------------------------------

  Dipole Moment: [D]
     X:     3.8695      Y:     0.9441      Z:     1.9098     Total:     4.4172

*** Psi4 exiting successfully. Buy a developer a beer!
