                               Psi4 1.4a3.dev225

  ==> Input File <==

--------------------------------------------------------------------------
#psi4
#
memory 32 gb

molecule  {
0 1
  S       -1.9906940    -0.0125100    -0.1365530
  O       -2.3617000    -0.1700640     1.4590810
  O       -2.4286150    -1.2343840    -0.7923790
  O       -2.4725380     1.3090340    -0.5392830
  C       -0.2242900    -0.0021990    -0.0874500
  C        1.8486770    -1.2201060     0.0278510
  C        1.8399080     1.2326580     0.0087760
  C        0.4429230     1.2221080    -0.0627730
  C        0.4524940    -1.2213400    -0.0491660
  C        2.5197880     0.0092800     0.0551460
  C        2.6153160    -2.5166400     0.0331700
  C        2.5970370     2.5347130    -0.0106060
  H       -0.1225000     2.1495790    -0.1127420
  H       -0.1051200    -2.1541630    -0.0856740
  H        3.6080620     0.0137470     0.1195720
  H        1.9754697    -3.3908736     0.5331074
  H        2.8638720    -2.8264950    -0.9873940
  H        3.5515030    -2.4163920     0.5891050
  H        2.8417130     2.8282160    -1.0369270
  H        2.0062320     3.3400050     0.4339970
  H        3.5349660     2.4512730     0.5451920
  H       -2.8050090     0.6644540     1.7194690
units angstrom
no_reorient  #important for SAPT in psi4, default
symmetry c1  #important for SAPT in psi4, default
}

set PROPERTIES_ORIGIN ["COM"]
properties('MP2/aug-cc-pvtz', properties = ['dipole'])
--------------------------------------------------------------------------

    Molecular point group: c1
  Charge       = 0
  Multiplicity = 1
  Basis Set: AUG-CC-PVTZ
    Blend: AUG-CC-PVTZ
  Basis Set: (AUG-CC-PVTZ AUX)
    Blend: AUG-CC-PVTZ-JKFIT

    Orbital Energies [Eh]
    ---------------------

    Doubly Occupied:

       1A    -92.228906     2A    -20.628744     3A    -20.565115
       4A    -20.560859     5A    -11.286248     6A    -11.268011
       7A    -11.267838     8A    -11.263109     9A    -11.262290
      10A    -11.257863    11A    -11.251918    12A    -11.241768
      13A     -9.191811    14A     -6.877431    15A     -6.876132
      16A     -6.875893    17A     -1.492828    18A     -1.379179
      19A     -1.351550    20A     -1.188166    21A     -1.080987
      22A     -1.075409    23A     -0.960140    24A     -0.950641
      25A     -0.924254    26A     -0.819400    27A     -0.807886
      28A     -0.740207    29A     -0.722820    30A     -0.691365
      31A     -0.683458    32A     -0.670448    33A     -0.627916
      34A     -0.602346    35A     -0.599685    36A     -0.592220
      37A     -0.584259    38A     -0.574254    39A     -0.563936
      40A     -0.541081    41A     -0.537251    42A     -0.523704
      43A     -0.508107    44A     -0.505600    45A     -0.500130
      46A     -0.484105    47A     -0.473845    48A     -0.363714
      49A     -0.345149

  @DF-RHF Final Energy:  -931.05079549025584

   => Energetics <=

    Nuclear Repulsion Energy =            830.0703266960144902
    One-Electron Energy =               -2925.5022902194714334
    Two-Electron Energy =                1164.3811680332009928
    Total Energy =                       -931.0507954902559504
  Basis Set: (AUG-CC-PVTZ AUX)
    Blend: AUG-CC-PVTZ-RI
    Molecular point group: c1

    Geometry (in Angstrom), charge = 0, multiplicity = 1:

       Center              X                  Y                   Z               Mass
    ------------   -----------------  -----------------  -----------------  -----------------
         S           -1.898087043401    -0.008210210849    -0.127859457705    31.972071174400
         O           -2.269093043401    -0.165764210849     1.467774542295    15.994914619570
         O           -2.336008043401    -1.230084210849    -0.783685457705    15.994914619570
         O           -2.379931043401     1.313333789151    -0.530589457705    15.994914619570
         C           -0.131683043401     0.002100789151    -0.078756457705    12.000000000000
         C            1.941283956599    -1.215806210849     0.036544542295    12.000000000000
         C            1.932514956599     1.236957789151     0.017469542295    12.000000000000
         C            0.535529956599     1.226407789151    -0.054079457705    12.000000000000
         C            0.545100956599    -1.217040210849    -0.040472457705    12.000000000000
         C            2.612394956599     0.013579789151     0.063839542295    12.000000000000
         C            2.707922956599    -2.512340210849     0.041863542295    12.000000000000
         C            2.689643956599     2.539012789151    -0.001912457705    12.000000000000
         H           -0.029893043401     2.153878789151    -0.104048457705     1.007825032230
         H           -0.012513043401    -2.149863210849    -0.076980457705     1.007825032230
         H            3.700668956599     0.018046789151     0.128265542295     1.007825032230
         H            2.068076656599    -3.386573810849     0.541800942295     1.007825032230
         H            2.956478956599    -2.822195210849    -0.978700457705     1.007825032230
         H            3.644109956599    -2.412092210849     0.597798542295     1.007825032230
         H            2.934319956599     2.832515789151    -1.028233457705     1.007825032230
         H            2.098838956599     3.344304789151     0.442690542295     1.007825032230
         H            3.627572956599     2.455572789151     0.553885542295     1.007825032230
         H           -2.712402043401     0.668753789151     1.728162542295     1.007825032230

  Basis Set: AUG-CC-PVTZ
    Blend: AUG-CC-PVTZ
  Basis Set: (AUG-CC-PVTZ AUX)
    Blend: AUG-CC-PVTZ-JKFIT
	 Reference Energy          =    -931.0507954902558367 [Eh]
	 Singles Energy            =      -0.0000000000000000 [Eh]
	 Same-Spin Energy          =      -0.6213283972102553 [Eh]
	 Opposite-Spin Energy      =      -1.8684456227111355 [Eh]
	 Correlation Energy        =      -2.4897740199213909 [Eh]
	 Total Energy              =    -933.5405695101771926 [Eh]

	 ================> DF-SCS-MP2 Energies <==================
	-----------------------------------------------------------
	 SCS Same-Spin Scale       =       0.3333333333333333 [-]
	 SCS Opposite-Spin Scale   =       1.2000000000000000 [-]
	 SCS Same-Spin Energy      =      -0.2071094657367518 [Eh]
	 SCS Opposite-Spin Energy  =      -2.2421347472533624 [Eh]
	 SCS Correlation Energy    =      -2.4492442129901142 [Eh]
	 SCS Total Energy          =    -933.5000397032459887 [Eh]
	-----------------------------------------------------------

  Dipole Moment: [D]
     X:     4.4321      Y:     1.0561      Z:     1.8739     Total:     4.9265

*** Psi4 exiting successfully. Buy a developer a beer!
