                               Psi4 1.4a3.dev225

  ==> Input File <==

--------------------------------------------------------------------------
#psi4
#
memory 32 gb

molecule  {
0 1
  S       -1.9906940    -0.0125100    -0.1365530
  O       -2.3617000    -0.1700640     1.4590810
  O       -2.4286150    -1.2343840    -0.7923790
  O       -2.4725380     1.3090340    -0.5392830
  C       -0.2242900    -0.0021990    -0.0874500
  C        1.8486770    -1.2201060     0.0278510
  C        1.8399080     1.2326580     0.0087760
  C        0.4429230     1.2221080    -0.0627730
  C        0.4524940    -1.2213400    -0.0491660
  C        2.5197880     0.0092800     0.0551460
  C        2.6153160    -2.5166400     0.0331700
  C        2.5970370     2.5347130    -0.0106060
  H       -0.1225000     2.1495790    -0.1127420
  H       -0.1051200    -2.1541630    -0.0856740
  H        3.6080620     0.0137470     0.1195720
  H        1.9495010    -3.2966267     0.4117260
  H        2.8638720    -2.8264950    -0.9873940
  H        3.5515030    -2.4163920     0.5891050
  H        2.8417130     2.8282160    -1.0369270
  H        2.0062320     3.3400050     0.4339970
  H        3.5349660     2.4512730     0.5451920
  H       -2.8050090     0.6644540     1.7194690
units angstrom
no_reorient  #important for SAPT in psi4, default
symmetry c1  #important for SAPT in psi4, default
}

set PROPERTIES_ORIGIN ["COM"]
properties('MP2/aug-cc-pvtz', properties = ['dipole'])
--------------------------------------------------------------------------

    Molecular point group: c1
  Charge       = 0
  Multiplicity = 1
  Basis Set: AUG-CC-PVTZ
    Blend: AUG-CC-PVTZ
  Basis Set: (AUG-CC-PVTZ AUX)
    Blend: AUG-CC-PVTZ-JKFIT

    Orbital Energies [Eh]
    ---------------------

    Doubly Occupied:

       1A    -92.228819     2A    -20.628670     3A    -20.565007
       4A    -20.560825     5A    -11.286156     6A    -11.267403
       7A    -11.266682     8A    -11.262590     9A    -11.261997
      10A    -11.256720    11A    -11.241420    12A    -11.240752
      13A     -9.191724    14A     -6.877344    15A     -6.876045
      16A     -6.875807    17A     -1.492754    18A     -1.379113
      19A     -1.351480    20A     -1.187884    21A     -1.082073
      22A     -1.075468    23A     -0.962730    24A     -0.953570
      25A     -0.924100    26A     -0.819208    27A     -0.809321
      28A     -0.740077    29A     -0.722695    30A     -0.691369
      31A     -0.684292    32A     -0.671223    33A     -0.627993
      34A     -0.602033    35A     -0.598733    36A     -0.591851
      37A     -0.581798    38A     -0.576455    39A     -0.571254
      40A     -0.551537    41A     -0.537903    42A     -0.523479
      43A     -0.508092    44A     -0.505774    45A     -0.500509
      46A     -0.484054    47A     -0.473640    48A     -0.362973
      49A     -0.344642

  @DF-RHF Final Energy:  -931.05610678986523

   => Energetics <=

    Nuclear Repulsion Energy =            830.6357117620743793
    One-Electron Energy =               -2926.6275611788983042
    Two-Electron Energy =                1164.9357426269589268
    Total Energy =                       -931.0561067898652254
  Basis Set: (AUG-CC-PVTZ AUX)
    Blend: AUG-CC-PVTZ-RI
    Molecular point group: c1

    Geometry (in Angstrom), charge = 0, multiplicity = 1:

       Center              X                  Y                   Z               Mass
    ------------   -----------------  -----------------  -----------------  -----------------
         S           -1.897946360752    -0.008720783331    -0.127201886977    31.972071174400
         O           -2.268952360752    -0.166274783331     1.468432113023    15.994914619570
         O           -2.335867360752    -1.230594783331    -0.783027886977    15.994914619570
         O           -2.379790360752     1.312823216669    -0.529931886977    15.994914619570
         C           -0.131542360752     0.001590216669    -0.078098886977    12.000000000000
         C            1.941424639248    -1.216316783331     0.037202113023    12.000000000000
         C            1.932655639248     1.236447216669     0.018127113023    12.000000000000
         C            0.535670639248     1.225897216669    -0.053421886977    12.000000000000
         C            0.545241639248    -1.217550783331    -0.039814886977    12.000000000000
         C            2.612535639248     0.013069216669     0.064497113023    12.000000000000
         C            2.708063639248    -2.512850783331     0.042521113023    12.000000000000
         C            2.689784639248     2.538502216669    -0.001254886977    12.000000000000
         H           -0.029752360752     2.153368216669    -0.103390886977     1.007825032230
         H           -0.012372360752    -2.150373783331    -0.076322886977     1.007825032230
         H            3.700809639248     0.017536216669     0.128923113023     1.007825032230
         H            2.042248639248    -3.292837483331     0.421077113023     1.007825032230
         H            2.956619639248    -2.822705783331    -0.978042886977     1.007825032230
         H            3.644250639248    -2.412602783331     0.598456113023     1.007825032230
         H            2.934460639248     2.832005216669    -1.027575886977     1.007825032230
         H            2.098979639248     3.343794216669     0.443348113023     1.007825032230
         H            3.627713639248     2.455062216669     0.554543113023     1.007825032230
         H           -2.712261360752     0.668243216669     1.728820113023     1.007825032230

  Basis Set: AUG-CC-PVTZ
    Blend: AUG-CC-PVTZ
  Basis Set: (AUG-CC-PVTZ AUX)
    Blend: AUG-CC-PVTZ-JKFIT
	 Reference Energy          =    -931.0561067898652254 [Eh]
	 Singles Energy            =      -0.0000000000000000 [Eh]
	 Same-Spin Energy          =      -0.6214201626328058 [Eh]
	 Opposite-Spin Energy      =      -1.8678435098712609 [Eh]
	 Correlation Energy        =      -2.4892636725040669 [Eh]
	 Total Energy              =    -933.5453704623693056 [Eh]

	 ================> DF-SCS-MP2 Energies <==================
	-----------------------------------------------------------
	 SCS Same-Spin Scale       =       0.3333333333333333 [-]
	 SCS Opposite-Spin Scale   =       1.2000000000000000 [-]
	 SCS Same-Spin Energy      =      -0.2071400542109352 [Eh]
	 SCS Opposite-Spin Energy  =      -2.2414122118455131 [Eh]
	 SCS Correlation Energy    =      -2.4485522660564483 [Eh]
	 SCS Total Energy          =    -933.5046590559217066 [Eh]
	-----------------------------------------------------------

  Dipole Moment: [D]
     X:     4.4252      Y:     1.0075      Z:     1.8566     Total:     4.9035

*** Psi4 exiting successfully. Buy a developer a beer!
