                               Psi4 1.4a3.dev225

  ==> Input File <==

--------------------------------------------------------------------------
#psi4
#
memory 32 gb

molecule  {
0 1
  S       -1.9906940    -0.0125100    -0.1365530
  O       -2.3617000    -0.1700640     1.4590810
  O       -2.4286150    -1.2343840    -0.7923790
  O       -2.4725380     1.3090340    -0.5392830
  C       -0.2242900    -0.0021990    -0.0874500
  C        1.8486770    -1.2201060     0.0278510
  C        1.8399080     1.2326580     0.0087760
  C        0.4429230     1.2221080    -0.0627730
  C        0.4524940    -1.2213400    -0.0491660
  C        2.6155993     0.1847936     0.0590428
  C        2.6153160    -2.5166400     0.0331700
  C        2.5970370     2.5347130    -0.0106060
  H       -0.1225000     2.1495790    -0.1127420
  H       -0.1051200    -2.1541630    -0.0856740
  H        3.6080620     0.0137470     0.1195720
  H        2.0290960    -3.3176030     0.4912070
  H        2.8638720    -2.8264950    -0.9873940
  H        3.5515030    -2.4163920     0.5891050
  H        2.8417130     2.8282160    -1.0369270
  H        2.0062320     3.3400050     0.4339970
  H        3.5349660     2.4512730     0.5451920
  H       -2.8050090     0.6644540     1.7194690
units angstrom
no_reorient  #important for SAPT in psi4, default
symmetry c1  #important for SAPT in psi4, default
}

set PROPERTIES_ORIGIN ["COM"]
properties('MP2/aug-cc-pvtz', properties = ['dipole'])
--------------------------------------------------------------------------

    Molecular point group: c1
  Charge       = 0
  Multiplicity = 1
  Basis Set: AUG-CC-PVTZ
    Blend: AUG-CC-PVTZ
  Basis Set: (AUG-CC-PVTZ AUX)
    Blend: AUG-CC-PVTZ-JKFIT

    Orbital Energies [Eh]
    ---------------------

    Doubly Occupied:

       1A    -92.229710     2A    -20.629456     3A    -20.565460
       4A    -20.562020     5A    -11.289374     6A    -11.282485
       7A    -11.268188     8A    -11.258563     9A    -11.256465
      10A    -11.255709    11A    -11.241774    12A    -11.236079
      13A     -9.192637    14A     -6.878255    15A     -6.876971
      16A     -6.876706    17A     -1.493543    18A     -1.379880
      19A     -1.352203    20A     -1.184286    21A     -1.092551
      22A     -1.064555    23A     -0.957986    24A     -0.953225
      25A     -0.929176    26A     -0.823730    27A     -0.799963
      28A     -0.741517    29A     -0.725078    30A     -0.703651
      31A     -0.687035    32A     -0.667653    33A     -0.630144
      34A     -0.599625    35A     -0.597665    36A     -0.590761
      37A     -0.586593    38A     -0.584569    39A     -0.570309
      40A     -0.552291    41A     -0.544671    42A     -0.523844
      43A     -0.507886    44A     -0.500121    45A     -0.485585
      46A     -0.479462    47A     -0.464156    48A     -0.373571
      49A     -0.334405

  @DF-RHF Final Energy:  -931.01494515274180

   => Energetics <=

    Nuclear Repulsion Energy =            828.7820476392566889
    One-Electron Energy =               -2922.8308974547826438
    Two-Electron Energy =                1163.0339046627841526
    Total Energy =                       -931.0149451527418023
  Basis Set: (AUG-CC-PVTZ AUX)
    Blend: AUG-CC-PVTZ-RI
    Molecular point group: c1

    Geometry (in Angstrom), charge = 0, multiplicity = 1:

       Center              X                  Y                   Z               Mass
    ------------   -----------------  -----------------  -----------------  -----------------
         S           -1.904557767215    -0.019928470203    -0.127883825842    31.972071174400
         O           -2.275563767215    -0.177482470203     1.467750174158    15.994914619570
         O           -2.342478767215    -1.241802470203    -0.783709825842    15.994914619570
         O           -2.386401767215     1.301615529797    -0.530613825842    15.994914619570
         C           -0.138153767215    -0.009617470203    -0.078780825842    12.000000000000
         C            1.934813232785    -1.227524470203     0.036520174158    12.000000000000
         C            1.926044232785     1.225239529797     0.017445174158    12.000000000000
         C            0.529059232785     1.214689529797    -0.054103825842    12.000000000000
         C            0.538630232785    -1.228758470203    -0.040496825842    12.000000000000
         C            2.701735532785     0.177375129797     0.067711974158    12.000000000000
         C            2.701452232785    -2.524058470203     0.041839174158    12.000000000000
         C            2.683173232785     2.527294529797    -0.001936825842    12.000000000000
         H           -0.036363767215     2.142160529797    -0.104072825842     1.007825032230
         H           -0.018983767215    -2.161581470203    -0.077004825842     1.007825032230
         H            3.694198232785     0.006328529797     0.128241174158     1.007825032230
         H            2.115232232785    -3.325021470203     0.499876174158     1.007825032230
         H            2.950008232785    -2.833913470203    -0.978724825842     1.007825032230
         H            3.637639232785    -2.423810470203     0.597774174158     1.007825032230
         H            2.927849232785     2.820797529797    -1.028257825842     1.007825032230
         H            2.092368232785     3.332586529797     0.442666174158     1.007825032230
         H            3.621102232785     2.443854529797     0.553861174158     1.007825032230
         H           -2.718872767215     0.657035529797     1.728138174158     1.007825032230

  Basis Set: AUG-CC-PVTZ
    Blend: AUG-CC-PVTZ
  Basis Set: (AUG-CC-PVTZ AUX)
    Blend: AUG-CC-PVTZ-JKFIT
	 Reference Energy          =    -931.0149451527418023 [Eh]
	 Singles Energy            =      -0.0000000000000000 [Eh]
	 Same-Spin Energy          =      -0.6209862943901501 [Eh]
	 Opposite-Spin Energy      =      -1.8700491981375462 [Eh]
	 Correlation Energy        =      -2.4910354925276961 [Eh]
	 Total Energy              =    -933.5059806452694602 [Eh]

	 ================> DF-SCS-MP2 Energies <==================
	-----------------------------------------------------------
	 SCS Same-Spin Scale       =       0.3333333333333333 [-]
	 SCS Opposite-Spin Scale   =       1.2000000000000000 [-]
	 SCS Same-Spin Energy      =      -0.2069954314633833 [Eh]
	 SCS Opposite-Spin Energy  =      -2.2440590377650556 [Eh]
	 SCS Correlation Energy    =      -2.4510544692284388 [Eh]
	 SCS Total Energy          =    -933.4659996219702407 [Eh]
	-----------------------------------------------------------

  Dipole Moment: [D]
     X:     4.4085      Y:     0.8386      Z:     1.8920     Total:     4.8701

*** Psi4 exiting successfully. Buy a developer a beer!
