                               Psi4 1.4a3.dev225

  ==> Input File <==

--------------------------------------------------------------------------
#psi4
#
memory 32 gb

molecule  {
0 1
  S       -1.9906940    -0.0125100    -0.1365530
  O       -2.3617000    -0.1700640     1.4590810
  O       -2.4286150    -1.2343840    -0.7923790
  O       -2.4725380     1.3090340    -0.5392830
  C       -0.2242900    -0.0021990    -0.0874500
  C        1.8486770    -1.2201060     0.0278510
  C        1.8399080     1.2326580     0.0087760
  C        0.4229497     1.2219572    -0.0637960
  C        0.4524940    -1.2213400    -0.0491660
  C        2.5197880     0.0092800     0.0551460
  C        2.6153160    -2.5166400     0.0331700
  C        2.5970370     2.5347130    -0.0106060
  H       -0.1225000     2.1495790    -0.1127420
  H       -0.1051200    -2.1541630    -0.0856740
  H        3.6080620     0.0137470     0.1195720
  H        2.0290960    -3.3176030     0.4912070
  H        2.8638720    -2.8264950    -0.9873940
  H        3.5515030    -2.4163920     0.5891050
  H        2.8417130     2.8282160    -1.0369270
  H        2.0062320     3.3400050     0.4339970
  H        3.5349660     2.4512730     0.5451920
  H       -2.8050090     0.6644540     1.7194690
units angstrom
no_reorient  #important for SAPT in psi4, default
symmetry c1  #important for SAPT in psi4, default
}

set PROPERTIES_ORIGIN ["COM"]
properties('MP2/aug-cc-pvtz', properties = ['dipole'])
--------------------------------------------------------------------------

    Molecular point group: c1
  Charge       = 0
  Multiplicity = 1
  Basis Set: AUG-CC-PVTZ
    Blend: AUG-CC-PVTZ
  Basis Set: (AUG-CC-PVTZ AUX)
    Blend: AUG-CC-PVTZ-JKFIT

    Orbital Energies [Eh]
    ---------------------

    Doubly Occupied:

       1A    -92.228222     2A    -20.628472     3A    -20.564842
       4A    -20.560400     5A    -11.285799     6A    -11.269922
       7A    -11.267378     8A    -11.263495     9A    -11.261248
      10A    -11.256710    11A    -11.241855    12A    -11.240359
      13A     -9.191215    14A     -6.876825    15A     -6.875514
      16A     -6.875294    17A     -1.492550    18A     -1.378901
      19A     -1.351250    20A     -1.187143    21A     -1.080374
      22A     -1.076472    23A     -0.962366    24A     -0.954209
      25A     -0.923451    26A     -0.817968    27A     -0.810480
      28A     -0.739912    29A     -0.723694    30A     -0.690761
      31A     -0.684007    32A     -0.670165    33A     -0.627634
      34A     -0.603737    35A     -0.600680    36A     -0.592099
      37A     -0.585356    38A     -0.574366    39A     -0.569475
      40A     -0.548517    41A     -0.536852    42A     -0.523509
      43A     -0.509720    44A     -0.506523    45A     -0.500660
      46A     -0.483803    47A     -0.472357    48A     -0.364648
      49A     -0.342944

  @DF-RHF Final Energy:  -931.05689253567812

   => Energetics <=

    Nuclear Repulsion Energy =            830.4831290207948769
    One-Electron Energy =               -2926.3317751339459392
    Two-Electron Energy =                1164.7917535774729458
    Total Energy =                       -931.0568925356781165
  Basis Set: (AUG-CC-PVTZ AUX)
    Blend: AUG-CC-PVTZ-RI
    Molecular point group: c1

    Geometry (in Angstrom), charge = 0, multiplicity = 1:

       Center              X                  Y                   Z               Mass
    ------------   -----------------  -----------------  -----------------  -----------------
         S           -1.897089201021    -0.008597419275    -0.127566479218    31.972071174400
         O           -2.268095201021    -0.166151419275     1.468067520782    15.994914619570
         O           -2.335010201021    -1.230471419275    -0.783392479218    15.994914619570
         O           -2.378933201021     1.312946580725    -0.530296479218    15.994914619570
         C           -0.130685201021     0.001713580725    -0.078463479218    12.000000000000
         C            1.942281798979    -1.216193419275     0.036837520782    12.000000000000
         C            1.933512798979     1.236570580725     0.017762520782    12.000000000000
         C            0.516554498979     1.225869780725    -0.054809479218    12.000000000000
         C            0.546098798979    -1.217427419275    -0.040179479218    12.000000000000
         C            2.613392798979     0.013192580725     0.064132520782    12.000000000000
         C            2.708920798979    -2.512727419275     0.042156520782    12.000000000000
         C            2.690641798979     2.538625580725    -0.001619479218    12.000000000000
         H           -0.028895201021     2.153491580725    -0.103755479218     1.007825032230
         H           -0.011515201021    -2.150250419275    -0.076687479218     1.007825032230
         H            3.701666798979     0.017659580725     0.128558520782     1.007825032230
         H            2.122700798979    -3.313690419275     0.500193520782     1.007825032230
         H            2.957476798979    -2.822582419275    -0.978407479218     1.007825032230
         H            3.645107798979    -2.412479419275     0.598091520782     1.007825032230
         H            2.935317798979     2.832128580725    -1.027940479218     1.007825032230
         H            2.099836798979     3.343917580725     0.442983520782     1.007825032230
         H            3.628570798979     2.455185580725     0.554178520782     1.007825032230
         H           -2.711404201021     0.668366580725     1.728455520782     1.007825032230

  Basis Set: AUG-CC-PVTZ
    Blend: AUG-CC-PVTZ
  Basis Set: (AUG-CC-PVTZ AUX)
    Blend: AUG-CC-PVTZ-JKFIT
	 Reference Energy          =    -931.0568925356781165 [Eh]
	 Singles Energy            =      -0.0000000000000000 [Eh]
	 Same-Spin Energy          =      -0.6212832195835107 [Eh]
	 Opposite-Spin Energy      =      -1.8676990666001350 [Eh]
	 Correlation Energy        =      -2.4889822861836457 [Eh]
	 Total Energy              =    -933.5458748218617302 [Eh]

	 ================> DF-SCS-MP2 Energies <==================
	-----------------------------------------------------------
	 SCS Same-Spin Scale       =       0.3333333333333333 [-]
	 SCS Opposite-Spin Scale   =       1.2000000000000000 [-]
	 SCS Same-Spin Energy      =      -0.2070944065278369 [Eh]
	 SCS Opposite-Spin Energy  =      -2.2412388799201617 [Eh]
	 SCS Correlation Energy    =      -2.4483332864479985 [Eh]
	 SCS Total Energy          =    -933.5052258221261354 [Eh]
	-----------------------------------------------------------

  Dipole Moment: [D]
     X:     4.4449      Y:     1.0204      Z:     1.8886     Total:     4.9361

*** Psi4 exiting successfully. Buy a developer a beer!
