                               Psi4 1.4a3.dev225

  ==> Input File <==

--------------------------------------------------------------------------
#psi4
#
memory 32 gb

molecule  {
0 1
  S       -1.9906940    -0.0125100    -0.1365530
  O       -2.3617000    -0.1700640     1.4590810
  O       -2.4286150    -1.2343840    -0.7923790
  O       -2.4725380     1.3090340    -0.5392830
  C       -0.2242900    -0.0021990    -0.0874500
  C        1.8486770    -1.2201060     0.0278510
  C        1.8399080     1.2326580     0.0087760
  C        0.4429230     1.2221080    -0.0627730
  C        0.4524940    -1.2213400    -0.0491660
  C        2.4958352    -0.0345984     0.0541718
  C        2.6153160    -2.5166400     0.0331700
  C        2.5970370     2.5347130    -0.0106060
  H       -0.1225000     2.1495790    -0.1127420
  H       -0.1051200    -2.1541630    -0.0856740
  H        3.6080620     0.0137470     0.1195720
  H        2.0290960    -3.3176030     0.4912070
  H        2.8638720    -2.8264950    -0.9873940
  H        3.5515030    -2.4163920     0.5891050
  H        2.8417130     2.8282160    -1.0369270
  H        2.0062320     3.3400050     0.4339970
  H        3.5349660     2.4512730     0.5451920
  H       -2.8050090     0.6644540     1.7194690
units angstrom
no_reorient  #important for SAPT in psi4, default
symmetry c1  #important for SAPT in psi4, default
}

set PROPERTIES_ORIGIN ["COM"]
properties('MP2/aug-cc-pvtz', properties = ['dipole'])
--------------------------------------------------------------------------

    Molecular point group: c1
  Charge       = 0
  Multiplicity = 1
  Basis Set: AUG-CC-PVTZ
    Blend: AUG-CC-PVTZ
  Basis Set: (AUG-CC-PVTZ AUX)
    Blend: AUG-CC-PVTZ-JKFIT

    Orbital Energies [Eh]
    ---------------------

    Doubly Occupied:

       1A    -92.228661     2A    -20.628553     3A    -20.564973
       4A    -20.560535     5A    -11.285540     6A    -11.270112
       7A    -11.264011     8A    -11.261334     9A    -11.261007
      10A    -11.256351    11A    -11.242932    12A    -11.239847
      13A     -9.191560    14A     -6.877181    15A     -6.875878
      16A     -6.875646    17A     -1.492613    18A     -1.378978
      19A     -1.351338    20A     -1.190294    21A     -1.084488
      22A     -1.074207    23A     -0.963824    24A     -0.953840
      25A     -0.923193    26A     -0.819165    27A     -0.811590
      28A     -0.740024    29A     -0.722518    30A     -0.690547
      31A     -0.681408    32A     -0.671268    33A     -0.627497
      34A     -0.603611    35A     -0.601605    36A     -0.591894
      37A     -0.585682    38A     -0.573006    39A     -0.568578
      40A     -0.548481    41A     -0.534747    42A     -0.523719
      43A     -0.509731    44A     -0.506572    45A     -0.500974
      46A     -0.483989    47A     -0.472860    48A     -0.366739
      49A     -0.344138

  @DF-RHF Final Energy:  -931.05441255711264

   => Energetics <=

    Nuclear Repulsion Energy =            830.9808764061782540
    One-Electron Energy =               -2927.3160994732288600
    Two-Electron Energy =                1165.2808105099381919
    Total Energy =                       -931.0544125571125278
  Basis Set: (AUG-CC-PVTZ AUX)
    Blend: AUG-CC-PVTZ-RI
    Molecular point group: c1

    Geometry (in Angstrom), charge = 0, multiplicity = 1:

       Center              X                  Y                   Z               Mass
    ------------   -----------------  -----------------  -----------------  -----------------
         S           -1.896832507478    -0.005776815541    -0.127569627011    31.972071174400
         O           -2.267838507478    -0.163330815541     1.468064372989    15.994914619570
         O           -2.334753507478    -1.227650815541    -0.783395627011    15.994914619570
         O           -2.378676507478     1.315767184459    -0.530299627011    15.994914619570
         C           -0.130428507478     0.004534184459    -0.078466627011    12.000000000000
         C            1.942538492522    -1.213372815541     0.036834372989    12.000000000000
         C            1.933769492522     1.239391184459     0.017759372989    12.000000000000
         C            0.536784492522     1.228841184459    -0.053789627011    12.000000000000
         C            0.546355492522    -1.214606815541    -0.040182627011    12.000000000000
         C            2.589696692522    -0.027865215541     0.063155172989    12.000000000000
         C            2.709177492522    -2.509906815541     0.042153372989    12.000000000000
         C            2.690898492522     2.541446184459    -0.001622627011    12.000000000000
         H           -0.028638507478     2.156312184459    -0.103758627011     1.007825032230
         H           -0.011258507478    -2.147429815541    -0.076690627011     1.007825032230
         H            3.701923492522     0.020480184459     0.128555372989     1.007825032230
         H            2.122957492522    -3.310869815541     0.500190372989     1.007825032230
         H            2.957733492522    -2.819761815541    -0.978410627011     1.007825032230
         H            3.645364492522    -2.409658815541     0.598088372989     1.007825032230
         H            2.935574492522     2.834949184459    -1.027943627011     1.007825032230
         H            2.100093492522     3.346738184459     0.442980372989     1.007825032230
         H            3.628827492522     2.458006184459     0.554175372989     1.007825032230
         H           -2.711147507478     0.671187184459     1.728452372989     1.007825032230

  Basis Set: AUG-CC-PVTZ
    Blend: AUG-CC-PVTZ
  Basis Set: (AUG-CC-PVTZ AUX)
    Blend: AUG-CC-PVTZ-JKFIT
	 Reference Energy          =    -931.0544125571126415 [Eh]
	 Singles Energy            =      -0.0000000000000000 [Eh]
	 Same-Spin Energy          =      -0.6212837323396831 [Eh]
	 Opposite-Spin Energy      =      -1.8677168305296259 [Eh]
	 Correlation Energy        =      -2.4890005628693093 [Eh]
	 Total Energy              =    -933.5434131199820058 [Eh]

	 ================> DF-SCS-MP2 Energies <==================
	-----------------------------------------------------------
	 SCS Same-Spin Scale       =       0.3333333333333333 [-]
	 SCS Opposite-Spin Scale   =       1.2000000000000000 [-]
	 SCS Same-Spin Energy      =      -0.2070945774465610 [Eh]
	 SCS Opposite-Spin Energy  =      -2.2412601966355510 [Eh]
	 SCS Correlation Energy    =      -2.4483547740821119 [Eh]
	 SCS Total Energy          =    -933.5027673311947183 [Eh]
	-----------------------------------------------------------

  Dipole Moment: [D]
     X:     4.4165      Y:     1.0566      Z:     1.8888     Total:     4.9183

*** Psi4 exiting successfully. Buy a developer a beer!
