                               Psi4 1.4a3.dev225

  ==> Input File <==

--------------------------------------------------------------------------
#psi4
#
memory 32 gb

molecule  {
0 1
  S       -1.9906940    -0.0125100    -0.1365530
  O       -2.3617000    -0.1700640     1.4590810
  O       -2.4286150    -1.2343840    -0.7923790
  O       -2.4725380     1.3090340    -0.5392830
  C       -0.2242900    -0.0021990    -0.0874500
  C        1.8486770    -1.2201060     0.0278510
  C        1.8399080     1.2326580     0.0087760
  C        0.4429230     1.2221080    -0.0627730
  C        0.4524940    -1.2213400    -0.0491660
  C        2.5197880     0.0092800     0.0551460
  C        2.6153160    -2.5166400     0.0331700
  C        2.5970370     2.5347130    -0.0106060
  H       -0.1225000     2.1495790    -0.1127420
  H       -0.1051200    -2.1541630    -0.0856740
  H        3.6080620     0.0137470     0.1195720
  H        2.0290960    -3.3176030     0.4912070
  H        2.8638720    -2.8264950    -0.9873940
  H        3.5515030    -2.4163920     0.5891050
  H        2.8417130     2.8282160    -1.0369270
  H        2.0062320     3.3400050     0.4339970
  H        3.5349660     2.4512730     0.5451920
  H       -2.8954640     0.8347332     1.7725999
units angstrom
no_reorient  #important for SAPT in psi4, default
symmetry c1  #important for SAPT in psi4, default
}

set PROPERTIES_ORIGIN ["COM"]
properties('MP2/aug-cc-pvtz', properties = ['dipole'])
--------------------------------------------------------------------------

    Molecular point group: c1
  Charge       = 0
  Multiplicity = 1
  Basis Set: AUG-CC-PVTZ
    Blend: AUG-CC-PVTZ
  Basis Set: (AUG-CC-PVTZ AUX)
    Blend: AUG-CC-PVTZ-JKFIT

    Orbital Energies [Eh]
    ---------------------

    Doubly Occupied:

       1A    -92.225052     2A    -20.637042     3A    -20.561757
       4A    -20.558401     5A    -11.284547     6A    -11.266324
       7A    -11.265932     8A    -11.261402     9A    -11.260590
      10A    -11.255864    11A    -11.240774    12A    -11.239454
      13A     -9.188006    14A     -6.873577    15A     -6.872349
      16A     -6.872122    17A     -1.482268    18A     -1.351472
      19A     -1.347840    20A     -1.186435    21A     -1.080530
      22A     -1.073191    23A     -0.961067    24A     -0.952611
      25A     -0.915061    26A     -0.809100    27A     -0.805968
      28A     -0.724396    29A     -0.708588    30A     -0.686822
      31A     -0.681043    32A     -0.663093    33A     -0.614827
      34A     -0.601209    35A     -0.599804    36A     -0.590572
      37A     -0.584471    38A     -0.570566    39A     -0.565261
      40A     -0.546990    41A     -0.535973    42A     -0.519854
      43A     -0.506962    44A     -0.503089    45A     -0.498215
      46A     -0.479730    47A     -0.471001    48A     -0.361711
      49A     -0.343869

  @DF-RHF Final Energy:  -931.02253520240242

   => Energetics <=

    Nuclear Repulsion Energy =            829.2554681263254679
    One-Electron Energy =               -2924.1824383689395290
    Two-Electron Energy =                1163.9044350402116379
    Total Energy =                       -931.0225352024024232
  Basis Set: (AUG-CC-PVTZ AUX)
    Blend: AUG-CC-PVTZ-RI
    Molecular point group: c1

    Geometry (in Angstrom), charge = 0, multiplicity = 1:

       Center              X                  Y                   Z               Mass
    ------------   -----------------  -----------------  -----------------  -----------------
         S           -1.897887527865    -0.009529615793    -0.127920297735    31.972071174400
         O           -2.268893527865    -0.167083615793     1.467713702265    15.994914619570
         O           -2.335808527865    -1.231403615793    -0.783746297735    15.994914619570
         O           -2.379731527865     1.312014384207    -0.530650297735    15.994914619570
         C           -0.131483527865     0.000781384207    -0.078817297735    12.000000000000
         C            1.941483472135    -1.217125615793     0.036483702265    12.000000000000
         C            1.932714472135     1.235638384207     0.017408702265    12.000000000000
         C            0.535729472135     1.225088384207    -0.054140297735    12.000000000000
         C            0.545300472135    -1.218359615793    -0.040533297735    12.000000000000
         C            2.612594472135     0.012260384207     0.063778702265    12.000000000000
         C            2.708122472135    -2.513659615793     0.041802702265    12.000000000000
         C            2.689843472135     2.537693384207    -0.001973297735    12.000000000000
         H           -0.029693527865     2.152559384207    -0.104109297735     1.007825032230
         H           -0.012313527865    -2.151182615793    -0.077041297735     1.007825032230
         H            3.700868472135     0.016727384207     0.128204702265     1.007825032230
         H            2.121902472135    -3.314622615793     0.499839702265     1.007825032230
         H            2.956678472135    -2.823514615793    -0.978761297735     1.007825032230
         H            3.644309472135    -2.413411615793     0.597737702265     1.007825032230
         H            2.934519472135     2.831196384207    -1.028294297735     1.007825032230
         H            2.099038472135     3.342985384207     0.442629702265     1.007825032230
         H            3.627772472135     2.454253384207     0.553824702265     1.007825032230
         H           -2.802657527865     0.837713584207     1.781232602265     1.007825032230

  Basis Set: AUG-CC-PVTZ
    Blend: AUG-CC-PVTZ
  Basis Set: (AUG-CC-PVTZ AUX)
    Blend: AUG-CC-PVTZ-JKFIT
	 Reference Energy          =    -931.0225352024024232 [Eh]
	 Singles Energy            =      -0.0000000000000000 [Eh]
	 Same-Spin Energy          =      -0.6237869902921712 [Eh]
	 Opposite-Spin Energy      =      -1.8739576807155265 [Eh]
	 Correlation Energy        =      -2.4977446710076978 [Eh]
	 Total Energy              =    -933.5202798734101179 [Eh]

	 ================> DF-SCS-MP2 Energies <==================
	-----------------------------------------------------------
	 SCS Same-Spin Scale       =       0.3333333333333333 [-]
	 SCS Opposite-Spin Scale   =       1.2000000000000000 [-]
	 SCS Same-Spin Energy      =      -0.2079289967640571 [Eh]
	 SCS Opposite-Spin Energy  =      -2.2487492168586316 [Eh]
	 SCS Correlation Energy    =      -2.4566782136226886 [Eh]
	 SCS Total Energy          =    -933.4792134160251180 [Eh]
	-----------------------------------------------------------

  Dipole Moment: [D]
     X:     4.2300      Y:     1.2101      Z:     2.0507     Total:     4.8541

*** Psi4 exiting successfully. Buy a developer a beer!
