                               Psi4 1.4a3.dev225

  ==> Input File <==

--------------------------------------------------------------------------
#psi4
#
memory 32 gb

molecule  {
0 1
  S       -1.9906940    -0.0125100    -0.1365530
  O       -2.3617000    -0.1700640     1.4590810
  O       -2.4286150    -1.2343840    -0.7923790
  O       -2.4725380     1.3090340    -0.5392830
  C       -0.2242900    -0.0021990    -0.0874500
  C        1.8486770    -1.2201060     0.0278510
  C        1.8399080     1.2326580     0.0087760
  C        0.4429230     1.2221080    -0.0627730
  C        0.4524940    -1.2213400    -0.0491660
  C        2.5197880     0.0092800     0.0551460
  C        2.6153160    -2.5166400     0.0331700
  C        2.5970370     2.5347130    -0.0106060
  H       -0.1225000     2.1495790    -0.1127420
  H       -0.1051200    -2.1541630    -0.0856740
  H        3.6080620     0.0137470     0.1195720
  H        2.0290960    -3.3176030     0.4912070
  H        2.8638720    -2.8264950    -0.9873940
  H        3.5515030    -2.4163920     0.5891050
  H        2.8417130     2.8282160    -1.0369270
  H        2.0062320     3.3400050     0.4339970
  H        3.5349660     2.4512730     0.5451920
  H       -2.8140545     0.6814819     1.7247821
units angstrom
no_reorient  #important for SAPT in psi4, default
symmetry c1  #important for SAPT in psi4, default
}

set PROPERTIES_ORIGIN ["COM"]
properties('MP2/aug-cc-pvtz', properties = ['dipole'])
--------------------------------------------------------------------------

    Molecular point group: c1
  Charge       = 0
  Multiplicity = 1
  Basis Set: AUG-CC-PVTZ
    Blend: AUG-CC-PVTZ
  Basis Set: (AUG-CC-PVTZ AUX)
    Blend: AUG-CC-PVTZ-JKFIT

    Orbital Energies [Eh]
    ---------------------

    Doubly Occupied:

       1A    -92.228398     2A    -20.629866     3A    -20.564650
       4A    -20.560523     5A    -11.285910     6A    -11.267331
       7A    -11.267000     8A    -11.262646     9A    -11.261904
      10A    -11.256986    11A    -11.241406    12A    -11.240268
      13A     -9.191309    14A     -6.876923    15A     -6.875631
      16A     -6.875395    17A     -1.491272    18A     -1.375618
      19A     -1.351168    20A     -1.187731    21A     -1.081519
      22A     -1.075195    23A     -0.962286    24A     -0.953629
      25A     -0.922869    26A     -0.817455    27A     -0.809727
      28A     -0.737454    29A     -0.722222    30A     -0.690787
      31A     -0.683428    32A     -0.670068    33A     -0.626843
      34A     -0.602340    35A     -0.600751    36A     -0.591660
      37A     -0.585239    38A     -0.573786    39A     -0.569001
      40A     -0.547920    41A     -0.537442    42A     -0.523200
      43A     -0.508150    44A     -0.506474    45A     -0.500604
      46A     -0.483598    47A     -0.473345    48A     -0.363137
      49A     -0.344930

  @DF-RHF Final Energy:  -931.05584915322856

   => Energetics <=

    Nuclear Repulsion Energy =            830.3385417360701695
    One-Electron Energy =               -2926.0747952561887359
    Two-Electron Energy =                1164.6804043668901159
    Total Energy =                       -931.0558491532285643
  Basis Set: (AUG-CC-PVTZ AUX)
    Blend: AUG-CC-PVTZ-RI
    Molecular point group: c1

    Geometry (in Angstrom), charge = 0, multiplicity = 1:

       Center              X                  Y                   Z               Mass
    ------------   -----------------  -----------------  -----------------  -----------------
         S           -1.898328555108    -0.008699393297    -0.127661249928    31.972071174400
         O           -2.269334555108    -0.166253393297     1.467972750072    15.994914619570
         O           -2.336249555108    -1.230573393297    -0.783487249928    15.994914619570
         O           -2.380172555108     1.312844606703    -0.530391249928    15.994914619570
         C           -0.131924555108     0.001611606703    -0.078558249928    12.000000000000
         C            1.941042444892    -1.216295393297     0.036742750072    12.000000000000
         C            1.932273444892     1.236468606703     0.017667750072    12.000000000000
         C            0.535288444892     1.225918606703    -0.053881249928    12.000000000000
         C            0.544859444892    -1.217529393297    -0.040274249928    12.000000000000
         C            2.612153444892     0.013090606703     0.064037750072    12.000000000000
         C            2.707681444892    -2.512829393297     0.042061750072    12.000000000000
         C            2.689402444892     2.538523606703    -0.001714249928    12.000000000000
         H           -0.030134555108     2.153389606703    -0.103850249928     1.007825032230
         H           -0.012754555108    -2.150352393297    -0.076782249928     1.007825032230
         H            3.700427444892     0.017557606703     0.128463750072     1.007825032230
         H            2.121461444892    -3.313792393297     0.500098750072     1.007825032230
         H            2.956237444892    -2.822684393297    -0.978502249928     1.007825032230
         H            3.643868444892    -2.412581393297     0.597996750072     1.007825032230
         H            2.934078444892     2.832026606703    -1.028035249928     1.007825032230
         H            2.098597444892     3.343815606703     0.442888750072     1.007825032230
         H            3.627331444892     2.455083606703     0.554083750072     1.007825032230
         H           -2.721689055108     0.685292506703     1.733673850072     1.007825032230

  Basis Set: AUG-CC-PVTZ
    Blend: AUG-CC-PVTZ
  Basis Set: (AUG-CC-PVTZ AUX)
    Blend: AUG-CC-PVTZ-JKFIT
	 Reference Energy          =    -931.0558491532285643 [Eh]
	 Singles Energy            =      -0.0000000000000000 [Eh]
	 Same-Spin Energy          =      -0.6215540139251967 [Eh]
	 Opposite-Spin Energy      =      -1.8682662474857397 [Eh]
	 Correlation Energy        =      -2.4898202614109364 [Eh]
	 Total Energy              =    -933.5456694146395193 [Eh]

	 ================> DF-SCS-MP2 Energies <==================
	-----------------------------------------------------------
	 SCS Same-Spin Scale       =       0.3333333333333333 [-]
	 SCS Opposite-Spin Scale   =       1.2000000000000000 [-]
	 SCS Same-Spin Energy      =      -0.2071846713083989 [Eh]
	 SCS Opposite-Spin Energy  =      -2.2419194969828875 [Eh]
	 SCS Correlation Energy    =      -2.4491041682912864 [Eh]
	 SCS Total Energy          =    -933.5049533215199062 [Eh]
	-----------------------------------------------------------

  Dipole Moment: [D]
     X:     4.4080      Y:     1.0231      Z:     1.9073     Total:     4.9107

*** Psi4 exiting successfully. Buy a developer a beer!
