                               Psi4 1.4a3.dev225

  ==> Input File <==

--------------------------------------------------------------------------
#psi4
#
memory 32 gb

molecule  {
0 1
  S       -1.9906940    -0.0125100    -0.1365530
  O       -2.3617000    -0.1700640     1.4590810
  O       -2.4286150    -1.2343840    -0.7923790
  O       -2.4725380     1.3090340    -0.5392830
  C       -0.2242900    -0.0021990    -0.0874500
  C        1.8486770    -1.2201060     0.0278510
  C        1.8399080     1.2326580     0.0087760
  C        0.4429230     1.2221080    -0.0627730
  C        0.4524940    -1.2213400    -0.0491660
  C        2.3876187     0.0727395     0.0526964
  C        2.6153160    -2.5166400     0.0331700
  C        2.5970370     2.5347130    -0.0106060
  H       -0.1225000     2.1495790    -0.1127420
  H       -0.1051200    -2.1541630    -0.0856740
  H        3.6080620     0.0137470     0.1195720
  H        2.0290960    -3.3176030     0.4912070
  H        2.8638720    -2.8264950    -0.9873940
  H        3.5515030    -2.4163920     0.5891050
  H        2.8417130     2.8282160    -1.0369270
  H        2.0062320     3.3400050     0.4339970
  H        3.5349660     2.4512730     0.5451920
  H       -2.8050090     0.6644540     1.7194690
units angstrom
no_reorient  #important for SAPT in psi4, default
symmetry c1  #important for SAPT in psi4, default
}

set PROPERTIES_ORIGIN ["COM"]
properties('MP2/aug-cc-pvtz', properties = ['dipole'])
--------------------------------------------------------------------------

    Molecular point group: c1
  Charge       = 0
  Multiplicity = 1
  Basis Set: AUG-CC-PVTZ
    Blend: AUG-CC-PVTZ
  Basis Set: (AUG-CC-PVTZ AUX)
    Blend: AUG-CC-PVTZ-JKFIT

    Orbital Energies [Eh]
    ---------------------

    Doubly Occupied:

       1A    -92.228586     2A    -20.628306     3A    -20.564549
       4A    -20.560613     5A    -11.284115     6A    -11.267881
       7A    -11.266668     8A    -11.260819     9A    -11.255897
      10A    -11.252595    11A    -11.244576    12A    -11.242924
      13A     -9.191440    14A     -6.877064    15A     -6.875766
      16A     -6.875526    17A     -1.492434    18A     -1.378837
      19A     -1.351170    20A     -1.201990    21A     -1.091321
      22A     -1.074384    23A     -0.970321    24A     -0.955080
      25A     -0.920345    26A     -0.827270    27A     -0.813846
      28A     -0.740140    29A     -0.722254    30A     -0.690645
      31A     -0.676947    32A     -0.667194    33A     -0.627330
      34A     -0.608944    35A     -0.605454    36A     -0.593702
      37A     -0.587192    38A     -0.571398    39A     -0.563984
      40A     -0.550094    41A     -0.529103    42A     -0.524743
      43A     -0.514523    44A     -0.503923    45A     -0.497859
      46A     -0.483195    47A     -0.466543    48A     -0.375460
      49A     -0.345799

  @DF-RHF Final Energy:  -931.03056523547946

   => Energetics <=

    Nuclear Repulsion Energy =            833.2130525553992584
    One-Electron Energy =               -2931.6857331795040409
    Two-Electron Energy =                1167.4421153886250977
    Total Energy =                       -931.0305652354795711
  Basis Set: (AUG-CC-PVTZ AUX)
    Blend: AUG-CC-PVTZ-RI
    Molecular point group: c1

    Geometry (in Angstrom), charge = 0, multiplicity = 1:

       Center              X                  Y                   Z               Mass
    ------------   -----------------  -----------------  -----------------  -----------------
         S           -1.889852113768    -0.012700536064    -0.127474457856    31.972071174400
         O           -2.260858113768    -0.170254536064     1.468159542144    15.994914619570
         O           -2.327773113768    -1.234574536064    -0.783300457856    15.994914619570
         O           -2.371696113768     1.308843463936    -0.530204457856    15.994914619570
         C           -0.123448113768    -0.002389536064    -0.078371457856    12.000000000000
         C            1.949518886232    -1.220296536064     0.036929542144    12.000000000000
         C            1.940749886232     1.232467463936     0.017854542144    12.000000000000
         C            0.543764886232     1.221917463936    -0.053694457856    12.000000000000
         C            0.553335886232    -1.221530536064    -0.040087457856    12.000000000000
         C            2.488460586232     0.072548963936     0.061774942144    12.000000000000
         C            2.716157886232    -2.516830536064     0.042248542144    12.000000000000
         C            2.697878886232     2.534522463936    -0.001527457856    12.000000000000
         H           -0.021658113768     2.149388463936    -0.103663457856     1.007825032230
         H           -0.004278113768    -2.154353536064    -0.076595457856     1.007825032230
         H            3.708903886232     0.013556463936     0.128650542144     1.007825032230
         H            2.129937886232    -3.317793536064     0.500285542144     1.007825032230
         H            2.964713886232    -2.826685536064    -0.978315457856     1.007825032230
         H            3.652344886232    -2.416582536064     0.598183542144     1.007825032230
         H            2.942554886232     2.828025463936    -1.027848457856     1.007825032230
         H            2.107073886232     3.339814463936     0.443075542144     1.007825032230
         H            3.635807886232     2.451082463936     0.554270542144     1.007825032230
         H           -2.704167113768     0.664263463936     1.728547542144     1.007825032230

  Basis Set: AUG-CC-PVTZ
    Blend: AUG-CC-PVTZ
  Basis Set: (AUG-CC-PVTZ AUX)
    Blend: AUG-CC-PVTZ-JKFIT
	 Reference Energy          =    -931.0305652354794574 [Eh]
	 Singles Energy            =      -0.0000000000000000 [Eh]
	 Same-Spin Energy          =      -0.6216313471204147 [Eh]
	 Opposite-Spin Energy      =      -1.8684886334976651 [Eh]
	 Correlation Energy        =      -2.4901199806180800 [Eh]
	 Total Energy              =    -933.5206852160974904 [Eh]

	 ================> DF-SCS-MP2 Energies <==================
	-----------------------------------------------------------
	 SCS Same-Spin Scale       =       0.3333333333333333 [-]
	 SCS Opposite-Spin Scale   =       1.2000000000000000 [-]
	 SCS Same-Spin Energy      =      -0.2072104490401382 [Eh]
	 SCS Opposite-Spin Energy  =      -2.2421863601971981 [Eh]
	 SCS Correlation Energy    =      -2.4493968092373364 [Eh]
	 SCS Total Energy          =    -933.4799620447167854 [Eh]
	-----------------------------------------------------------

  Dipole Moment: [D]
     X:     4.3174      Y:     0.9219      Z:     1.8820     Total:     4.7991

*** Psi4 exiting successfully. Buy a developer a beer!
