                               Psi4 1.4a3.dev225

  ==> Input File <==

--------------------------------------------------------------------------
#psi4
#
memory 32 gb

molecule  {
0 1
  S       -1.9906940    -0.0125100    -0.1365530
  O       -2.3617000    -0.1700640     1.4590810
  O       -2.4286150    -1.2343840    -0.7923790
  O       -2.4725380     1.3090340    -0.5392830
  C       -0.2242900    -0.0021990    -0.0874500
  C        1.8486770    -1.2201060     0.0278510
  C        1.8399080     1.2326580     0.0087760
  C        0.4429230     1.2221080    -0.0627730
  C        0.4524940    -1.2213400    -0.0491660
  C        2.5197880     0.0092800     0.0551460
  C        2.6153160    -2.5166400     0.0331700
  C        2.5970370     2.5347130    -0.0106060
  H       -0.1225000     2.1495790    -0.1127420
  H       -0.1051200    -2.1541630    -0.0856740
  H        3.6080620     0.0137470     0.1195720
  H        2.0827223    -3.2443324     0.4493066
  H        2.8638720    -2.8264950    -0.9873940
  H        3.5515030    -2.4163920     0.5891050
  H        2.8417130     2.8282160    -1.0369270
  H        2.0062320     3.3400050     0.4339970
  H        3.5349660     2.4512730     0.5451920
  H       -2.8050090     0.6644540     1.7194690
units angstrom
no_reorient  #important for SAPT in psi4, default
symmetry c1  #important for SAPT in psi4, default
}

set PROPERTIES_ORIGIN ["COM"]
properties('MP2/aug-cc-pvtz', properties = ['dipole'])
--------------------------------------------------------------------------

    Molecular point group: c1
  Charge       = 0
  Multiplicity = 1
  Basis Set: AUG-CC-PVTZ
    Blend: AUG-CC-PVTZ
  Basis Set: (AUG-CC-PVTZ AUX)
    Blend: AUG-CC-PVTZ-JKFIT

    Orbital Energies [Eh]
    ---------------------

    Doubly Occupied:

       1A    -92.228688     2A    -20.628579     3A    -20.564894
       4A    -20.560703     5A    -11.285952     6A    -11.267139
       7A    -11.266428     8A    -11.262574     9A    -11.261924
      10A    -11.256541    11A    -11.241262    12A    -11.228196
      13A     -9.191595    14A     -6.877215    15A     -6.875914
      16A     -6.875678    17A     -1.492647    18A     -1.379017
      19A     -1.351366    20A     -1.187762    21A     -1.083184
      22A     -1.075650    23A     -0.968694    24A     -0.955501
      25A     -0.923883    26A     -0.818979    27A     -0.812617
      28A     -0.740003    29A     -0.723003    30A     -0.691175
      31A     -0.684215    32A     -0.671131    33A     -0.627799
      34A     -0.608152    35A     -0.600826    36A     -0.591588
      37A     -0.588524    38A     -0.575598    39A     -0.572876
      40A     -0.551390    41A     -0.537430    42A     -0.523500
      43A     -0.508832    44A     -0.507019    45A     -0.500960
      46A     -0.483907    47A     -0.473437    48A     -0.362986
      49A     -0.345025

  @DF-RHF Final Energy:  -931.05143966608398

   => Energetics <=

    Nuclear Repulsion Energy =            830.9293210458406520
    One-Electron Energy =               -2927.1776069223014929
    Two-Electron Energy =                1165.1968462103766342
    Total Energy =                       -931.0514396660839793
  Basis Set: (AUG-CC-PVTZ AUX)
    Blend: AUG-CC-PVTZ-RI
    Molecular point group: c1

    Geometry (in Angstrom), charge = 0, multiplicity = 1:

       Center              X                  Y                   Z               Mass
    ------------   -----------------  -----------------  -----------------  -----------------
         S           -1.898668072869    -0.009004082097    -0.127405475850    31.972071174400
         O           -2.269674072869    -0.166558082097     1.468228524150    15.994914619570
         O           -2.336589072869    -1.230878082097    -0.783231475850    15.994914619570
         O           -2.380512072869     1.312539917903    -0.530135475850    15.994914619570
         C           -0.132264072869     0.001306917903    -0.078302475850    12.000000000000
         C            1.940702927131    -1.216600082097     0.036998524150    12.000000000000
         C            1.931933927131     1.236163917903     0.017923524150    12.000000000000
         C            0.534948927131     1.225613917903    -0.053625475850    12.000000000000
         C            0.544519927131    -1.217834082097    -0.040018475850    12.000000000000
         C            2.611813927131     0.012785917903     0.064293524150    12.000000000000
         C            2.707341927131    -2.513134082097     0.042317524150    12.000000000000
         C            2.689062927131     2.538218917903    -0.001458475850    12.000000000000
         H           -0.030474072869     2.153084917903    -0.103594475850     1.007825032230
         H           -0.013094072869    -2.150657082097    -0.076526475850     1.007825032230
         H            3.700087927131     0.017252917903     0.128719524150     1.007825032230
         H            2.174748227131    -3.240826482097     0.458454124150     1.007825032230
         H            2.955897927131    -2.822989082097    -0.978246475850     1.007825032230
         H            3.643528927131    -2.412886082097     0.598252524150     1.007825032230
         H            2.933738927131     2.831721917903    -1.027779475850     1.007825032230
         H            2.098257927131     3.343510917903     0.443144524150     1.007825032230
         H            3.626991927131     2.454778917903     0.554339524150     1.007825032230
         H           -2.712983072869     0.667959917903     1.728616524150     1.007825032230

  Basis Set: AUG-CC-PVTZ
    Blend: AUG-CC-PVTZ
  Basis Set: (AUG-CC-PVTZ AUX)
    Blend: AUG-CC-PVTZ-JKFIT
	 Reference Energy          =    -931.0514396660839793 [Eh]
	 Singles Energy            =      -0.0000000000000000 [Eh]
	 Same-Spin Energy          =      -0.6212958520647716 [Eh]
	 Opposite-Spin Energy      =      -1.8671605732438141 [Eh]
	 Correlation Energy        =      -2.4884564253085859 [Eh]
	 Total Energy              =    -933.5398960913926203 [Eh]

	 ================> DF-SCS-MP2 Energies <==================
	-----------------------------------------------------------
	 SCS Same-Spin Scale       =       0.3333333333333333 [-]
	 SCS Opposite-Spin Scale   =       1.2000000000000000 [-]
	 SCS Same-Spin Energy      =      -0.2070986173549239 [Eh]
	 SCS Opposite-Spin Energy  =      -2.2405926878925770 [Eh]
	 SCS Correlation Energy    =      -2.4476913052475009 [Eh]
	 SCS Total Energy          =    -933.4991309713315104 [Eh]
	-----------------------------------------------------------

  Dipole Moment: [D]
     X:     4.4259      Y:     0.9642      Z:     1.9007     Total:     4.9124

*** Psi4 exiting successfully. Buy a developer a beer!
