                               Psi4 1.4a3.dev225

  ==> Input File <==

--------------------------------------------------------------------------
#psi4
#
memory 32 gb

molecule  {
0 1
  S       -1.9906940    -0.0125100    -0.1365530
  O       -2.3617000    -0.1700640     1.4590810
  O       -2.4286150    -1.2343840    -0.7923790
  O       -2.4725380     1.3090340    -0.5392830
  C       -0.2242900    -0.0021990    -0.0874500
  C        1.8486770    -1.2201060     0.0278510
  C        1.8399080     1.2326580     0.0087760
  C        0.5427893     1.2228622    -0.0576582
  C        0.4524940    -1.2213400    -0.0491660
  C        2.5197880     0.0092800     0.0551460
  C        2.6153160    -2.5166400     0.0331700
  C        2.5970370     2.5347130    -0.0106060
  H       -0.1225000     2.1495790    -0.1127420
  H       -0.1051200    -2.1541630    -0.0856740
  H        3.6080620     0.0137470     0.1195720
  H        2.0290960    -3.3176030     0.4912070
  H        2.8638720    -2.8264950    -0.9873940
  H        3.5515030    -2.4163920     0.5891050
  H        2.8417130     2.8282160    -1.0369270
  H        2.0062320     3.3400050     0.4339970
  H        3.5349660     2.4512730     0.5451920
  H       -2.8050090     0.6644540     1.7194690
units angstrom
no_reorient  #important for SAPT in psi4, default
symmetry c1  #important for SAPT in psi4, default
}

set PROPERTIES_ORIGIN ["COM"]
properties('MP2/aug-cc-pvtz', properties = ['dipole'])
--------------------------------------------------------------------------

    Molecular point group: c1
  Charge       = 0
  Multiplicity = 1
  Basis Set: AUG-CC-PVTZ
    Blend: AUG-CC-PVTZ
  Basis Set: (AUG-CC-PVTZ AUX)
    Blend: AUG-CC-PVTZ-JKFIT

    Orbital Energies [Eh]
    ---------------------

    Doubly Occupied:

       1A    -92.231246     2A    -20.629344     3A    -20.565570
       4A    -20.562357     5A    -11.287459     6A    -11.266760
       7A    -11.265523     8A    -11.259293     9A    -11.258768
      10A    -11.252746    11A    -11.240473    12A    -11.239667
      13A     -9.193746    14A     -6.879407    15A     -6.878160
      16A     -6.877846    17A     -1.493432    18A     -1.379838
      19A     -1.352249    20A     -1.193387    21A     -1.091248
      22A     -1.068696    23A     -0.963248    24A     -0.952148
      25A     -0.926856    26A     -0.824832    27A     -0.805955
      28A     -0.741156    29A     -0.719826    30A     -0.692664
      31A     -0.682746    32A     -0.672809    33A     -0.628557
      34A     -0.602545    35A     -0.601800    36A     -0.587377
      37A     -0.584647    38A     -0.574340    39A     -0.567851
      40A     -0.545479    41A     -0.539548    42A     -0.524044
      43A     -0.509468    44A     -0.502242    45A     -0.495622
      46A     -0.484529    47A     -0.478049    48A     -0.362912
      49A     -0.351867

  @DF-RHF Final Energy:  -931.04394076093490

   => Energetics <=

    Nuclear Repulsion Energy =            830.5524854692422423
    One-Electron Energy =               -2926.4121877668276284
    Two-Electron Energy =                1164.8157615366505979
    Total Energy =                       -931.0439407609349018
  Basis Set: (AUG-CC-PVTZ AUX)
    Blend: AUG-CC-PVTZ-RI
    Molecular point group: c1

    Geometry (in Angstrom), charge = 0, multiplicity = 1:

       Center              X                  Y                   Z               Mass
    ------------   -----------------  -----------------  -----------------  -----------------
         S           -1.904819330807    -0.008655795366    -0.127962391676    31.972071174400
         O           -2.275825330807    -0.166209795366     1.467671608324    15.994914619570
         O           -2.342740330807    -1.230529795366    -0.783788391676    15.994914619570
         O           -2.386663330807     1.312888204634    -0.530692391676    15.994914619570
         C           -0.138415330807     0.001655204634    -0.078859391676    12.000000000000
         C            1.934551669193    -1.216251795366     0.036441608324    12.000000000000
         C            1.925782669193     1.236512204634     0.017366608324    12.000000000000
         C            0.628663969193     1.226716404634    -0.049067591676    12.000000000000
         C            0.538368669193    -1.217485795366    -0.040575391676    12.000000000000
         C            2.605662669193     0.013134204634     0.063736608324    12.000000000000
         C            2.701190669193    -2.512785795366     0.041760608324    12.000000000000
         C            2.682911669193     2.538567204634    -0.002015391676    12.000000000000
         H           -0.036625330807     2.153433204634    -0.104151391676     1.007825032230
         H           -0.019245330807    -2.150308795366    -0.077083391676     1.007825032230
         H            3.693936669193     0.017601204634     0.128162608324     1.007825032230
         H            2.114970669193    -3.313748795366     0.499797608324     1.007825032230
         H            2.949746669193    -2.822640795366    -0.978803391676     1.007825032230
         H            3.637377669193    -2.412537795366     0.597695608324     1.007825032230
         H            2.927587669193     2.832070204634    -1.028336391676     1.007825032230
         H            2.092106669193     3.343859204634     0.442587608324     1.007825032230
         H            3.620840669193     2.455127204634     0.553782608324     1.007825032230
         H           -2.719134330807     0.668308204634     1.728059608324     1.007825032230

  Basis Set: AUG-CC-PVTZ
    Blend: AUG-CC-PVTZ
  Basis Set: (AUG-CC-PVTZ AUX)
    Blend: AUG-CC-PVTZ-JKFIT
	 Reference Energy          =    -931.0439407609349018 [Eh]
	 Singles Energy            =      -0.0000000000000000 [Eh]
	 Same-Spin Energy          =      -0.6211536382340345 [Eh]
	 Opposite-Spin Energy      =      -1.8681024152018195 [Eh]
	 Correlation Energy        =      -2.4892560534358541 [Eh]
	 Total Energy              =    -933.5331968143707400 [Eh]

	 ================> DF-SCS-MP2 Energies <==================
	-----------------------------------------------------------
	 SCS Same-Spin Scale       =       0.3333333333333333 [-]
	 SCS Opposite-Spin Scale   =       1.2000000000000000 [-]
	 SCS Same-Spin Energy      =      -0.2070512127446781 [Eh]
	 SCS Opposite-Spin Energy  =      -2.2417228982421835 [Eh]
	 SCS Correlation Energy    =      -2.4487741109868617 [Eh]
	 SCS Total Energy          =    -933.4927148719217485 [Eh]
	-----------------------------------------------------------

  Dipole Moment: [D]
     X:     4.3416      Y:     0.9044      Z:     1.8950     Total:     4.8227

*** Psi4 exiting successfully. Buy a developer a beer!
