                               Psi4 1.4a3.dev225

  ==> Input File <==

--------------------------------------------------------------------------
#psi4
#
memory 32 gb

molecule  {
0 1
  S       -1.9906940    -0.0125100    -0.1365530
  O       -2.3617000    -0.1700640     1.4590810
  O       -2.4286150    -1.2343840    -0.7923790
  O       -2.4725380     1.3090340    -0.5392830
  C       -0.2242900    -0.0021990    -0.0874500
  C        1.8486770    -1.2201060     0.0278510
  C        1.8399080     1.2326580     0.0087760
  C        0.4429230     1.2221080    -0.0627730
  C        0.4524940    -1.2213400    -0.0491660
  C        2.5197880     0.0092800     0.0551460
  C        2.6153160    -2.5166400     0.0331700
  C        2.5970370     2.5347130    -0.0106060
  H       -0.1225000     2.1495790    -0.1127420
  H       -0.1051200    -2.1541630    -0.0856740
  H        3.5880971     0.0136651     0.1183901
  H        2.0290960    -3.3176030     0.4912070
  H        2.8638720    -2.8264950    -0.9873940
  H        3.5515030    -2.4163920     0.5891050
  H        2.8417130     2.8282160    -1.0369270
  H        2.0062320     3.3400050     0.4339970
  H        3.5349660     2.4512730     0.5451920
  H       -2.8050090     0.6644540     1.7194690
units angstrom
no_reorient  #important for SAPT in psi4, default
symmetry c1  #important for SAPT in psi4, default
}

set PROPERTIES_ORIGIN ["COM"]
properties('MP2/aug-cc-pvtz', properties = ['dipole'])
--------------------------------------------------------------------------

    Molecular point group: c1
  Charge       = 0
  Multiplicity = 1
  Basis Set: AUG-CC-PVTZ
    Blend: AUG-CC-PVTZ
  Basis Set: (AUG-CC-PVTZ AUX)
    Blend: AUG-CC-PVTZ-JKFIT

    Orbital Energies [Eh]
    ---------------------

    Doubly Occupied:

       1A    -92.228715     2A    -20.628596     3A    -20.564928
       4A    -20.560709     5A    -11.285986     6A    -11.267245
       7A    -11.266920     8A    -11.262626     9A    -11.261891
      10A    -11.254774    11A    -11.241491    12A    -11.240372
      13A     -9.191622    14A     -6.877242    15A     -6.875942
      16A     -6.875704    17A     -1.492665    18A     -1.379032
      19A     -1.351385    20A     -1.187873    21A     -1.081537
      22A     -1.075780    23A     -0.962679    24A     -0.953693
      25A     -0.924709    26A     -0.819749    27A     -0.809749
      28A     -0.740039    29A     -0.723158    30A     -0.692542
      31A     -0.684308    32A     -0.670757    33A     -0.627808
      34A     -0.602542    35A     -0.600845    36A     -0.591695
      37A     -0.585331    38A     -0.575245    39A     -0.569618
      40A     -0.548017    41A     -0.538497    42A     -0.523538
      43A     -0.508196    44A     -0.506739    45A     -0.500826
      46A     -0.483936    47A     -0.473609    48A     -0.363201
      49A     -0.344920

  @DF-RHF Final Energy:  -931.05759135064704

   => Energetics <=

    Nuclear Repulsion Energy =            830.5863992695524303
    One-Electron Energy =               -2926.5300178724510261
    Two-Electron Energy =                1164.8860272522517789
    Total Energy =                       -931.0575913506470442
  Basis Set: (AUG-CC-PVTZ AUX)
    Blend: AUG-CC-PVTZ-RI
    Molecular point group: c1

    Geometry (in Angstrom), charge = 0, multiplicity = 1:

       Center              X                  Y                   Z               Mass
    ------------   -----------------  -----------------  -----------------  -----------------
         S           -1.898269400429    -0.008606702789    -0.127626063961    31.972071174400
         O           -2.269275400429    -0.166160702789     1.468007936039    15.994914619570
         O           -2.336190400429    -1.230480702789    -0.783452063961    15.994914619570
         O           -2.380113400429     1.312937297211    -0.530356063961    15.994914619570
         C           -0.131865400429     0.001704297211    -0.078523063961    12.000000000000
         C            1.941101599571    -1.216202702789     0.036777936039    12.000000000000
         C            1.932332599571     1.236561297211     0.017702936039    12.000000000000
         C            0.535347599571     1.226011297211    -0.053846063961    12.000000000000
         C            0.544918599571    -1.217436702789    -0.040239063961    12.000000000000
         C            2.612212599571     0.013183297211     0.064072936039    12.000000000000
         C            2.707740599571    -2.512736702789     0.042096936039    12.000000000000
         C            2.689461599571     2.538616297211    -0.001679063961    12.000000000000
         H           -0.030075400429     2.153482297211    -0.103815063961     1.007825032230
         H           -0.012695400429    -2.150259702789    -0.076747063961     1.007825032230
         H            3.680521699571     0.017568397211     0.127317036039     1.007825032230
         H            2.121520599571    -3.313699702789     0.500133936039     1.007825032230
         H            2.956296599571    -2.822591702789    -0.978467063961     1.007825032230
         H            3.643927599571    -2.412488702789     0.598031936039     1.007825032230
         H            2.934137599571     2.832119297211    -1.028000063961     1.007825032230
         H            2.098656599571     3.343908297211     0.442923936039     1.007825032230
         H            3.627390599571     2.455176297211     0.554118936039     1.007825032230
         H           -2.712584400429     0.668357297211     1.728395936039     1.007825032230

  Basis Set: AUG-CC-PVTZ
    Blend: AUG-CC-PVTZ
  Basis Set: (AUG-CC-PVTZ AUX)
    Blend: AUG-CC-PVTZ-JKFIT
	 Reference Energy          =    -931.0575913506470442 [Eh]
	 Singles Energy            =      -0.0000000000000000 [Eh]
	 Same-Spin Energy          =      -0.6212455857260185 [Eh]
	 Opposite-Spin Energy      =      -1.8675278064047980 [Eh]
	 Correlation Energy        =      -2.4887733921308164 [Eh]
	 Total Energy              =    -933.5463647427778824 [Eh]

	 ================> DF-SCS-MP2 Energies <==================
	-----------------------------------------------------------
	 SCS Same-Spin Scale       =       0.3333333333333333 [-]
	 SCS Opposite-Spin Scale   =       1.2000000000000000 [-]
	 SCS Same-Spin Energy      =      -0.2070818619086728 [Eh]
	 SCS Opposite-Spin Energy  =      -2.2410333676857577 [Eh]
	 SCS Correlation Energy    =      -2.4481152295944306 [Eh]
	 SCS Total Energy          =    -933.5057065802415082 [Eh]
	-----------------------------------------------------------

  Dipole Moment: [D]
     X:     4.4360      Y:     1.0033      Z:     1.8902     Total:     4.9252

*** Psi4 exiting successfully. Buy a developer a beer!
