                               Psi4 1.4a3.dev225

  ==> Input File <==

--------------------------------------------------------------------------
#psi4
#
memory 32 gb

molecule  {
0 1
  S       -1.9906940    -0.0125100    -0.1365530
  O       -2.3617000    -0.1700640     1.4590810
  O       -2.4286150    -1.2343840    -0.7923790
  O       -2.4725380     1.3090340    -0.5392830
  C       -0.2242900    -0.0021990    -0.0874500
  C        1.8486770    -1.2201060     0.0278510
  C        1.8399080     1.2326580     0.0087760
  C        0.4429230     1.2221080    -0.0627730
  C        0.4524940    -1.2213400    -0.0491660
  C        2.5197880     0.0092800     0.0551460
  C        2.6153160    -2.5166400     0.0331700
  C        2.5970370     2.5347130    -0.0106060
  H       -0.1225000     2.1495790    -0.1127420
  H       -0.1051200    -2.1541630    -0.0856740
  H        3.6080620     0.0137470     0.1195720
  H        2.0290960    -3.3176030     0.4912070
  H        2.8638720    -2.8264950    -0.9873940
  H        3.5515030    -2.4163920     0.5891050
  H        2.8417130     2.8282160    -1.0369270
  H        1.9792117     3.3768348     0.4543308
  H        3.5349660     2.4512730     0.5451920
  H       -2.8050090     0.6644540     1.7194690
units angstrom
no_reorient  #important for SAPT in psi4, default
symmetry c1  #important for SAPT in psi4, default
}

set PROPERTIES_ORIGIN ["COM"]
properties('MP2/aug-cc-pvtz', properties = ['dipole'])
--------------------------------------------------------------------------

    Molecular point group: c1
  Charge       = 0
  Multiplicity = 1
  Basis Set: AUG-CC-PVTZ
    Blend: AUG-CC-PVTZ
  Basis Set: (AUG-CC-PVTZ AUX)
    Blend: AUG-CC-PVTZ-JKFIT

    Orbital Energies [Eh]
    ---------------------

    Doubly Occupied:

       1A    -92.228836     2A    -20.628690     3A    -20.565024
       4A    -20.560826     5A    -11.286150     6A    -11.267868
       7A    -11.267310     8A    -11.262891     9A    -11.262202
      10A    -11.257472    11A    -11.247379    12A    -11.240497
      13A     -9.191741    14A     -6.877361    15A     -6.876062
      16A     -6.875824    17A     -1.492768    18A     -1.379128
      19A     -1.351487    20A     -1.188004    21A     -1.081197
      22A     -1.075423    23A     -0.960656    24A     -0.952555
      25A     -0.924122    26A     -0.819154    27A     -0.808925
      28A     -0.740059    29A     -0.722850    30A     -0.691231
      31A     -0.683592    32A     -0.670530    33A     -0.627776
      34A     -0.602143    35A     -0.600257    36A     -0.591943
      37A     -0.584569    38A     -0.574379    39A     -0.565808
      40A     -0.545375    41A     -0.537651    42A     -0.523588
      43A     -0.507547    44A     -0.506921    45A     -0.500738
      46A     -0.484028    47A     -0.473723    48A     -0.363497
      49A     -0.345096

  @DF-RHF Final Energy:  -931.05528077983251

   => Energetics <=

    Nuclear Repulsion Energy =            830.2665420062428439
    One-Electron Energy =               -2925.8979390707822859
    Two-Electron Energy =                1164.5761162847070409
    Total Energy =                       -931.0552807798326285
  Basis Set: (AUG-CC-PVTZ AUX)
    Blend: AUG-CC-PVTZ-RI
    Molecular point group: c1

    Geometry (in Angstrom), charge = 0, multiplicity = 1:

       Center              X                  Y                   Z               Mass
    ------------   -----------------  -----------------  -----------------  -----------------
         S           -1.898231178555    -0.008806667968    -0.127742622960    31.972071174400
         O           -2.269237178555    -0.166360667968     1.467891377040    15.994914619570
         O           -2.336152178555    -1.230680667968    -0.783568622960    15.994914619570
         O           -2.380075178555     1.312737332032    -0.530472622960    15.994914619570
         C           -0.131827178555     0.001504332032    -0.078639622960    12.000000000000
         C            1.941139821445    -1.216402667968     0.036661377040    12.000000000000
         C            1.932370821445     1.236361332032     0.017586377040    12.000000000000
         C            0.535385821445     1.225811332032    -0.053962622960    12.000000000000
         C            0.544956821445    -1.217636667968    -0.040355622960    12.000000000000
         C            2.612250821445     0.012983332032     0.063956377040    12.000000000000
         C            2.707778821445    -2.512936667968     0.041980377040    12.000000000000
         C            2.689499821445     2.538416332032    -0.001795622960    12.000000000000
         H           -0.030037178555     2.153282332032    -0.103931622960     1.007825032230
         H           -0.012657178555    -2.150459667968    -0.076863622960     1.007825032230
         H            3.700524821445     0.017450332032     0.128382377040     1.007825032230
         H            2.121558821445    -3.313899667968     0.500017377040     1.007825032230
         H            2.956334821445    -2.822791667968    -0.978583622960     1.007825032230
         H            3.643965821445    -2.412688667968     0.597915377040     1.007825032230
         H            2.934175821445     2.831919332032    -1.028116622960     1.007825032230
         H            2.071674521445     3.380538132032     0.463141177040     1.007825032230
         H            3.627428821445     2.454976332032     0.554002377040     1.007825032230
         H           -2.712546178555     0.668157332032     1.728279377040     1.007825032230

  Basis Set: AUG-CC-PVTZ
    Blend: AUG-CC-PVTZ
  Basis Set: (AUG-CC-PVTZ AUX)
    Blend: AUG-CC-PVTZ-JKFIT
	 Reference Energy          =    -931.0552807798325148 [Eh]
	 Singles Energy            =      -0.0000000000000000 [Eh]
	 Same-Spin Energy          =      -0.6213096729639244 [Eh]
	 Opposite-Spin Energy      =      -1.8680348895018608 [Eh]
	 Correlation Energy        =      -2.4893445624657851 [Eh]
	 Total Energy              =    -933.5446253422983318 [Eh]

	 ================> DF-SCS-MP2 Energies <==================
	-----------------------------------------------------------
	 SCS Same-Spin Scale       =       0.3333333333333333 [-]
	 SCS Opposite-Spin Scale   =       1.2000000000000000 [-]
	 SCS Same-Spin Energy      =      -0.2071032243213081 [Eh]
	 SCS Opposite-Spin Energy  =      -2.2416418674022327 [Eh]
	 SCS Correlation Energy    =      -2.4487450917235409 [Eh]
	 SCS Total Energy          =    -933.5040258715561095 [Eh]
	-----------------------------------------------------------

  Dipole Moment: [D]
     X:     4.4305      Y:     0.9776      Z:     1.8825     Total:     4.9120

*** Psi4 exiting successfully. Buy a developer a beer!
