                               Psi4 1.4a3.dev225

  ==> Input File <==

--------------------------------------------------------------------------
#psi4
#
memory 32 gb

molecule  {
0 1
  S       -1.9906940    -0.0125100    -0.1365530
  O       -2.3617000    -0.1700640     1.4590810
  O       -2.4286150    -1.2343840    -0.7923790
  O       -2.4725380     1.3090340    -0.5392830
  C       -0.2242900    -0.0021990    -0.0874500
  C        1.8486770    -1.2201060     0.0278510
  C        1.8399080     1.2326580     0.0087760
  C        0.4429230     1.2221080    -0.0627730
  C        0.4524940    -1.2213400    -0.0491660
  C        2.5197880     0.0092800     0.0551460
  C        2.6153160    -2.5166400     0.0331700
  C        2.5970370     2.5347130    -0.0106060
  H       -0.1225000     2.1495790    -0.1127420
  H       -0.1051200    -2.1541630    -0.0856740
  H        3.5581498     0.0135421     0.1166172
  H        2.0290960    -3.3176030     0.4912070
  H        2.8638720    -2.8264950    -0.9873940
  H        3.5515030    -2.4163920     0.5891050
  H        2.8417130     2.8282160    -1.0369270
  H        2.0062320     3.3400050     0.4339970
  H        3.5349660     2.4512730     0.5451920
  H       -2.8050090     0.6644540     1.7194690
units angstrom
no_reorient  #important for SAPT in psi4, default
symmetry c1  #important for SAPT in psi4, default
}

set PROPERTIES_ORIGIN ["COM"]
properties('MP2/aug-cc-pvtz', properties = ['dipole'])
--------------------------------------------------------------------------

    Molecular point group: c1
  Charge       = 0
  Multiplicity = 1
  Basis Set: AUG-CC-PVTZ
    Blend: AUG-CC-PVTZ
  Basis Set: (AUG-CC-PVTZ AUX)
    Blend: AUG-CC-PVTZ-JKFIT

    Orbital Energies [Eh]
    ---------------------

    Doubly Occupied:

       1A    -92.228634     2A    -20.628531     3A    -20.564853
       4A    -20.560635     5A    -11.285882     6A    -11.266974
       7A    -11.266648     8A    -11.262401     9A    -11.261666
      10A    -11.251212    11A    -11.241516    12A    -11.240396
      13A     -9.191542    14A     -6.877162    15A     -6.875861
      16A     -6.875624    17A     -1.492593    18A     -1.378964
      19A     -1.351311    20A     -1.187904    21A     -1.081411
      22A     -1.076360    23A     -0.963101    24A     -0.953626
      25A     -0.925812    26A     -0.820744    27A     -0.809586
      28A     -0.740013    29A     -0.723803    30A     -0.694985
      31A     -0.684911    32A     -0.670837    33A     -0.627813
      34A     -0.602679    35A     -0.600830    36A     -0.591578
      37A     -0.585343    38A     -0.576754    39A     -0.569972
      40A     -0.548013    41A     -0.539650    42A     -0.523464
      43A     -0.508035    44A     -0.506659    45A     -0.500765
      46A     -0.483867    47A     -0.473610    48A     -0.363079
      49A     -0.344741

  @DF-RHF Final Energy:  -931.05674598292796

   => Energetics <=

    Nuclear Repulsion Energy =            830.7596771507288622
    One-Electron Energy =               -2926.8681493144827073
    Two-Electron Energy =                1165.0517261808258809
    Total Energy =                       -931.0567459829280779
  Basis Set: (AUG-CC-PVTZ AUX)
    Blend: AUG-CC-PVTZ-RI
    Molecular point group: c1

    Geometry (in Angstrom), charge = 0, multiplicity = 1:

       Center              X                  Y                   Z               Mass
    ------------   -----------------  -----------------  -----------------  -----------------
         S           -1.898107164140    -0.008606036449    -0.127616459465    31.972071174400
         O           -2.269113164140    -0.166160036449     1.468017540535    15.994914619570
         O           -2.336028164140    -1.230480036449    -0.783442459465    15.994914619570
         O           -2.379951164140     1.312937963551    -0.530346459465    15.994914619570
         C           -0.131703164140     0.001704963551    -0.078513459465    12.000000000000
         C            1.941263835860    -1.216202036449     0.036787540535    12.000000000000
         C            1.932494835860     1.236561963551     0.017712540535    12.000000000000
         C            0.535509835860     1.226011963551    -0.053836459465    12.000000000000
         C            0.545080835860    -1.217436036449    -0.040229459465    12.000000000000
         C            2.612374835860     0.013183963551     0.064082540535    12.000000000000
         C            2.707902835860    -2.512736036449     0.042106540535    12.000000000000
         C            2.689623835860     2.538616963551    -0.001669459465    12.000000000000
         H           -0.029913164140     2.153482963551    -0.103805459465     1.007825032230
         H           -0.012533164140    -2.150259036449    -0.076737459465     1.007825032230
         H            3.650736635860     0.017446063551     0.125553740535     1.007825032230
         H            2.121682835860    -3.313699036449     0.500143540535     1.007825032230
         H            2.956458835860    -2.822591036449    -0.978457459465     1.007825032230
         H            3.644089835860    -2.412488036449     0.598041540535     1.007825032230
         H            2.934299835860     2.832119963551    -1.027990459465     1.007825032230
         H            2.098818835860     3.343908963551     0.442933540535     1.007825032230
         H            3.627552835860     2.455176963551     0.554128540535     1.007825032230
         H           -2.712422164140     0.668357963551     1.728405540535     1.007825032230

  Basis Set: AUG-CC-PVTZ
    Blend: AUG-CC-PVTZ
  Basis Set: (AUG-CC-PVTZ AUX)
    Blend: AUG-CC-PVTZ-JKFIT
	 Reference Energy          =    -931.0567459829279642 [Eh]
	 Singles Energy            =      -0.0000000000000000 [Eh]
	 Same-Spin Energy          =      -0.6211738932434616 [Eh]
	 Opposite-Spin Energy      =      -1.8673338708689193 [Eh]
	 Correlation Energy        =      -2.4885077641123807 [Eh]
	 Total Energy              =    -933.5452537470403058 [Eh]

	 ================> DF-SCS-MP2 Energies <==================
	-----------------------------------------------------------
	 SCS Same-Spin Scale       =       0.3333333333333333 [-]
	 SCS Opposite-Spin Scale   =       1.2000000000000000 [-]
	 SCS Same-Spin Energy      =      -0.2070579644144872 [Eh]
	 SCS Opposite-Spin Energy  =      -2.2408006450427029 [Eh]
	 SCS Correlation Energy    =      -2.4478586094571901 [Eh]
	 SCS Total Energy          =    -933.5046045923851352 [Eh]
	-----------------------------------------------------------

  Dipole Moment: [D]
     X:     4.4465      Y:     1.0034      Z:     1.8909     Total:     4.9349

*** Psi4 exiting successfully. Buy a developer a beer!
