                               Psi4 1.4a3.dev225

  ==> Input File <==

--------------------------------------------------------------------------
#psi4
#
memory 32 gb

molecule  {
0 1
  S       -1.9906940    -0.0125100    -0.1365530
  O       -2.3617000    -0.1700640     1.4590810
  O       -2.4286150    -1.2343840    -0.7923790
  O       -2.4725380     1.3090340    -0.5392830
  C       -0.2242900    -0.0021990    -0.0874500
  C        1.8486770    -1.2201060     0.0278510
  C        1.8399080     1.2326580     0.0087760
  C        0.4429230     1.2221080    -0.0627730
  C        0.4524940    -1.2213400    -0.0491660
  C        2.5197880     0.0092800     0.0551460
  C        2.6153160    -2.5166400     0.0331700
  C        2.5970370     2.5347130    -0.0106060
  H       -0.1225000     2.1495790    -0.1127420
  H       -0.1051200    -2.1541630    -0.0856740
  H        3.6080620     0.0137470     0.1195720
  H        2.0290960    -3.3176030     0.4912070
  H        2.8638720    -2.8264950    -0.9873940
  H        3.5515030    -2.4163920     0.5891050
  H        2.8417130     2.8282160    -1.0369270
  H        1.9954239     3.3547369     0.4421305
  H        3.5349660     2.4512730     0.5451920
  H       -2.8050090     0.6644540     1.7194690
units angstrom
no_reorient  #important for SAPT in psi4, default
symmetry c1  #important for SAPT in psi4, default
}

set PROPERTIES_ORIGIN ["COM"]
properties('MP2/aug-cc-pvtz', properties = ['dipole'])
--------------------------------------------------------------------------

    Molecular point group: c1
  Charge       = 0
  Multiplicity = 1
  Basis Set: AUG-CC-PVTZ
    Blend: AUG-CC-PVTZ
  Basis Set: (AUG-CC-PVTZ AUX)
    Blend: AUG-CC-PVTZ-JKFIT

    Orbital Energies [Eh]
    ---------------------

    Doubly Occupied:

       1A    -92.228797     2A    -20.628662     3A    -20.564998
       4A    -20.560787     5A    -11.286096     6A    -11.267606
       7A    -11.267191     8A    -11.262823     9A    -11.262107
      10A    -11.257249    11A    -11.243858    12A    -11.240410
      13A     -9.191703    14A     -6.877323    15A     -6.876024
      16A     -6.875786    17A     -1.492737    18A     -1.379099
      19A     -1.351457    20A     -1.187922    21A     -1.081431
      22A     -1.075428    23A     -0.961613    24A     -0.953308
      25A     -0.924068    26A     -0.819143    27A     -0.809471
      28A     -0.740061    29A     -0.722829    30A     -0.691213
      31A     -0.683633    32A     -0.670611    33A     -0.627791
      34A     -0.602196    35A     -0.600652    36A     -0.591835
      37A     -0.584947    38A     -0.574364    39A     -0.567856
      40A     -0.547091    41A     -0.537633    42A     -0.523592
      43A     -0.508028    44A     -0.506852    45A     -0.500831
      46A     -0.484003    47A     -0.473650    48A     -0.363373
      49A     -0.345064

  @DF-RHF Final Energy:  -931.05689495997876

   => Energetics <=

    Nuclear Repulsion Energy =            830.3895506911260327
    One-Electron Energy =               -2926.1424844198058963
    Two-Electron Energy =                1164.6960387687008733
    Total Energy =                       -931.0568949599787629
  Basis Set: (AUG-CC-PVTZ AUX)
    Blend: AUG-CC-PVTZ-RI
    Molecular point group: c1

    Geometry (in Angstrom), charge = 0, multiplicity = 1:

       Center              X                  Y                   Z               Mass
    ------------   -----------------  -----------------  -----------------  -----------------
         S           -1.898319006412    -0.008686954963    -0.127676529142    31.972071174400
         O           -2.269325006412    -0.166240954963     1.467957470858    15.994914619570
         O           -2.336240006412    -1.230560954963    -0.783502529142    15.994914619570
         O           -2.380163006412     1.312857045037    -0.530406529142    15.994914619570
         C           -0.131915006412     0.001624045037    -0.078573529142    12.000000000000
         C            1.941051993588    -1.216282954963     0.036727470858    12.000000000000
         C            1.932282993588     1.236481045037     0.017652470858    12.000000000000
         C            0.535297993588     1.225931045037    -0.053896529142    12.000000000000
         C            0.544868993588    -1.217516954963    -0.040289529142    12.000000000000
         C            2.612162993588     0.013103045037     0.064022470858    12.000000000000
         C            2.707690993588    -2.512816954963     0.042046470858    12.000000000000
         C            2.689411993588     2.538536045037    -0.001729529142    12.000000000000
         H           -0.030125006412     2.153402045037    -0.103865529142     1.007825032230
         H           -0.012745006412    -2.150339954963    -0.076797529142     1.007825032230
         H            3.700436993588     0.017570045037     0.128448470858     1.007825032230
         H            2.121470993588    -3.313779954963     0.500083470858     1.007825032230
         H            2.956246993588    -2.822671954963    -0.978517529142     1.007825032230
         H            3.643877993588    -2.412568954963     0.597981470858     1.007825032230
         H            2.934087993588     2.832039045037    -1.028050529142     1.007825032230
         H            2.087798893588     3.358559945037     0.451006970858     1.007825032230
         H            3.627340993588     2.455096045037     0.554068470858     1.007825032230
         H           -2.712634006412     0.668277045037     1.728345470858     1.007825032230

  Basis Set: AUG-CC-PVTZ
    Blend: AUG-CC-PVTZ
  Basis Set: (AUG-CC-PVTZ AUX)
    Blend: AUG-CC-PVTZ-JKFIT
	 Reference Energy          =    -931.0568949599787629 [Eh]
	 Singles Energy            =      -0.0000000000000000 [Eh]
	 Same-Spin Energy          =      -0.6213020178524882 [Eh]
	 Opposite-Spin Energy      =      -1.8678144494801929 [Eh]
	 Correlation Energy        =      -2.4891164673326811 [Eh]
	 Total Energy              =    -933.5460114273114414 [Eh]

	 ================> DF-SCS-MP2 Energies <==================
	-----------------------------------------------------------
	 SCS Same-Spin Scale       =       0.3333333333333333 [-]
	 SCS Opposite-Spin Scale   =       1.2000000000000000 [-]
	 SCS Same-Spin Energy      =      -0.2071006726174960 [Eh]
	 SCS Opposite-Spin Energy  =      -2.2413773393762315 [Eh]
	 SCS Correlation Energy    =      -2.4484780119937275 [Eh]
	 SCS Total Energy          =    -933.5053729719725197 [Eh]
	-----------------------------------------------------------

  Dipole Moment: [D]
     X:     4.4291      Y:     0.9934      Z:     1.8870     Total:     4.9157

*** Psi4 exiting successfully. Buy a developer a beer!
