                               Psi4 1.4a3.dev225

  ==> Input File <==

--------------------------------------------------------------------------
#psi4
#
memory 32 gb

molecule  {
0 1
  S       -1.9906940    -0.0125100    -0.1365530
  O       -2.3617000    -0.1700640     1.4590810
  O       -2.4286150    -1.2343840    -0.7923790
  O       -2.4725380     1.3090340    -0.5392830
  C       -0.2242900    -0.0021990    -0.0874500
  C        1.8486770    -1.2201060     0.0278510
  C        1.8399080     1.2326580     0.0087760
  C        0.4429230     1.2221080    -0.0627730
  C        0.4524940    -1.2213400    -0.0491660
  C        2.5197880     0.0092800     0.0551460
  C        2.6153160    -2.5166400     0.0331700
  C        2.5970370     2.5347130    -0.0106060
  H       -0.1225000     2.1495790    -0.1127420
  H       -0.1051200    -2.1541630    -0.0856740
  H        3.6080620     0.0137470     0.1195720
  H        2.0290960    -3.3176030     0.4912070
  H        2.8824113    -2.8263421    -0.9827462
  H        3.5515030    -2.4163920     0.5891050
  H        2.8417130     2.8282160    -1.0369270
  H        2.0062320     3.3400050     0.4339970
  H        3.5349660     2.4512730     0.5451920
  H       -2.8050090     0.6644540     1.7194690
units angstrom
no_reorient  #important for SAPT in psi4, default
symmetry c1  #important for SAPT in psi4, default
}

set PROPERTIES_ORIGIN ["COM"]
properties('MP2/aug-cc-pvtz', properties = ['dipole'])
--------------------------------------------------------------------------

    Molecular point group: c1
  Charge       = 0
  Multiplicity = 1
  Basis Set: AUG-CC-PVTZ
    Blend: AUG-CC-PVTZ
  Basis Set: (AUG-CC-PVTZ AUX)
    Blend: AUG-CC-PVTZ-JKFIT

    Orbital Energies [Eh]
    ---------------------

    Doubly Occupied:

       1A    -92.228787     2A    -20.628655     3A    -20.564995
       4A    -20.560771     5A    -11.286077     6A    -11.267466
       7A    -11.267192     8A    -11.262862     9A    -11.262114
      10A    -11.257183    11A    -11.241500    12A    -11.240304
      13A     -9.191692    14A     -6.877312    15A     -6.876013
      16A     -6.875775    17A     -1.492729    18A     -1.379091
      19A     -1.351448    20A     -1.187903    21A     -1.081600
      22A     -1.075456    23A     -0.962431    24A     -0.953796
      25A     -0.924059    26A     -0.819198    27A     -0.809972
      28A     -0.740117    29A     -0.722883    30A     -0.691237
      31A     -0.683698    32A     -0.670699    33A     -0.627831
      34A     -0.602601    35A     -0.600636    36A     -0.591954
      37A     -0.584828    38A     -0.574248    39A     -0.569290
      40A     -0.548178    41A     -0.537623    42A     -0.523543
      43A     -0.508383    44A     -0.506785    45A     -0.500990
      46A     -0.483987    47A     -0.473602    48A     -0.363311
      49A     -0.345117

  @DF-RHF Final Energy:  -931.05739620309760

   => Energetics <=

    Nuclear Repulsion Energy =            830.4523321643727058
    One-Electron Energy =               -2926.2636099671149168
    Two-Electron Energy =                1164.7538815996445010
    Total Energy =                       -931.0573962030975963
  Basis Set: (AUG-CC-PVTZ AUX)
    Blend: AUG-CC-PVTZ-RI
    Molecular point group: c1

    Geometry (in Angstrom), charge = 0, multiplicity = 1:

       Center              X                  Y                   Z               Mass
    ------------   -----------------  -----------------  -----------------  -----------------
         S           -1.898477992807    -0.008607974792    -0.127657645736    31.972071174400
         O           -2.269483992807    -0.166161974792     1.467976354264    15.994914619570
         O           -2.336398992807    -1.230481974792    -0.783483645736    15.994914619570
         O           -2.380321992807     1.312936025208    -0.530387645736    15.994914619570
         C           -0.132073992807     0.001703025208    -0.078554645736    12.000000000000
         C            1.940893007193    -1.216203974792     0.036746354264    12.000000000000
         C            1.932124007193     1.236560025208     0.017671354264    12.000000000000
         C            0.535139007193     1.226010025208    -0.053877645736    12.000000000000
         C            0.544710007193    -1.217437974792    -0.040270645736    12.000000000000
         C            2.612004007193     0.013182025208     0.064041354264    12.000000000000
         C            2.707532007193    -2.512737974792     0.042065354264    12.000000000000
         C            2.689253007193     2.538615025208    -0.001710645736    12.000000000000
         H           -0.030283992807     2.153481025208    -0.103846645736     1.007825032230
         H           -0.012903992807    -2.150260974792    -0.076778645736     1.007825032230
         H            3.700278007193     0.017649025208     0.128467354264     1.007825032230
         H            2.121312007193    -3.313700974792     0.500102354264     1.007825032230
         H            2.974627307193    -2.822440074792    -0.973850845736     1.007825032230
         H            3.643719007193    -2.412489974792     0.598000354264     1.007825032230
         H            2.933929007193     2.832118025208    -1.028031645736     1.007825032230
         H            2.098448007193     3.343907025208     0.442892354264     1.007825032230
         H            3.627182007193     2.455175025208     0.554087354264     1.007825032230
         H           -2.712792992807     0.668356025208     1.728364354264     1.007825032230

  Basis Set: AUG-CC-PVTZ
    Blend: AUG-CC-PVTZ
  Basis Set: (AUG-CC-PVTZ AUX)
    Blend: AUG-CC-PVTZ-JKFIT
	 Reference Energy          =    -931.0573962030975963 [Eh]
	 Singles Energy            =      -0.0000000000000000 [Eh]
	 Same-Spin Energy          =      -0.6212947885390709 [Eh]
	 Opposite-Spin Energy      =      -1.8676689780251747 [Eh]
	 Correlation Energy        =      -2.4889637665642459 [Eh]
	 Total Energy              =    -933.5463599696618076 [Eh]

	 ================> DF-SCS-MP2 Energies <==================
	-----------------------------------------------------------
	 SCS Same-Spin Scale       =       0.3333333333333333 [-]
	 SCS Opposite-Spin Scale   =       1.2000000000000000 [-]
	 SCS Same-Spin Energy      =      -0.2070982628463570 [Eh]
	 SCS Opposite-Spin Energy  =      -2.2412027736302096 [Eh]
	 SCS Correlation Energy    =      -2.4483010364765665 [Eh]
	 SCS Total Energy          =    -933.5056972395741468 [Eh]
	-----------------------------------------------------------

  Dipole Moment: [D]
     X:     4.4330      Y:     1.0076      Z:     1.8899     Total:     4.9232

*** Psi4 exiting successfully. Buy a developer a beer!
