                               Psi4 1.4a3.dev225

  ==> Input File <==

--------------------------------------------------------------------------
#psi4
#
memory 32 gb

molecule  {
0 1
  S       -1.9906940    -0.0125100    -0.1365530
  O       -2.3617000    -0.1700640     1.4590810
  O       -2.4286150    -1.2343840    -0.7923790
  O       -2.4725380     1.3090340    -0.5392830
  C       -0.2242900    -0.0021990    -0.0874500
  C        1.8486770    -1.2201060     0.0278510
  C        1.8399080     1.2326580     0.0087760
  C        0.4429230     1.2221080    -0.0627730
  C        0.4524940    -1.2213400    -0.0491660
  C        2.5197880     0.0092800     0.0551460
  C        2.6153160    -2.5166400     0.0331700
  C        2.5970370     2.5347130    -0.0106060
  H       -0.1225000     2.1495790    -0.1127420
  H       -0.1051200    -2.1541630    -0.0856740
  H        3.6080620     0.0137470     0.1195720
  H        2.0290960    -3.3176030     0.4912070
  H        2.8638720    -2.8264950    -0.9873940
  H        3.5343789    -2.4182257     0.5789362
  H        2.8417130     2.8282160    -1.0369270
  H        2.0062320     3.3400050     0.4339970
  H        3.5349660     2.4512730     0.5451920
  H       -2.8050090     0.6644540     1.7194690
units angstrom
no_reorient  #important for SAPT in psi4, default
symmetry c1  #important for SAPT in psi4, default
}

set PROPERTIES_ORIGIN ["COM"]
properties('MP2/aug-cc-pvtz', properties = ['dipole'])
--------------------------------------------------------------------------

    Molecular point group: c1
  Charge       = 0
  Multiplicity = 1
  Basis Set: AUG-CC-PVTZ
    Blend: AUG-CC-PVTZ
  Basis Set: (AUG-CC-PVTZ AUX)
    Blend: AUG-CC-PVTZ-JKFIT

    Orbital Energies [Eh]
    ---------------------

    Doubly Occupied:

       1A    -92.228724     2A    -20.628605     3A    -20.564938
       4A    -20.560716     5A    -11.285996     6A    -11.267412
       7A    -11.266959     8A    -11.262716     9A    -11.261917
      10A    -11.257081    11A    -11.241455    12A    -11.237937
      13A     -9.191631    14A     -6.877251    15A     -6.875950
      16A     -6.875713    17A     -1.492674    18A     -1.379040
      19A     -1.351393    20A     -1.187833    21A     -1.081799
      22A     -1.075530    23A     -0.963204    24A     -0.954369
      25A     -0.923994    26A     -0.819200    27A     -0.810168
      28A     -0.740120    29A     -0.722846    30A     -0.691172
      31A     -0.683777    32A     -0.670741    33A     -0.627846
      34A     -0.602543    35A     -0.601005    36A     -0.591683
      37A     -0.585942    38A     -0.574796    39A     -0.570019
      40A     -0.549216    41A     -0.537741    42A     -0.523621
      43A     -0.508222    44A     -0.506743    45A     -0.500799
      46A     -0.483963    47A     -0.473626    48A     -0.363283
      49A     -0.344981

  @DF-RHF Final Energy:  -931.05747112252322

   => Energetics <=

    Nuclear Repulsion Energy =            830.5665640826906611
    One-Electron Energy =               -2926.4902957239946772
    Two-Electron Energy =                1164.8662605187807912
    Total Energy =                       -931.0574711225233386
  Basis Set: (AUG-CC-PVTZ AUX)
    Blend: AUG-CC-PVTZ-RI
    Molecular point group: c1

    Geometry (in Angstrom), charge = 0, multiplicity = 1:

       Center              X                  Y                   Z               Mass
    ------------   -----------------  -----------------  -----------------  -----------------
         S           -1.898284790158    -0.008597212600    -0.127577378393    31.972071174400
         O           -2.269290790158    -0.166151212600     1.468056621607    15.994914619570
         O           -2.336205790158    -1.230471212600    -0.783403378393    15.994914619570
         O           -2.380128790158     1.312946787400    -0.530307378393    15.994914619570
         C           -0.131880790158     0.001713787400    -0.078474378393    12.000000000000
         C            1.941086209842    -1.216193212600     0.036826621607    12.000000000000
         C            1.932317209842     1.236570787400     0.017751621607    12.000000000000
         C            0.535332209842     1.226020787400    -0.053797378393    12.000000000000
         C            0.544903209842    -1.217427212600    -0.040190378393    12.000000000000
         C            2.612197209842     0.013192787400     0.064121621607    12.000000000000
         C            2.707725209842    -2.512727212600     0.042145621607    12.000000000000
         C            2.689446209842     2.538625787400    -0.001630378393    12.000000000000
         H           -0.030090790158     2.153491787400    -0.103766378393     1.007825032230
         H           -0.012710790158    -2.150250212600    -0.076698378393     1.007825032230
         H            3.700471209842     0.017659787400     0.128547621607     1.007825032230
         H            2.121505209842    -3.313690212600     0.500182621607     1.007825032230
         H            2.956281209842    -2.822582212600    -0.978418378393     1.007825032230
         H            3.626788109842    -2.414312912600     0.587911821607     1.007825032230
         H            2.934122209842     2.832128787400    -1.027951378393     1.007825032230
         H            2.098641209842     3.343917787400     0.442972621607     1.007825032230
         H            3.627375209842     2.455185787400     0.554167621607     1.007825032230
         H           -2.712599790158     0.668366787400     1.728444621607     1.007825032230

  Basis Set: AUG-CC-PVTZ
    Blend: AUG-CC-PVTZ
  Basis Set: (AUG-CC-PVTZ AUX)
    Blend: AUG-CC-PVTZ-JKFIT
	 Reference Energy          =    -931.0574711225232249 [Eh]
	 Singles Energy            =      -0.0000000000000000 [Eh]
	 Same-Spin Energy          =      -0.6212956208724740 [Eh]
	 Opposite-Spin Energy      =      -1.8675533963706379 [Eh]
	 Correlation Energy        =      -2.4888490172431119 [Eh]
	 Total Energy              =    -933.5463201397662942 [Eh]

	 ================> DF-SCS-MP2 Energies <==================
	-----------------------------------------------------------
	 SCS Same-Spin Scale       =       0.3333333333333333 [-]
	 SCS Opposite-Spin Scale   =       1.2000000000000000 [-]
	 SCS Same-Spin Energy      =      -0.2070985402908247 [Eh]
	 SCS Opposite-Spin Energy  =      -2.2410640756447653 [Eh]
	 SCS Correlation Energy    =      -2.4481626159355900 [Eh]
	 SCS Total Energy          =    -933.5056337384588687 [Eh]
	-----------------------------------------------------------

  Dipole Moment: [D]
     X:     4.4374      Y:     0.9995      Z:     1.8932     Total:     4.9269

*** Psi4 exiting successfully. Buy a developer a beer!
