                               Psi4 1.4a3.dev225

  ==> Input File <==

--------------------------------------------------------------------------
#psi4
#
memory 32 gb

molecule  {
0 1
  S       -1.9906940    -0.0125100    -0.1365530
  O       -2.3617000    -0.1700640     1.4590810
  O       -2.4286150    -1.2343840    -0.7923790
  O       -2.4725380     1.3090340    -0.5392830
  C       -0.2242900    -0.0021990    -0.0874500
  C        1.8486770    -1.2201060     0.0278510
  C        1.8399080     1.2326580     0.0087760
  C        0.4429230     1.2221080    -0.0627730
  C        0.4524940    -1.2213400    -0.0491660
  C        2.5197880     0.0092800     0.0551460
  C        2.6153160    -2.5166400     0.0331700
  C        2.6975647     2.7075932    -0.0131794
  H       -0.1225000     2.1495790    -0.1127420
  H       -0.1051200    -2.1541630    -0.0856740
  H        3.6080620     0.0137470     0.1195720
  H        2.0290960    -3.3176030     0.4912070
  H        2.8638720    -2.8264950    -0.9873940
  H        3.5515030    -2.4163920     0.5891050
  H        2.8417130     2.8282160    -1.0369270
  H        2.0062320     3.3400050     0.4339970
  H        3.5349660     2.4512730     0.5451920
  H       -2.8050090     0.6644540     1.7194690
units angstrom
no_reorient  #important for SAPT in psi4, default
symmetry c1  #important for SAPT in psi4, default
}

set PROPERTIES_ORIGIN ["COM"]
properties('MP2/aug-cc-pvtz', properties = ['dipole'])
--------------------------------------------------------------------------

    Molecular point group: c1
  Charge       = 0
  Multiplicity = 1
  Basis Set: AUG-CC-PVTZ
    Blend: AUG-CC-PVTZ
  Basis Set: (AUG-CC-PVTZ AUX)
    Blend: AUG-CC-PVTZ-JKFIT

    Orbital Energies [Eh]
    ---------------------

    Doubly Occupied:

       1A    -92.228205     2A    -20.628182     3A    -20.564493
       4A    -20.560266     5A    -11.285304     6A    -11.272445
       7A    -11.266391     8A    -11.262578     9A    -11.261393
      10A    -11.256956    11A    -11.242515    12A    -11.239847
      13A     -9.191120    14A     -6.876739    15A     -6.875436
      16A     -6.875202    17A     -1.492230    18A     -1.378618
      19A     -1.350956    20A     -1.183892    21A     -1.076782
      22A     -1.062952    23A     -0.966117    24A     -0.954579
      25A     -0.922675    26A     -0.818394    27A     -0.809133
      28A     -0.738784    29A     -0.721599    30A     -0.689920
      31A     -0.681989    32A     -0.668828    33A     -0.627495
      34A     -0.617499    35A     -0.599877    36A     -0.593925
      37A     -0.591684    38A     -0.575902    39A     -0.569390
      40A     -0.552556    41A     -0.536271    42A     -0.524190
      43A     -0.508811    44A     -0.502411    45A     -0.485324
      46A     -0.481374    47A     -0.459921    48A     -0.363673
      49A     -0.346286

  @DF-RHF Final Energy:  -931.03041685845619

   => Energetics <=

    Nuclear Repulsion Energy =            826.8080760527159327
    One-Electron Energy =               -2918.9947681016765273
    Two-Electron Energy =                1161.1562751905044024
    Total Energy =                       -931.0304168584561921
  Basis Set: (AUG-CC-PVTZ AUX)
    Blend: AUG-CC-PVTZ-RI
    Molecular point group: c1

    Geometry (in Angstrom), charge = 0, multiplicity = 1:

       Center              X                  Y                   Z               Mass
    ------------   -----------------  -----------------  -----------------  -----------------
         S           -1.904861993732    -0.019758605452    -0.127466472265    31.972071174400
         O           -2.275867993732    -0.177312605452     1.468167527735    15.994914619570
         O           -2.342782993732    -1.241632605452    -0.783292472265    15.994914619570
         O           -2.386705993732     1.301785394548    -0.530196472265    15.994914619570
         C           -0.138457993732    -0.009447605452    -0.078363472265    12.000000000000
         C            1.934509006268    -1.227354605452     0.036937527735    12.000000000000
         C            1.925740006268     1.225409394548     0.017862527735    12.000000000000
         C            0.528755006268     1.214859394548    -0.053686472265    12.000000000000
         C            0.538326006268    -1.228588605452    -0.040079472265    12.000000000000
         C            2.605620006268     0.002031394548     0.064232527735    12.000000000000
         C            2.701148006268    -2.523888605452     0.042256527735    12.000000000000
         C            2.783396706268     2.700344594548    -0.004092872265    12.000000000000
         H           -0.036667993732     2.142330394548    -0.103655472265     1.007825032230
         H           -0.019287993732    -2.161411605452    -0.076587472265     1.007825032230
         H            3.693894006268     0.006498394548     0.128658527735     1.007825032230
         H            2.114928006268    -3.324851605452     0.500293527735     1.007825032230
         H            2.949704006268    -2.833743605452    -0.978307472265     1.007825032230
         H            3.637335006268    -2.423640605452     0.598191527735     1.007825032230
         H            2.927545006268     2.820967394548    -1.027840472265     1.007825032230
         H            2.092064006268     3.332756394548     0.443083527735     1.007825032230
         H            3.620798006268     2.444024394548     0.554278527735     1.007825032230
         H           -2.719176993732     0.657205394548     1.728555527735     1.007825032230

  Basis Set: AUG-CC-PVTZ
    Blend: AUG-CC-PVTZ
  Basis Set: (AUG-CC-PVTZ AUX)
    Blend: AUG-CC-PVTZ-JKFIT
	 Reference Energy          =    -931.0304168584561921 [Eh]
	 Singles Energy            =      -0.0000000000000000 [Eh]
	 Same-Spin Energy          =      -0.6210661632571302 [Eh]
	 Opposite-Spin Energy      =      -1.8686794288310902 [Eh]
	 Correlation Energy        =      -2.4897455920882203 [Eh]
	 Total Energy              =    -933.5201624505443760 [Eh]

	 ================> DF-SCS-MP2 Energies <==================
	-----------------------------------------------------------
	 SCS Same-Spin Scale       =       0.3333333333333333 [-]
	 SCS Opposite-Spin Scale   =       1.2000000000000000 [-]
	 SCS Same-Spin Energy      =      -0.2070220544190434 [Eh]
	 SCS Opposite-Spin Energy  =      -2.2424153145973080 [Eh]
	 SCS Correlation Energy    =      -2.4494373690163513 [Eh]
	 SCS Total Energy          =    -933.4798542274725150 [Eh]
	-----------------------------------------------------------

  Dipole Moment: [D]
     X:     4.4018      Y:     0.9515      Z:     1.8965     Total:     4.8865

*** Psi4 exiting successfully. Buy a developer a beer!
