                               Psi4 1.4a3.dev225

  ==> Input File <==

--------------------------------------------------------------------------
#psi4
#
memory 32 gb

molecule  {
0 1
  S       -1.9906940    -0.0125100    -0.1365530
  O       -2.3617000    -0.1700640     1.4590810
  O       -2.4286150    -1.2343840    -0.7923790
  O       -2.4725380     1.3090340    -0.5392830
  C       -0.2242900    -0.0021990    -0.0874500
  C        1.8486770    -1.2201060     0.0278510
  C        1.8399080     1.2326580     0.0087760
  C        0.4429230     1.2221080    -0.0627730
  C        0.4524940    -1.2213400    -0.0491660
  C        2.5197880     0.0092800     0.0551460
  C        2.6153160    -2.5166400     0.0331700
  C        2.5970370     2.5347130    -0.0106060
  H       -0.1225000     2.1495790    -0.1127420
  H       -0.1051200    -2.1541630    -0.0856740
  H        3.6080620     0.0137470     0.1195720
  H        2.0290960    -3.3176030     0.4912070
  H        2.8638720    -2.8264950    -0.9873940
  H        3.5515030    -2.4163920     0.5891050
  H        2.8417130     2.8282160    -1.0369270
  H        2.0602727     3.2663453     0.3933294
  H        3.5349660     2.4512730     0.5451920
  H       -2.8050090     0.6644540     1.7194690
units angstrom
no_reorient  #important for SAPT in psi4, default
symmetry c1  #important for SAPT in psi4, default
}

set PROPERTIES_ORIGIN ["COM"]
properties('MP2/aug-cc-pvtz', properties = ['dipole'])
--------------------------------------------------------------------------

    Molecular point group: c1
  Charge       = 0
  Multiplicity = 1
  Basis Set: AUG-CC-PVTZ
    Blend: AUG-CC-PVTZ
  Basis Set: (AUG-CC-PVTZ AUX)
    Blend: AUG-CC-PVTZ-JKFIT

    Orbital Energies [Eh]
    ---------------------

    Doubly Occupied:

       1A    -92.228685     2A    -20.628580     3A    -20.564925
       4A    -20.560671     5A    -11.285945     6A    -11.266818
       7A    -11.266730     8A    -11.262653     9A    -11.261831
      10A    -11.256526    11A    -11.240137    12A    -11.229264
      13A     -9.191592    14A     -6.877212    15A     -6.875912
      16A     -6.875675    17A     -1.492646    18A     -1.379013
      19A     -1.351369    20A     -1.187758    21A     -1.083251
      22A     -1.075592    23A     -0.969102    24A     -0.955046
      25A     -0.923909    26A     -0.819419    27A     -0.812095
      28A     -0.740184    29A     -0.722865    30A     -0.691339
      31A     -0.683995    32A     -0.671176    33A     -0.628066
      34A     -0.607953    35A     -0.600834    36A     -0.591814
      37A     -0.588253    38A     -0.575426    39A     -0.573462
      40A     -0.550745    41A     -0.537422    42A     -0.523570
      43A     -0.509324    44A     -0.506515    45A     -0.500918
      46A     -0.483923    47A     -0.473427    48A     -0.362975
      49A     -0.345011

  @DF-RHF Final Energy:  -931.05144311585320

   => Energetics <=

    Nuclear Repulsion Energy =            830.9292132593608358
    One-Electron Energy =               -2927.1782050665742645
    Two-Electron Energy =                1165.1975486913602253
    Total Energy =                       -931.0514431158530897
  Basis Set: (AUG-CC-PVTZ AUX)
    Blend: AUG-CC-PVTZ-RI
    Molecular point group: c1

    Geometry (in Angstrom), charge = 0, multiplicity = 1:

       Center              X                  Y                   Z               Mass
    ------------   -----------------  -----------------  -----------------  -----------------
         S           -1.898670317837    -0.008208102941    -0.127412154412    31.972071174400
         O           -2.269676317837    -0.165762102941     1.468221845588    15.994914619570
         O           -2.336591317837    -1.230082102941    -0.783238154412    15.994914619570
         O           -2.380514317837     1.313335897059    -0.530142154412    15.994914619570
         C           -0.132266317837     0.002102897059    -0.078309154412    12.000000000000
         C            1.940700682163    -1.215804102941     0.036991845588    12.000000000000
         C            1.931931682163     1.236959897059     0.017916845588    12.000000000000
         C            0.534946682163     1.226409897059    -0.053632154412    12.000000000000
         C            0.544517682163    -1.217038102941    -0.040025154412    12.000000000000
         C            2.611811682163     0.013581897059     0.064286845588    12.000000000000
         C            2.707339682163    -2.512338102941     0.042310845588    12.000000000000
         C            2.689060682163     2.539014897059    -0.001465154412    12.000000000000
         H           -0.030476317837     2.153880897059    -0.103601154412     1.007825032230
         H           -0.013096317837    -2.149861102941    -0.076533154412     1.007825032230
         H            3.700085682163     0.018048897059     0.128712845588     1.007825032230
         H            2.121119682163    -3.313301102941     0.500347845588     1.007825032230
         H            2.955895682163    -2.822193102941    -0.978253154412     1.007825032230
         H            3.643526682163    -2.412090102941     0.598245845588     1.007825032230
         H            2.933736682163     2.832517897059    -1.027786154412     1.007825032230
         H            2.152296382163     3.270647197059     0.402470245588     1.007825032230
         H            3.626989682163     2.455574897059     0.554332845588     1.007825032230
         H           -2.712985317837     0.668755897059     1.728609845588     1.007825032230

  Basis Set: AUG-CC-PVTZ
    Blend: AUG-CC-PVTZ
  Basis Set: (AUG-CC-PVTZ AUX)
    Blend: AUG-CC-PVTZ-JKFIT
	 Reference Energy          =    -931.0514431158532034 [Eh]
	 Singles Energy            =      -0.0000000000000000 [Eh]
	 Same-Spin Energy          =      -0.6212991111617191 [Eh]
	 Opposite-Spin Energy      =      -1.8671650289776598 [Eh]
	 Correlation Energy        =      -2.4884641401393788 [Eh]
	 Total Energy              =    -933.5399072559926026 [Eh]

	 ================> DF-SCS-MP2 Energies <==================
	-----------------------------------------------------------
	 SCS Same-Spin Scale       =       0.3333333333333333 [-]
	 SCS Opposite-Spin Scale   =       1.2000000000000000 [-]
	 SCS Same-Spin Energy      =      -0.2070997037205730 [Eh]
	 SCS Opposite-Spin Energy  =      -2.2405980347731917 [Eh]
	 SCS Correlation Energy    =      -2.4476977384937646 [Eh]
	 SCS Total Energy          =    -933.4991408543469333 [Eh]
	-----------------------------------------------------------

  Dipole Moment: [D]
     X:     4.4251      Y:     1.0440      Z:     1.9007     Total:     4.9279

*** Psi4 exiting successfully. Buy a developer a beer!
