                               Psi4 1.4a3.dev225

  ==> Input File <==

--------------------------------------------------------------------------
#psi4
#
memory 32 gb

molecule  {
0 1
  S       -1.9906940    -0.0125100    -0.1365530
  O       -2.3617000    -0.1700640     1.4590810
  O       -2.4286150    -1.2343840    -0.7923790
  O       -2.4725380     1.3090340    -0.5392830
  C       -0.2242900    -0.0021990    -0.0874500
  C        1.8486770    -1.2201060     0.0278510
  C        1.8399080     1.2326580     0.0087760
  C        0.4429230     1.2221080    -0.0627730
  C        0.4524940    -1.2213400    -0.0491660
  C        2.5197880     0.0092800     0.0551460
  C        2.6153160    -2.5166400     0.0331700
  C        2.5970370     2.5347130    -0.0106060
  H       -0.1225000     2.1495790    -0.1127420
  H       -0.1051200    -2.1541630    -0.0856740
  H        3.6080620     0.0137470     0.1195720
  H        2.0290960    -3.3176030     0.4912070
  H        2.8684112    -2.8321537    -1.0060320
  H        3.5515030    -2.4163920     0.5891050
  H        2.8417130     2.8282160    -1.0369270
  H        2.0062320     3.3400050     0.4339970
  H        3.5349660     2.4512730     0.5451920
  H       -2.8050090     0.6644540     1.7194690
units angstrom
no_reorient  #important for SAPT in psi4, default
symmetry c1  #important for SAPT in psi4, default
}

set PROPERTIES_ORIGIN ["COM"]
properties('MP2/aug-cc-pvtz', properties = ['dipole'])
--------------------------------------------------------------------------

    Molecular point group: c1
  Charge       = 0
  Multiplicity = 1
  Basis Set: AUG-CC-PVTZ
    Blend: AUG-CC-PVTZ
  Basis Set: (AUG-CC-PVTZ AUX)
    Blend: AUG-CC-PVTZ-JKFIT

    Orbital Energies [Eh]
    ---------------------

    Doubly Occupied:

       1A    -92.228811     2A    -20.628678     3A    -20.565017
       4A    -20.560794     5A    -11.286115     6A    -11.267493
       7A    -11.267249     8A    -11.262855     9A    -11.262137
      10A    -11.257192    11A    -11.242717    12A    -11.241511
      13A     -9.191717    14A     -6.877337    15A     -6.876037
      16A     -6.875799    17A     -1.492751    18A     -1.379114
      19A     -1.351470    20A     -1.187920    21A     -1.081464
      22A     -1.075387    23A     -0.961790    24A     -0.953113
      25A     -0.924086    26A     -0.819173    27A     -0.809502
      28A     -0.740075    29A     -0.722793    30A     -0.691259
      31A     -0.683736    32A     -0.670732    33A     -0.627844
      34A     -0.602524    35A     -0.599657    36A     -0.591334
      37A     -0.583526    38A     -0.574339    39A     -0.569355
      40A     -0.548131    41A     -0.537670    42A     -0.523529
      43A     -0.508275    44A     -0.506785    45A     -0.500592
      46A     -0.484015    47A     -0.473653    48A     -0.363277
      49A     -0.344984

  @DF-RHF Final Energy:  -931.05692140200688

   => Energetics <=

    Nuclear Repulsion Energy =            830.3842653985832385
    One-Electron Energy =               -2926.1317475611208465
    Two-Electron Energy =                1164.6905607605303885
    Total Energy =                       -931.0569214020069921
  Basis Set: (AUG-CC-PVTZ AUX)
    Blend: AUG-CC-PVTZ-RI
    Molecular point group: c1

    Geometry (in Angstrom), charge = 0, multiplicity = 1:

       Center              X                  Y                   Z               Mass
    ------------   -----------------  -----------------  -----------------  -----------------
         S           -1.898402148765    -0.008576491072    -0.127531497410    31.972071174400
         O           -2.269408148765    -0.166130491072     1.468102502590    15.994914619570
         O           -2.336323148765    -1.230450491072    -0.783357497410    15.994914619570
         O           -2.380246148765     1.312967508928    -0.530261497410    15.994914619570
         C           -0.131998148765     0.001734508928    -0.078428497410    12.000000000000
         C            1.940968851235    -1.216172491072     0.036872502590    12.000000000000
         C            1.932199851235     1.236591508928     0.017797502590    12.000000000000
         C            0.535214851235     1.226041508928    -0.053751497410    12.000000000000
         C            0.544785851235    -1.217406491072    -0.040144497410    12.000000000000
         C            2.612079851235     0.013213508928     0.064167502590    12.000000000000
         C            2.707607851235    -2.512706491072     0.042191502590    12.000000000000
         C            2.689328851235     2.538646508928    -0.001584497410    12.000000000000
         H           -0.030208148765     2.153512508928    -0.103720497410     1.007825032230
         H           -0.012828148765    -2.150229491072    -0.076652497410     1.007825032230
         H            3.700353851235     0.017680508928     0.128593502590     1.007825032230
         H            2.121387851235    -3.313669491072     0.500228502590     1.007825032230
         H            2.960703051235    -2.828220191072    -0.997010497410     1.007825032230
         H            3.643794851235    -2.412458491072     0.598126502590     1.007825032230
         H            2.934004851235     2.832149508928    -1.027905497410     1.007825032230
         H            2.098523851235     3.343938508928     0.443018502590     1.007825032230
         H            3.627257851235     2.455206508928     0.554213502590     1.007825032230
         H           -2.712717148765     0.668387508928     1.728490502590     1.007825032230

  Basis Set: AUG-CC-PVTZ
    Blend: AUG-CC-PVTZ
  Basis Set: (AUG-CC-PVTZ AUX)
    Blend: AUG-CC-PVTZ-JKFIT
	 Reference Energy          =    -931.0569214020068785 [Eh]
	 Singles Energy            =      -0.0000000000000000 [Eh]
	 Same-Spin Energy          =      -0.6212957804166567 [Eh]
	 Opposite-Spin Energy      =      -1.8678005722559397 [Eh]
	 Correlation Energy        =      -2.4890963526725964 [Eh]
	 Total Energy              =    -933.5460177546794966 [Eh]

	 ================> DF-SCS-MP2 Energies <==================
	-----------------------------------------------------------
	 SCS Same-Spin Scale       =       0.3333333333333333 [-]
	 SCS Opposite-Spin Scale   =       1.2000000000000000 [-]
	 SCS Same-Spin Energy      =      -0.2070985934722189 [Eh]
	 SCS Opposite-Spin Energy  =      -2.2413606867071274 [Eh]
	 SCS Correlation Energy    =      -2.4484592801793461 [Eh]
	 SCS Total Energy          =    -933.5053806821862281 [Eh]
	-----------------------------------------------------------

  Dipole Moment: [D]
     X:     4.4238      Y:     1.0092      Z:     1.8951     Total:     4.9174

*** Psi4 exiting successfully. Buy a developer a beer!
