                               Psi4 1.4a3.dev225

  ==> Input File <==

--------------------------------------------------------------------------
#psi4
#
memory 32 gb

molecule  {
0 1
  S       -1.9906940    -0.0125100    -0.1365530
  O       -2.3617000    -0.1700640     1.4590810
  O       -2.4286150    -1.2343840    -0.7923790
  O       -2.4725380     1.3090340    -0.5392830
  C       -0.2242900    -0.0021990    -0.0874500
  C        1.8486770    -1.2201060     0.0278510
  C        1.8399080     1.2326580     0.0087760
  C        0.3929899     1.2217309    -0.0653304
  C        0.4524940    -1.2213400    -0.0491660
  C        2.5197880     0.0092800     0.0551460
  C        2.6153160    -2.5166400     0.0331700
  C        2.5970370     2.5347130    -0.0106060
  H       -0.1225000     2.1495790    -0.1127420
  H       -0.1051200    -2.1541630    -0.0856740
  H        3.6080620     0.0137470     0.1195720
  H        2.0290960    -3.3176030     0.4912070
  H        2.8638720    -2.8264950    -0.9873940
  H        3.5515030    -2.4163920     0.5891050
  H        2.8417130     2.8282160    -1.0369270
  H        2.0062320     3.3400050     0.4339970
  H        3.5349660     2.4512730     0.5451920
  H       -2.8050090     0.6644540     1.7194690
units angstrom
no_reorient  #important for SAPT in psi4, default
symmetry c1  #important for SAPT in psi4, default
}

set PROPERTIES_ORIGIN ["COM"]
properties('MP2/aug-cc-pvtz', properties = ['dipole'])
--------------------------------------------------------------------------

    Molecular point group: c1
  Charge       = 0
  Multiplicity = 1
  Basis Set: AUG-CC-PVTZ
    Blend: AUG-CC-PVTZ
  Basis Set: (AUG-CC-PVTZ AUX)
    Blend: AUG-CC-PVTZ-JKFIT

    Orbital Energies [Eh]
    ---------------------

    Doubly Occupied:

       1A    -92.227363     2A    -20.628194     3A    -20.564623
       4A    -20.559829     5A    -11.285428     6A    -11.273440
       7A    -11.267805     8A    -11.264449     9A    -11.260072
      10A    -11.256114    11A    -11.242418    12A    -11.240379
      13A     -9.190490    14A     -6.876084    15A     -6.874756
      16A     -6.874564    17A     -1.492285    18A     -1.378615
      19A     -1.350956    20A     -1.186233    21A     -1.080482
      22A     -1.076241    23A     -0.962307    24A     -0.954952
      25A     -0.922572    26A     -0.816302    27A     -0.811256
      28A     -0.739762    29A     -0.725133    30A     -0.690072
      31A     -0.684598    32A     -0.669381    33A     -0.627366
      34A     -0.606311    35A     -0.600435    36A     -0.592077
      37A     -0.585405    38A     -0.574350    39A     -0.569748
      40A     -0.549141    41A     -0.535576    42A     -0.523397
      43A     -0.511726    44A     -0.505798    45A     -0.500370
      46A     -0.483508    47A     -0.470229    48A     -0.366862
      49A     -0.339917

  @DF-RHF Final Energy:  -931.05436258507052

   => Energetics <=

    Nuclear Repulsion Energy =            830.5106690566519774
    One-Electron Energy =               -2926.3913169682164153
    Two-Electron Energy =                1164.8262853264941441
    Total Energy =                       -931.0543625850705212
  Basis Set: (AUG-CC-PVTZ AUX)
    Blend: AUG-CC-PVTZ-RI
    Molecular point group: c1

    Geometry (in Angstrom), charge = 0, multiplicity = 1:

       Center              X                  Y                   Z               Mass
    ------------   -----------------  -----------------  -----------------  -----------------
         S           -1.895156675025    -0.008582822026    -0.127467504329    31.972071174400
         O           -2.266162675025    -0.166136822026     1.468166495671    15.994914619570
         O           -2.333077675025    -1.230456822026    -0.783293504329    15.994914619570
         O           -2.377000675025     1.312961177974    -0.530197504329    15.994914619570
         C           -0.128752675025     0.001728177974    -0.078364504329    12.000000000000
         C            1.944214324975    -1.216178822026     0.036936495671    12.000000000000
         C            1.935445324975     1.236585177974     0.017861495671    12.000000000000
         C            0.488527224975     1.225658077974    -0.056244904329    12.000000000000
         C            0.548031324975    -1.217412822026    -0.040080504329    12.000000000000
         C            2.615325324975     0.013207177974     0.064231495671    12.000000000000
         C            2.710853324975    -2.512712822026     0.042255495671    12.000000000000
         C            2.692574324975     2.538640177974    -0.001520504329    12.000000000000
         H           -0.026962675025     2.153506177974    -0.103656504329     1.007825032230
         H           -0.009582675025    -2.150235822026    -0.076588504329     1.007825032230
         H            3.703599324975     0.017674177974     0.128657495671     1.007825032230
         H            2.124633324975    -3.313675822026     0.500292495671     1.007825032230
         H            2.959409324975    -2.822567822026    -0.978308504329     1.007825032230
         H            3.647040324975    -2.412464822026     0.598190495671     1.007825032230
         H            2.937250324975     2.832143177974    -1.027841504329     1.007825032230
         H            2.101769324975     3.343932177974     0.443082495671     1.007825032230
         H            3.630503324975     2.455200177974     0.554277495671     1.007825032230
         H           -2.709471675025     0.668381177974     1.728554495671     1.007825032230

  Basis Set: AUG-CC-PVTZ
    Blend: AUG-CC-PVTZ
  Basis Set: (AUG-CC-PVTZ AUX)
    Blend: AUG-CC-PVTZ-JKFIT
	 Reference Energy          =    -931.0543625850705212 [Eh]
	 Singles Energy            =      -0.0000000000000000 [Eh]
	 Same-Spin Energy          =      -0.6212401572235188 [Eh]
	 Opposite-Spin Energy      =      -1.8678020055435627 [Eh]
	 Correlation Energy        =      -2.4890421627670816 [Eh]
	 Total Energy              =    -933.5434047478375987 [Eh]

	 ================> DF-SCS-MP2 Energies <==================
	-----------------------------------------------------------
	 SCS Same-Spin Scale       =       0.3333333333333333 [-]
	 SCS Opposite-Spin Scale   =       1.2000000000000000 [-]
	 SCS Same-Spin Energy      =      -0.2070800524078396 [Eh]
	 SCS Opposite-Spin Energy  =      -2.2413624066522750 [Eh]
	 SCS Correlation Energy    =      -2.4484424590601148 [Eh]
	 SCS Total Energy          =    -933.5028050441305822 [Eh]
	-----------------------------------------------------------

  Dipole Moment: [D]
     X:     4.4691      Y:     1.0446      Z:     1.8868     Total:     4.9623

*** Psi4 exiting successfully. Buy a developer a beer!
