                               Psi4 1.4a3.dev225

  ==> Input File <==

--------------------------------------------------------------------------
#psi4
#
memory 32 gb

molecule  {
0 1
  S       -1.9906940    -0.0125100    -0.1365530
  O       -2.3617000    -0.1700640     1.4590810
  O       -2.4286150    -1.2343840    -0.7923790
  O       -2.4725380     1.3090340    -0.5392830
  C       -0.2242900    -0.0021990    -0.0874500
  C        1.8486770    -1.2201060     0.0278510
  C        1.8399080     1.2326580     0.0087760
  C        0.4429230     1.2221080    -0.0627730
  C        0.4524940    -1.2213400    -0.0491660
  C        2.4766593    -0.0137217     0.0548862
  C        2.6153160    -2.5166400     0.0331700
  C        2.5970370     2.5347130    -0.0106060
  H       -0.1225000     2.1495790    -0.1127420
  H       -0.1051200    -2.1541630    -0.0856740
  H        3.6080620     0.0137470     0.1195720
  H        2.0290960    -3.3176030     0.4912070
  H        2.8638720    -2.8264950    -0.9873940
  H        3.5515030    -2.4163920     0.5891050
  H        2.8417130     2.8282160    -1.0369270
  H        2.0062320     3.3400050     0.4339970
  H        3.5349660     2.4512730     0.5451920
  H       -2.8050090     0.6644540     1.7194690
units angstrom
no_reorient  #important for SAPT in psi4, default
symmetry c1  #important for SAPT in psi4, default
}

set PROPERTIES_ORIGIN ["COM"]
properties('MP2/aug-cc-pvtz', properties = ['dipole'])
--------------------------------------------------------------------------

    Molecular point group: c1
  Charge       = 0
  Multiplicity = 1
  Basis Set: AUG-CC-PVTZ
    Blend: AUG-CC-PVTZ
  Basis Set: (AUG-CC-PVTZ AUX)
    Blend: AUG-CC-PVTZ-JKFIT

    Orbital Energies [Eh]
    ---------------------

    Doubly Occupied:

       1A    -92.228589     2A    -20.628459     3A    -20.564846
       4A    -20.560501     5A    -11.285180     6A    -11.267323
       7A    -11.263540     8A    -11.262184     9A    -11.262004
      10A    -11.256281    11A    -11.242872    12A    -11.240728
      13A     -9.191481    14A     -6.877102    15A     -6.875799
      16A     -6.875567    17A     -1.492531    18A     -1.378905
      19A     -1.351260    20A     -1.191823    21A     -1.084014
      22A     -1.075505    23A     -0.964948    24A     -0.953989
      25A     -0.922411    26A     -0.818706    27A     -0.813974
      28A     -0.739977    29A     -0.722400    30A     -0.689719
      31A     -0.680782    32A     -0.670741    33A     -0.627449
      34A     -0.604551    35A     -0.602120    36A     -0.592158
      37A     -0.585886    38A     -0.572188    39A     -0.567633
      40A     -0.548611    41A     -0.530468    42A     -0.523771
      43A     -0.513429    44A     -0.506921    45A     -0.501437
      46A     -0.483867    47A     -0.472561    48A     -0.366791
      49A     -0.345336

  @DF-RHF Final Energy:  -931.05477326477535

   => Energetics <=

    Nuclear Repulsion Energy =            831.3533097648191870
    One-Electron Energy =               -2928.0575290544256859
    Two-Electron Energy =                1165.6494460248311498
    Total Energy =                       -931.0547732647753492
  Basis Set: (AUG-CC-PVTZ AUX)
    Blend: AUG-CC-PVTZ-RI
    Molecular point group: c1

    Geometry (in Angstrom), charge = 0, multiplicity = 1:

       Center              X                  Y                   Z               Mass
    ------------   -----------------  -----------------  -----------------  -----------------
         S           -1.895595585828    -0.007123445540    -0.127615708647    31.972071174400
         O           -2.266601585828    -0.164677445540     1.468018291353    15.994914619570
         O           -2.333516585828    -1.228997445540    -0.783441708647    15.994914619570
         O           -2.377439585828     1.314420554460    -0.530345708647    15.994914619570
         C           -0.129191585828     0.003187554460    -0.078512708647    12.000000000000
         C            1.943775414172    -1.214719445540     0.036788291353    12.000000000000
         C            1.935006414172     1.238044554460     0.017713291353    12.000000000000
         C            0.538021414172     1.227494554460    -0.053835708647    12.000000000000
         C            0.547592414172    -1.215953445540    -0.040228708647    12.000000000000
         C            2.571757714172    -0.008335145540     0.063823491353    12.000000000000
         C            2.710414414172    -2.511253445540     0.042107291353    12.000000000000
         C            2.692135414172     2.540099554460    -0.001668708647    12.000000000000
         H           -0.027401585828     2.154965554460    -0.103804708647     1.007825032230
         H           -0.010021585828    -2.148776445540    -0.076736708647     1.007825032230
         H            3.703160414172     0.019133554460     0.128509291353     1.007825032230
         H            2.124194414172    -3.312216445540     0.500144291353     1.007825032230
         H            2.958970414172    -2.821108445540    -0.978456708647     1.007825032230
         H            3.646601414172    -2.411005445540     0.598042291353     1.007825032230
         H            2.936811414172     2.833602554460    -1.027989708647     1.007825032230
         H            2.101330414172     3.345391554460     0.442934291353     1.007825032230
         H            3.630064414172     2.456659554460     0.554129291353     1.007825032230
         H           -2.709910585828     0.669840554460     1.728406291353     1.007825032230

  Basis Set: AUG-CC-PVTZ
    Blend: AUG-CC-PVTZ
  Basis Set: (AUG-CC-PVTZ AUX)
    Blend: AUG-CC-PVTZ-JKFIT
	 Reference Energy          =    -931.0547732647753492 [Eh]
	 Singles Energy            =      -0.0000000000000000 [Eh]
	 Same-Spin Energy          =      -0.6213551347034780 [Eh]
	 Opposite-Spin Energy      =      -1.8676671578463877 [Eh]
	 Correlation Energy        =      -2.4890222925498655 [Eh]
	 Total Energy              =    -933.5437955573252111 [Eh]

	 ================> DF-SCS-MP2 Energies <==================
	-----------------------------------------------------------
	 SCS Same-Spin Scale       =       0.3333333333333333 [-]
	 SCS Opposite-Spin Scale   =       1.2000000000000000 [-]
	 SCS Same-Spin Energy      =      -0.2071183782344927 [Eh]
	 SCS Opposite-Spin Energy  =      -2.2412005894156652 [Eh]
	 SCS Correlation Energy    =      -2.4483189676501578 [Eh]
	 SCS Total Energy          =    -933.5030922324255016 [Eh]
	-----------------------------------------------------------

  Dipole Moment: [D]
     X:     4.4085      Y:     1.0315      Z:     1.8875     Total:     4.9052

*** Psi4 exiting successfully. Buy a developer a beer!
