                               Psi4 1.4a3.dev225

  ==> Input File <==

--------------------------------------------------------------------------
#psi4
#
memory 32 gb

molecule  {
0 1
  S       -1.9906940    -0.0125100    -0.1365530
  O       -2.3617000    -0.1700640     1.4590810
  O       -2.4286150    -1.2343840    -0.7923790
  O       -2.4725380     1.3090340    -0.5392830
  C       -0.2242900    -0.0021990    -0.0874500
  C        1.8486770    -1.2201060     0.0278510
  C        1.8399080     1.2326580     0.0087760
  C        0.4429230     1.2221080    -0.0627730
  C        0.4524940    -1.2213400    -0.0491660
  C        2.5197880     0.0092800     0.0551460
  C        2.6153160    -2.5166400     0.0331700
  C        2.5970370     2.5347130    -0.0106060
  H       -0.1225000     2.1495790    -0.1127420
  H       -0.1051200    -2.1541630    -0.0856740
  H        3.6080620     0.0137470     0.1195720
  H        2.0290960    -3.3176030     0.4912070
  H        2.8638720    -2.8264950    -0.9873940
  H        3.4658826    -2.4255603     0.5382612
  H        2.8417130     2.8282160    -1.0369270
  H        2.0062320     3.3400050     0.4339970
  H        3.5349660     2.4512730     0.5451920
  H       -2.8050090     0.6644540     1.7194690
units angstrom
no_reorient  #important for SAPT in psi4, default
symmetry c1  #important for SAPT in psi4, default
}

set PROPERTIES_ORIGIN ["COM"]
properties('MP2/aug-cc-pvtz', properties = ['dipole'])
--------------------------------------------------------------------------

    Molecular point group: c1
  Charge       = 0
  Multiplicity = 1
  Basis Set: AUG-CC-PVTZ
    Blend: AUG-CC-PVTZ
  Basis Set: (AUG-CC-PVTZ AUX)
    Blend: AUG-CC-PVTZ-JKFIT

    Orbital Energies [Eh]
    ---------------------

    Doubly Occupied:

       1A    -92.228551     2A    -20.628472     3A    -20.564787
       4A    -20.560555     5A    -11.285764     6A    -11.267323
       7A    -11.266409     8A    -11.262493     9A    -11.261462
      10A    -11.257007    11A    -11.241387    12A    -11.228083
      13A     -9.191462    14A     -6.877082    15A     -6.875781
      16A     -6.875543    17A     -1.492526    18A     -1.378900
      19A     -1.351240    20A     -1.187736    21A     -1.082950
      22A     -1.075922    23A     -0.968182    24A     -0.956036
      25A     -0.923853    26A     -0.819585    27A     -0.811536
      28A     -0.740422    29A     -0.723043    30A     -0.691060
      31A     -0.684354    32A     -0.671096    33A     -0.628180
      34A     -0.604877    35A     -0.601201    36A     -0.591454
      37A     -0.589818    38A     -0.576907    39A     -0.571470
      40A     -0.552443    41A     -0.537964    42A     -0.523652
      43A     -0.507921    44A     -0.506556    45A     -0.500567
      46A     -0.483881    47A     -0.473677    48A     -0.363261
      49A     -0.344764

  @DF-RHF Final Energy:  -931.05143410424716

   => Energetics <=

    Nuclear Repulsion Energy =            830.9603568385575727
    One-Electron Energy =               -2927.2451960103453530
    Two-Electron Energy =                1165.2334050675408434
    Total Energy =                       -931.0514341042471642
  Basis Set: (AUG-CC-PVTZ AUX)
    Blend: AUG-CC-PVTZ-RI
    Molecular point group: c1

    Geometry (in Angstrom), charge = 0, multiplicity = 1:

       Center              X                  Y                   Z               Mass
    ------------   -----------------  -----------------  -----------------  -----------------
         S           -1.897913718793    -0.008557478190    -0.127357025939    31.972071174400
         O           -2.268919718793    -0.166111478190     1.468276974061    15.994914619570
         O           -2.335834718793    -1.230431478190    -0.783183025939    15.994914619570
         O           -2.379757718793     1.312986521810    -0.530087025939    15.994914619570
         C           -0.131509718793     0.001753521810    -0.078254025939    12.000000000000
         C            1.941457281207    -1.216153478190     0.037046974061    12.000000000000
         C            1.932688281207     1.236610521810     0.017971974061    12.000000000000
         C            0.535703281207     1.226060521810    -0.053577025939    12.000000000000
         C            0.545274281207    -1.217387478190    -0.039970025939    12.000000000000
         C            2.612568281207     0.013232521810     0.064341974061    12.000000000000
         C            2.708096281207    -2.512687478190     0.042365974061    12.000000000000
         C            2.689817281207     2.538665521810    -0.001410025939    12.000000000000
         H           -0.029719718793     2.153531521810    -0.103546025939     1.007825032230
         H           -0.012339718793    -2.150210478190    -0.076478025939     1.007825032230
         H            3.700842281207     0.017699521810     0.128767974061     1.007825032230
         H            2.121876281207    -3.313650478190     0.500402974061     1.007825032230
         H            2.956652281207    -2.822542478190    -0.978198025939     1.007825032230
         H            3.558662881207    -2.421607778190     0.547457174061     1.007825032230
         H            2.934493281207     2.832168521810    -1.027731025939     1.007825032230
         H            2.099012281207     3.343957521810     0.443192974061     1.007825032230
         H            3.627746281207     2.455225521810     0.554387974061     1.007825032230
         H           -2.712228718793     0.668406521810     1.728664974061     1.007825032230

  Basis Set: AUG-CC-PVTZ
    Blend: AUG-CC-PVTZ
  Basis Set: (AUG-CC-PVTZ AUX)
    Blend: AUG-CC-PVTZ-JKFIT
	 Reference Energy          =    -931.0514341042471642 [Eh]
	 Singles Energy            =      -0.0000000000000000 [Eh]
	 Same-Spin Energy          =      -0.6213029895292219 [Eh]
	 Opposite-Spin Energy      =      -1.8671688689232631 [Eh]
	 Correlation Energy        =      -2.4884718584524848 [Eh]
	 Total Energy              =    -933.5399059626996632 [Eh]

	 ================> DF-SCS-MP2 Energies <==================
	-----------------------------------------------------------
	 SCS Same-Spin Scale       =       0.3333333333333333 [-]
	 SCS Opposite-Spin Scale   =       1.2000000000000000 [-]
	 SCS Same-Spin Energy      =      -0.2071009965097406 [Eh]
	 SCS Opposite-Spin Energy  =      -2.2406026427079158 [Eh]
	 SCS Correlation Energy    =      -2.4477036392176563 [Eh]
	 SCS Total Energy          =    -933.4991377434648712 [Eh]
	-----------------------------------------------------------

  Dipole Moment: [D]
     X:     4.4687      Y:     0.9865      Z:     1.9045     Total:     4.9568

*** Psi4 exiting successfully. Buy a developer a beer!
