                               Psi4 1.4a3.dev225

  ==> Input File <==

--------------------------------------------------------------------------
#psi4
#
memory 32 gb

molecule  {
0 1
  S       -1.9906940    -0.0125100    -0.1365530
  O       -2.3617000    -0.1700640     1.4590810
  O       -2.4286150    -1.2343840    -0.7923790
  O       -2.4725380     1.3090340    -0.5392830
  C       -0.2242900    -0.0021990    -0.0874500
  C        1.8486770    -1.2201060     0.0278510
  C        1.8399080     1.2326580     0.0087760
  C        0.4429230     1.2221080    -0.0627730
  C        0.4524940    -1.2213400    -0.0491660
  C        2.4955130     0.0529605     0.0534904
  C        2.6153160    -2.5166400     0.0331700
  C        2.5970370     2.5347130    -0.0106060
  H       -0.1225000     2.1495790    -0.1127420
  H       -0.1051200    -2.1541630    -0.0856740
  H        3.6080620     0.0137470     0.1195720
  H        2.0290960    -3.3176030     0.4912070
  H        2.8638720    -2.8264950    -0.9873940
  H        3.5515030    -2.4163920     0.5891050
  H        2.8417130     2.8282160    -1.0369270
  H        2.0062320     3.3400050     0.4339970
  H        3.5349660     2.4512730     0.5451920
  H       -2.8050090     0.6644540     1.7194690
units angstrom
no_reorient  #important for SAPT in psi4, default
symmetry c1  #important for SAPT in psi4, default
}

set PROPERTIES_ORIGIN ["COM"]
properties('MP2/aug-cc-pvtz', properties = ['dipole'])
--------------------------------------------------------------------------

    Molecular point group: c1
  Charge       = 0
  Multiplicity = 1
  Basis Set: AUG-CC-PVTZ
    Blend: AUG-CC-PVTZ
  Basis Set: (AUG-CC-PVTZ AUX)
    Blend: AUG-CC-PVTZ-JKFIT

    Orbital Energies [Eh]
    ---------------------

    Doubly Occupied:

       1A    -92.228697     2A    -20.628530     3A    -20.564789
       4A    -20.560772     5A    -11.285704     6A    -11.269794
       7A    -11.264677     8A    -11.261311     9A    -11.260568
      10A    -11.256333    11A    -11.241817    12A    -11.240965
      13A     -9.191593    14A     -6.877214    15A     -6.875915
      16A     -6.875674    17A     -1.492621    18A     -1.378998
      19A     -1.351343    20A     -1.190344    21A     -1.084592
      22A     -1.074058    23A     -0.963828    24A     -0.953928
      25A     -0.923255    26A     -0.817880    27A     -0.812856
      28A     -0.739962    29A     -0.722572    30A     -0.689339
      31A     -0.683566    32A     -0.670107    33A     -0.627813
      34A     -0.603617    35A     -0.601657    36A     -0.591993
      37A     -0.585629    38A     -0.572794    39A     -0.568493
      40A     -0.548478    41A     -0.534702    42A     -0.523634
      43A     -0.510720    44A     -0.505968    45A     -0.501066
      46A     -0.483767    47A     -0.472967    48A     -0.366517
      49A     -0.344446

  @DF-RHF Final Energy:  -931.05447842725130

   => Energetics <=

    Nuclear Repulsion Energy =            830.9807642895744948
    One-Electron Energy =               -2927.3147636529911324
    Two-Electron Energy =                1165.2795209361654543
    Total Energy =                       -931.0544784272512970
  Basis Set: (AUG-CC-PVTZ AUX)
    Blend: AUG-CC-PVTZ-RI
    Molecular point group: c1

    Geometry (in Angstrom), charge = 0, multiplicity = 1:

       Center              X                  Y                   Z               Mass
    ------------   -----------------  -----------------  -----------------  -----------------
         S           -1.896811724299    -0.011424712070    -0.127525674007    31.972071174400
         O           -2.267817724299    -0.168978712070     1.468108325993    15.994914619570
         O           -2.334732724299    -1.233298712070    -0.783351674007    15.994914619570
         O           -2.378655724299     1.310119287930    -0.530255674007    15.994914619570
         C           -0.130407724299    -0.001113712070    -0.078422674007    12.000000000000
         C            1.942559275701    -1.219020712070     0.036878325993    12.000000000000
         C            1.933790275701     1.233743287930     0.017803325993    12.000000000000
         C            0.536805275701     1.223193287930    -0.053745674007    12.000000000000
         C            0.546376275701    -1.220254712070    -0.040138674007    12.000000000000
         C            2.589395275701     0.054045787930     0.062517725993    12.000000000000
         C            2.709198275701    -2.515554712070     0.042197325993    12.000000000000
         C            2.690919275701     2.535798287930    -0.001578674007    12.000000000000
         H           -0.028617724299     2.150664287930    -0.103714674007     1.007825032230
         H           -0.011237724299    -2.153077712070    -0.076646674007     1.007825032230
         H            3.701944275701     0.014832287930     0.128599325993     1.007825032230
         H            2.122978275701    -3.316517712070     0.500234325993     1.007825032230
         H            2.957754275701    -2.825409712070    -0.978366674007     1.007825032230
         H            3.645385275701    -2.415306712070     0.598132325993     1.007825032230
         H            2.935595275701     2.829301287930    -1.027899674007     1.007825032230
         H            2.100114275701     3.341090287930     0.443024325993     1.007825032230
         H            3.628848275701     2.452358287930     0.554219325993     1.007825032230
         H           -2.711126724299     0.665539287930     1.728496325993     1.007825032230

  Basis Set: AUG-CC-PVTZ
    Blend: AUG-CC-PVTZ
  Basis Set: (AUG-CC-PVTZ AUX)
    Blend: AUG-CC-PVTZ-JKFIT
	 Reference Energy          =    -931.0544784272512970 [Eh]
	 Singles Energy            =      -0.0000000000000000 [Eh]
	 Same-Spin Energy          =      -0.6212401174576100 [Eh]
	 Opposite-Spin Energy      =      -1.8676748462309958 [Eh]
	 Correlation Energy        =      -2.4889149636886057 [Eh]
	 Total Energy              =    -933.5433933909398547 [Eh]

	 ================> DF-SCS-MP2 Energies <==================
	-----------------------------------------------------------
	 SCS Same-Spin Scale       =       0.3333333333333333 [-]
	 SCS Opposite-Spin Scale   =       1.2000000000000000 [-]
	 SCS Same-Spin Energy      =      -0.2070800391525366 [Eh]
	 SCS Opposite-Spin Energy  =      -2.2412098154771947 [Eh]
	 SCS Correlation Energy    =      -2.4482898546297314 [Eh]
	 SCS Total Energy          =    -933.5027682818810035 [Eh]
	-----------------------------------------------------------

  Dipole Moment: [D]
     X:     4.4169      Y:     0.9500      Z:     1.8898     Total:     4.8973

*** Psi4 exiting successfully. Buy a developer a beer!
