                               Psi4 1.4a3.dev225

  ==> Input File <==

--------------------------------------------------------------------------
#psi4
#
memory 32 gb

molecule  {
0 1
  S       -1.9906940    -0.0125100    -0.1365530
  O       -2.3617000    -0.1700640     1.4590810
  O       -2.4286150    -1.2343840    -0.7923790
  O       -2.4725380     1.3090340    -0.5392830
  C       -0.2242900    -0.0021990    -0.0874500
  C        1.8486770    -1.2201060     0.0278510
  C        1.8399080     1.2326580     0.0087760
  C        0.4429230     1.2221080    -0.0627730
  C        0.4524940    -1.2213400    -0.0491660
  C        2.5197880     0.0092800     0.0551460
  C        2.6153160    -2.5166400     0.0331700
  C        2.5970370     2.5347130    -0.0106060
  H       -0.1225000     2.1495790    -0.1127420
  H       -0.1051200    -2.1541630    -0.0856740
  H        3.6080620     0.0137470     0.1195720
  H        2.0290960    -3.3176030     0.4912070
  H        2.8265719    -2.8265176    -0.9957556
  H        3.5515030    -2.4163920     0.5891050
  H        2.8417130     2.8282160    -1.0369270
  H        2.0062320     3.3400050     0.4339970
  H        3.5349660     2.4512730     0.5451920
  H       -2.8050090     0.6644540     1.7194690
units angstrom
no_reorient  #important for SAPT in psi4, default
symmetry c1  #important for SAPT in psi4, default
}

set PROPERTIES_ORIGIN ["COM"]
properties('MP2/aug-cc-pvtz', properties = ['dipole'])
--------------------------------------------------------------------------

    Molecular point group: c1
  Charge       = 0
  Multiplicity = 1
  Basis Set: AUG-CC-PVTZ
    Blend: AUG-CC-PVTZ
  Basis Set: (AUG-CC-PVTZ AUX)
    Blend: AUG-CC-PVTZ-JKFIT

    Orbital Energies [Eh]
    ---------------------

    Doubly Occupied:

       1A    -92.228749     2A    -20.628625     3A    -20.564957
       4A    -20.560749     5A    -11.286039     6A    -11.267395
       7A    -11.266982     8A    -11.262618     9A    -11.261917
      10A    -11.256958    11A    -11.241428    12A    -11.240478
      13A     -9.191656    14A     -6.877276    15A     -6.875976
      16A     -6.875739    17A     -1.492697    18A     -1.379062
      19A     -1.351419    20A     -1.187822    21A     -1.081695
      22A     -1.075413    23A     -0.962494    24A     -0.953646
      25A     -0.923989    26A     -0.819054    27A     -0.809654
      28A     -0.739976    29A     -0.722698    30A     -0.691156
      31A     -0.683630    32A     -0.670642    33A     -0.627777
      34A     -0.602404    35A     -0.601229    36A     -0.591456
      37A     -0.586410    38A     -0.574555    39A     -0.569030
      40A     -0.547645    41A     -0.537561    42A     -0.523666
      43A     -0.508160    44A     -0.506793    45A     -0.500577
      46A     -0.483984    47A     -0.473609    48A     -0.363254
      49A     -0.344885

  @DF-RHF Final Energy:  -931.05729536546619

   => Energetics <=

    Nuclear Repulsion Energy =            830.5188210171155561
    One-Electron Energy =               -2926.4010637538044648
    Two-Electron Energy =                1164.8249473712228337
    Total Energy =                       -931.0572953654661887
  Basis Set: (AUG-CC-PVTZ AUX)
    Blend: AUG-CC-PVTZ-RI
    Molecular point group: c1

    Geometry (in Angstrom), charge = 0, multiplicity = 1:

       Center              X                  Y                   Z               Mass
    ------------   -----------------  -----------------  -----------------  -----------------
         S           -1.898175488840    -0.008607024040    -0.127587168706    31.972071174400
         O           -2.269181488840    -0.166161024040     1.468046831294    15.994914619570
         O           -2.336096488840    -1.230481024040    -0.783413168706    15.994914619570
         O           -2.380019488840     1.312936975960    -0.530317168706    15.994914619570
         C           -0.131771488840     0.001703975960    -0.078484168706    12.000000000000
         C            1.941195511160    -1.216203024040     0.036816831294    12.000000000000
         C            1.932426511160     1.236560975960     0.017741831294    12.000000000000
         C            0.535441511160     1.226010975960    -0.053807168706    12.000000000000
         C            0.545012511160    -1.217437024040    -0.040200168706    12.000000000000
         C            2.612306511160     0.013182975960     0.064111831294    12.000000000000
         C            2.707834511160    -2.512737024040     0.042135831294    12.000000000000
         C            2.689555511160     2.538615975960    -0.001640168706    12.000000000000
         H           -0.029981488840     2.153481975960    -0.103776168706     1.007825032230
         H           -0.012601488840    -2.150260024040    -0.076708168706     1.007825032230
         H            3.700580511160     0.017649975960     0.128537831294     1.007825032230
         H            2.121614511160    -3.313700024040     0.500172831294     1.007825032230
         H            2.919090411160    -2.822614624040    -0.986789768706     1.007825032230
         H            3.644021511160    -2.412489024040     0.598070831294     1.007825032230
         H            2.934231511160     2.832118975960    -1.027961168706     1.007825032230
         H            2.098750511160     3.343907975960     0.442962831294     1.007825032230
         H            3.627484511160     2.455175975960     0.554157831294     1.007825032230
         H           -2.712490488840     0.668356975960     1.728434831294     1.007825032230

  Basis Set: AUG-CC-PVTZ
    Blend: AUG-CC-PVTZ
  Basis Set: (AUG-CC-PVTZ AUX)
    Blend: AUG-CC-PVTZ-JKFIT
	 Reference Energy          =    -931.0572953654661887 [Eh]
	 Singles Energy            =      -0.0000000000000000 [Eh]
	 Same-Spin Energy          =      -0.6213146093282251 [Eh]
	 Opposite-Spin Energy      =      -1.8677112383521193 [Eh]
	 Correlation Energy        =      -2.4890258476803444 [Eh]
	 Total Energy              =    -933.5463212131464843 [Eh]

	 ================> DF-SCS-MP2 Energies <==================
	-----------------------------------------------------------
	 SCS Same-Spin Scale       =       0.3333333333333333 [-]
	 SCS Opposite-Spin Scale   =       1.2000000000000000 [-]
	 SCS Same-Spin Energy      =      -0.2071048697760750 [Eh]
	 SCS Opposite-Spin Energy  =      -2.2412534860225430 [Eh]
	 SCS Correlation Energy    =      -2.4483583557986179 [Eh]
	 SCS Total Energy          =    -933.5056537212648209 [Eh]
	-----------------------------------------------------------

  Dipole Moment: [D]
     X:     4.4191      Y:     0.9942      Z:     1.8900     Total:     4.9081

*** Psi4 exiting successfully. Buy a developer a beer!
