                               Psi4 1.4a3.dev225

  ==> Input File <==

--------------------------------------------------------------------------
#psi4
#
memory 32 gb

molecule  {
0 1
  S       -1.9450350    -0.1178282    -0.1322010
  O       -2.3617000    -0.1700640     1.4590810
  O       -2.4286150    -1.2343840    -0.7923790
  O       -2.4725380     1.3090340    -0.5392830
  C       -0.2242900    -0.0021990    -0.0874500
  C        1.8486770    -1.2201060     0.0278510
  C        1.8399080     1.2326580     0.0087760
  C        0.4429230     1.2221080    -0.0627730
  C        0.4524940    -1.2213400    -0.0491660
  C        2.5197880     0.0092800     0.0551460
  C        2.6153160    -2.5166400     0.0331700
  C        2.5970370     2.5347130    -0.0106060
  H       -0.1225000     2.1495790    -0.1127420
  H       -0.1051200    -2.1541630    -0.0856740
  H        3.6080620     0.0137470     0.1195720
  H        2.0290960    -3.3176030     0.4912070
  H        2.8638720    -2.8264950    -0.9873940
  H        3.5515030    -2.4163920     0.5891050
  H        2.8417130     2.8282160    -1.0369270
  H        2.0062320     3.3400050     0.4339970
  H        3.5349660     2.4512730     0.5451920
  H       -2.8050090     0.6644540     1.7194690
units angstrom
no_reorient  #important for SAPT in psi4, default
symmetry c1  #important for SAPT in psi4, default
}

set PROPERTIES_ORIGIN ["COM"]
properties('MP2/aug-cc-pvtz', properties = ['dipole'])
--------------------------------------------------------------------------

    Molecular point group: c1
  Charge       = 0
  Multiplicity = 1
  Basis Set: AUG-CC-PVTZ
    Blend: AUG-CC-PVTZ
  Basis Set: (AUG-CC-PVTZ AUX)
    Blend: AUG-CC-PVTZ-JKFIT

    Orbital Energies [Eh]
    ---------------------

    Doubly Occupied:

       1A    -92.224546     2A    -20.622559     3A    -20.578057
       4A    -20.535701     5A    -11.287864     6A    -11.270645
       7A    -11.270493     8A    -11.267675     9A    -11.267354
      10A    -11.262001    11A    -11.243324    12A    -11.243260
      13A     -9.189477    14A     -6.874848    15A     -6.873873
      16A     -6.873191    17A     -1.502323    18A     -1.395146
      19A     -1.294207    20A     -1.193091    21A     -1.086379
      22A     -1.083409    23A     -0.966360    24A     -0.957516
      25A     -0.931802    26A     -0.823409    27A     -0.814188
      28A     -0.744966    29A     -0.723373    30A     -0.692412
      31A     -0.688405    32A     -0.667559    33A     -0.620560
      34A     -0.605589    35A     -0.603723    36A     -0.595243
      37A     -0.587798    38A     -0.574966    39A     -0.571774
      40A     -0.551536    41A     -0.545742    42A     -0.525682
      43A     -0.511767    44A     -0.506638    45A     -0.492942
      46A     -0.461161    47A     -0.456565    48A     -0.368336
      49A     -0.348466

  @DF-RHF Final Energy:  -931.03470570987247

   => Energetics <=

    Nuclear Repulsion Energy =            831.3648027368949442
    One-Electron Energy =               -2928.0432092963646937
    Two-Electron Energy =                1165.6437008495972805
    Total Energy =                       -931.0347057098724690
  Basis Set: (AUG-CC-PVTZ AUX)
    Blend: AUG-CC-PVTZ-RI
    Molecular point group: c1

    Geometry (in Angstrom), charge = 0, multiplicity = 1:

       Center              X                  Y                   Z               Mass
    ------------   -----------------  -----------------  -----------------  -----------------
         S           -1.860565534698    -0.095825312590    -0.124028403482    31.972071174400
         O           -2.277230534698    -0.148061112590     1.467253596518    15.994914619570
         O           -2.344145534698    -1.212381112590    -0.784206403482    15.994914619570
         O           -2.388068534698     1.331036887410    -0.531110403482    15.994914619570
         C           -0.139820534698     0.019803887410    -0.079277403482    12.000000000000
         C            1.933146465302    -1.198103112590     0.036023596518    12.000000000000
         C            1.924377465302     1.254660887410     0.016948596518    12.000000000000
         C            0.527392465302     1.244110887410    -0.054600403482    12.000000000000
         C            0.536963465302    -1.199337112590    -0.040993403482    12.000000000000
         C            2.604257465302     0.031282887410     0.063318596518    12.000000000000
         C            2.699785465302    -2.494637112590     0.041342596518    12.000000000000
         C            2.681506465302     2.556715887410    -0.002433403482    12.000000000000
         H           -0.038030534698     2.171581887410    -0.104569403482     1.007825032230
         H           -0.020650534698    -2.132160112590    -0.077501403482     1.007825032230
         H            3.692531465302     0.035749887410     0.127744596518     1.007825032230
         H            2.113565465302    -3.295600112590     0.499379596518     1.007825032230
         H            2.948341465302    -2.804492112590    -0.979221403482     1.007825032230
         H            3.635972465302    -2.394389112590     0.597277596518     1.007825032230
         H            2.926182465302     2.850218887410    -1.028754403482     1.007825032230
         H            2.090701465302     3.362007887410     0.442169596518     1.007825032230
         H            3.619435465302     2.473275887410     0.553364596518     1.007825032230
         H           -2.720539534698     0.686456887410     1.727641596518     1.007825032230

  Basis Set: AUG-CC-PVTZ
    Blend: AUG-CC-PVTZ
  Basis Set: (AUG-CC-PVTZ AUX)
    Blend: AUG-CC-PVTZ-JKFIT
	 Reference Energy          =    -931.0347057098724690 [Eh]
	 Singles Energy            =      -0.0000000000000000 [Eh]
	 Same-Spin Energy          =      -0.6213547568817355 [Eh]
	 Opposite-Spin Energy      =      -1.8680088281824303 [Eh]
	 Correlation Energy        =      -2.4893635850641660 [Eh]
	 Total Energy              =    -933.5240692949366803 [Eh]

	 ================> DF-SCS-MP2 Energies <==================
	-----------------------------------------------------------
	 SCS Same-Spin Scale       =       0.3333333333333333 [-]
	 SCS Opposite-Spin Scale   =       1.2000000000000000 [-]
	 SCS Same-Spin Energy      =      -0.2071182522939118 [Eh]
	 SCS Opposite-Spin Energy  =      -2.2416105938189164 [Eh]
	 SCS Correlation Energy    =      -2.4487288461128283 [Eh]
	 SCS Total Energy          =    -933.4834345559852409 [Eh]
	-----------------------------------------------------------

  Dipole Moment: [D]
     X:     5.0747      Y:     0.0697      Z:     1.9031     Total:     5.4203

*** Psi4 exiting successfully. Buy a developer a beer!
