                               Psi4 1.4a3.dev225

  ==> Input File <==

--------------------------------------------------------------------------
#psi4
#
memory 32 gb

molecule  {
0 1
  S       -1.9906940    -0.0125100    -0.1365530
  O       -2.3617000    -0.1700640     1.4590810
  O       -2.4286150    -1.2343840    -0.7923790
  O       -2.4725380     1.3090340    -0.5392830
  C       -0.2242900    -0.0021990    -0.0874500
  C        1.8486770    -1.2201060     0.0278510
  C        1.8399080     1.2326580     0.0087760
  C        0.4429230     1.2221080    -0.0627730
  C        0.4524940    -1.2213400    -0.0491660
  C        2.5197880     0.0092800     0.0551460
  C        2.6153160    -2.5166400     0.0331700
  C        2.5970370     2.5347130    -0.0106060
  H       -0.1225000     2.1495790    -0.1127420
  H       -0.1051200    -2.1541630    -0.0856740
  H        3.6080620     0.0137470     0.1195720
  H        2.0290960    -3.3176030     0.4912070
  H        2.8638720    -2.8264950    -0.9873940
  H        3.5515030    -2.4163920     0.5891050
  H        2.8417130     2.8282160    -1.0369270
  H        1.8981507     3.4873244     0.5153323
  H        3.5349660     2.4512730     0.5451920
  H       -2.8050090     0.6644540     1.7194690
units angstrom
no_reorient  #important for SAPT in psi4, default
symmetry c1  #important for SAPT in psi4, default
}

set PROPERTIES_ORIGIN ["COM"]
properties('MP2/aug-cc-pvtz', properties = ['dipole'])
--------------------------------------------------------------------------

    Molecular point group: c1
  Charge       = 0
  Multiplicity = 1
  Basis Set: AUG-CC-PVTZ
    Blend: AUG-CC-PVTZ
  Basis Set: (AUG-CC-PVTZ AUX)
    Blend: AUG-CC-PVTZ-JKFIT

    Orbital Energies [Eh]
    ---------------------

    Doubly Occupied:

       1A    -92.229094     2A    -20.628878     3A    -20.565201
       4A    -20.561087     5A    -11.286532     6A    -11.269445
       7A    -11.268047     8A    -11.263914     9A    -11.263398
      10A    -11.262851    11A    -11.258841    12A    -11.241037
      13A     -9.191996    14A     -6.877616    15A     -6.876318
      16A     -6.876079    17A     -1.492978    18A     -1.379325
      19A     -1.351694    20A     -1.188642    21A     -1.080839
      22A     -1.075708    23A     -0.959032    24A     -0.948599
      25A     -0.924494    26A     -0.819481    27A     -0.807017
      28A     -0.740208    29A     -0.723126    30A     -0.691545
      31A     -0.683632    32A     -0.670436    33A     -0.627862
      34A     -0.603347    35A     -0.599483    36A     -0.592767
      37A     -0.584812    38A     -0.574669    39A     -0.560100
      40A     -0.539116    41A     -0.532048    42A     -0.523226
      43A     -0.507732    44A     -0.504010    45A     -0.496950
      46A     -0.484154    47A     -0.474180    48A     -0.364266
      49A     -0.345373

  @DF-RHF Final Energy:  -931.03712163252999

   => Energetics <=

    Nuclear Repulsion Energy =            829.7073386244956055
    One-Electron Energy =               -2924.7465531622697199
    Two-Electron Energy =                1164.0020929052441261
    Total Energy =                       -931.0371216325299883
  Basis Set: (AUG-CC-PVTZ AUX)
    Blend: AUG-CC-PVTZ-RI
    Molecular point group: c1

    Geometry (in Angstrom), charge = 0, multiplicity = 1:

       Center              X                  Y                   Z               Mass
    ------------   -----------------  -----------------  -----------------  -----------------
         S           -1.897792039274    -0.009405233537    -0.128073092050    31.972071174400
         O           -2.268798039274    -0.166959233537     1.467560907950    15.994914619570
         O           -2.335713039274    -1.231279233537    -0.783899092050    15.994914619570
         O           -2.379636039274     1.312138766463    -0.530803092050    15.994914619570
         C           -0.131388039274     0.000905766463    -0.078970092050    12.000000000000
         C            1.941578960726    -1.217001233537     0.036330907950    12.000000000000
         C            1.932809960726     1.235762766463     0.017255907950    12.000000000000
         C            0.535824960726     1.225212766463    -0.054293092050    12.000000000000
         C            0.545395960726    -1.218235233537    -0.040686092050    12.000000000000
         C            2.612689960726     0.012384766463     0.063625907950    12.000000000000
         C            2.708217960726    -2.513535233537     0.041649907950    12.000000000000
         C            2.689938960726     2.537817766463    -0.002126092050    12.000000000000
         H           -0.029598039274     2.152683766463    -0.104262092050     1.007825032230
         H           -0.012218039274    -2.151058233537    -0.077194092050     1.007825032230
         H            3.700963960726     0.016851766463     0.128051907950     1.007825032230
         H            2.121997960726    -3.314498233537     0.499686907950     1.007825032230
         H            2.956773960726    -2.823390233537    -0.978914092050     1.007825032230
         H            3.644404960726    -2.413287233537     0.597584907950     1.007825032230
         H            2.934614960726     2.831320766463    -1.028447092050     1.007825032230
         H            1.991052660726     3.490429166463     0.523812207950     1.007825032230
         H            3.627867960726     2.454377766463     0.553671907950     1.007825032230
         H           -2.712107039274     0.667558766463     1.727948907950     1.007825032230

  Basis Set: AUG-CC-PVTZ
    Blend: AUG-CC-PVTZ
  Basis Set: (AUG-CC-PVTZ AUX)
    Blend: AUG-CC-PVTZ-JKFIT
	 Reference Energy          =    -931.0371216325299883 [Eh]
	 Singles Energy            =      -0.0000000000000000 [Eh]
	 Same-Spin Energy          =      -0.6213512635335976 [Eh]
	 Opposite-Spin Energy      =      -1.8693635795101382 [Eh]
	 Correlation Energy        =      -2.4907148430437358 [Eh]
	 Total Energy              =    -933.5278364755737357 [Eh]

	 ================> DF-SCS-MP2 Energies <==================
	-----------------------------------------------------------
	 SCS Same-Spin Scale       =       0.3333333333333333 [-]
	 SCS Opposite-Spin Scale   =       1.2000000000000000 [-]
	 SCS Same-Spin Energy      =      -0.2071170878445325 [Eh]
	 SCS Opposite-Spin Energy  =      -2.2432362954121658 [Eh]
	 SCS Correlation Energy    =      -2.4503533832566982 [Eh]
	 SCS Total Energy          =    -933.4874750157866856 [Eh]
	-----------------------------------------------------------

  Dipole Moment: [D]
     X:     4.4394      Y:     0.8803      Z:     1.8538     Total:     4.8907

*** Psi4 exiting successfully. Buy a developer a beer!
