                               Psi4 1.4a3.dev225

  ==> Input File <==

--------------------------------------------------------------------------
#psi4
#
memory 32 gb

molecule  {
0 1
  S       -1.9906940    -0.0125100    -0.1365530
  O       -2.3617000    -0.1700640     1.4590810
  O       -2.4286150    -1.2343840    -0.7923790
  O       -2.4725380     1.3090340    -0.5392830
  C       -0.2242900    -0.0021990    -0.0874500
  C        1.8486770    -1.2201060     0.0278510
  C        1.8399080     1.2326580     0.0087760
  C        0.4429230     1.2221080    -0.0627730
  C        0.4524940    -1.2213400    -0.0491660
  C        2.5197880     0.0092800     0.0551460
  C        2.6153160    -2.5166400     0.0331700
  C        2.5970370     2.5347130    -0.0106060
  H       -0.1225000     2.1495790    -0.1127420
  H       -0.1051200    -2.1541630    -0.0856740
  H        3.6080620     0.0137470     0.1195720
  H        2.0290960    -3.3176030     0.4912070
  H        2.9737754    -2.8241644    -0.9548971
  H        3.5515030    -2.4163920     0.5891050
  H        2.8417130     2.8282160    -1.0369270
  H        2.0062320     3.3400050     0.4339970
  H        3.5349660     2.4512730     0.5451920
  H       -2.8050090     0.6644540     1.7194690
units angstrom
no_reorient  #important for SAPT in psi4, default
symmetry c1  #important for SAPT in psi4, default
}

set PROPERTIES_ORIGIN ["COM"]
properties('MP2/aug-cc-pvtz', properties = ['dipole'])
--------------------------------------------------------------------------

    Molecular point group: c1
  Charge       = 0
  Multiplicity = 1
  Basis Set: AUG-CC-PVTZ
    Blend: AUG-CC-PVTZ
  Basis Set: (AUG-CC-PVTZ AUX)
    Blend: AUG-CC-PVTZ-JKFIT

    Orbital Energies [Eh]
    ---------------------

    Doubly Occupied:

       1A    -92.228846     2A    -20.628701     3A    -20.565052
       4A    -20.560804     5A    -11.286150     6A    -11.267659
       7A    -11.267570     8A    -11.263204     9A    -11.262416
      10A    -11.257511    11A    -11.241609    12A    -11.240103
      13A     -9.191750    14A     -6.877370    15A     -6.876071
      16A     -6.875832    17A     -1.492776    18A     -1.379136
      19A     -1.351493    20A     -1.188041    21A     -1.081513
      22A     -1.075538    23A     -0.962448    24A     -0.954132
      25A     -0.924171    26A     -0.819463    27A     -0.810540
      28A     -0.740371    29A     -0.723190    30A     -0.691366
      31A     -0.683890    32A     -0.670848    33A     -0.627996
      34A     -0.603756    35A     -0.599762    36A     -0.592903
      37A     -0.583250    38A     -0.573543    39A     -0.568408
      40A     -0.548576    41A     -0.537677    42A     -0.523185
      43A     -0.508610    44A     -0.506706    45A     -0.501389
      46A     -0.483976    47A     -0.473558    48A     -0.363333
      49A     -0.345367

  @DF-RHF Final Energy:  -931.05619278563688

   => Energetics <=

    Nuclear Repulsion Energy =            830.3519093151219295
    One-Electron Energy =               -2926.0530894020002961
    Two-Electron Energy =                1164.6449873012415992
    Total Energy =                       -931.0561927856369948
  Basis Set: (AUG-CC-PVTZ AUX)
    Blend: AUG-CC-PVTZ-RI
    Molecular point group: c1

    Geometry (in Angstrom), charge = 0, multiplicity = 1:

       Center              X                  Y                   Z               Mass
    ------------   -----------------  -----------------  -----------------  -----------------
         S           -1.898972948028    -0.008619772249    -0.127808515251    31.972071174400
         O           -2.269978948028    -0.166173772249     1.467825484749    15.994914619570
         O           -2.336893948028    -1.230493772249    -0.783634515251    15.994914619570
         O           -2.380816948028     1.312924227751    -0.530538515251    15.994914619570
         C           -0.132568948028     0.001691227751    -0.078705515251    12.000000000000
         C            1.940398051972    -1.216215772249     0.036595484749    12.000000000000
         C            1.931629051972     1.236548227751     0.017520484749    12.000000000000
         C            0.534644051972     1.225998227751    -0.054028515251    12.000000000000
         C            0.544215051972    -1.217449772249    -0.040421515251    12.000000000000
         C            2.611509051972     0.013170227751     0.063890484749    12.000000000000
         C            2.707037051972    -2.512749772249     0.041914484749    12.000000000000
         C            2.688758051972     2.538603227751    -0.001861515251    12.000000000000
         H           -0.030778948028     2.153469227751    -0.103997515251     1.007825032230
         H           -0.013398948028    -2.150272772249    -0.076929515251     1.007825032230
         H            3.699783051972     0.017637227751     0.128316484749     1.007825032230
         H            2.120817051972    -3.313712772249     0.499951484749     1.007825032230
         H            3.065496451972    -2.820274172249    -0.946152615251     1.007825032230
         H            3.643224051972    -2.412501772249     0.597849484749     1.007825032230
         H            2.933434051972     2.832106227751    -1.028182515251     1.007825032230
         H            2.097953051972     3.343895227751     0.442741484749     1.007825032230
         H            3.626687051972     2.455163227751     0.553936484749     1.007825032230
         H           -2.713287948028     0.668344227751     1.728213484749     1.007825032230

  Basis Set: AUG-CC-PVTZ
    Blend: AUG-CC-PVTZ
  Basis Set: (AUG-CC-PVTZ AUX)
    Blend: AUG-CC-PVTZ-JKFIT
	 Reference Energy          =    -931.0561927856368811 [Eh]
	 Singles Energy            =      -0.0000000000000000 [Eh]
	 Same-Spin Energy          =      -0.6213334065041938 [Eh]
	 Opposite-Spin Energy      =      -1.8676930984849616 [Eh]
	 Correlation Energy        =      -2.4890265049891553 [Eh]
	 Total Energy              =    -933.5452192906260507 [Eh]

	 ================> DF-SCS-MP2 Energies <==================
	-----------------------------------------------------------
	 SCS Same-Spin Scale       =       0.3333333333333333 [-]
	 SCS Opposite-Spin Scale   =       1.2000000000000000 [-]
	 SCS Same-Spin Energy      =      -0.2071111355013979 [Eh]
	 SCS Opposite-Spin Energy  =      -2.2412317181819539 [Eh]
	 SCS Correlation Energy    =      -2.4483428536833518 [Eh]
	 SCS Total Energy          =    -933.5045356393202383 [Eh]
	-----------------------------------------------------------

  Dipole Moment: [D]
     X:     4.4598      Y:     1.0273      Z:     1.8936     Total:     4.9529

*** Psi4 exiting successfully. Buy a developer a beer!
