                               Psi4 1.4a3.dev225

  ==> Input File <==

--------------------------------------------------------------------------
#psi4
#
memory 32 gb

molecule  {
0 1
  S       -1.9906940    -0.0125100    -0.1365530
  O       -2.3617000    -0.1700640     1.4590810
  O       -2.4286150    -1.2343840    -0.7923790
  O       -2.4725380     1.3090340    -0.5392830
  C       -0.2242900    -0.0021990    -0.0874500
  C        1.8486770    -1.2201060     0.0278510
  C        1.8399080     1.2326580     0.0087760
  C        0.4429230     1.2221080    -0.0627730
  C        0.4524940    -1.2213400    -0.0491660
  C        2.3881282    -0.0551433     0.0541984
  C        2.6153160    -2.5166400     0.0331700
  C        2.5970370     2.5347130    -0.0106060
  H       -0.1225000     2.1495790    -0.1127420
  H       -0.1051200    -2.1541630    -0.0856740
  H        3.6080620     0.0137470     0.1195720
  H        2.0290960    -3.3176030     0.4912070
  H        2.8638720    -2.8264950    -0.9873940
  H        3.5515030    -2.4163920     0.5891050
  H        2.8417130     2.8282160    -1.0369270
  H        2.0062320     3.3400050     0.4339970
  H        3.5349660     2.4512730     0.5451920
  H       -2.8050090     0.6644540     1.7194690
units angstrom
no_reorient  #important for SAPT in psi4, default
symmetry c1  #important for SAPT in psi4, default
}

set PROPERTIES_ORIGIN ["COM"]
properties('MP2/aug-cc-pvtz', properties = ['dipole'])
--------------------------------------------------------------------------

    Molecular point group: c1
  Charge       = 0
  Multiplicity = 1
  Basis Set: AUG-CC-PVTZ
    Blend: AUG-CC-PVTZ
  Basis Set: (AUG-CC-PVTZ AUX)
    Blend: AUG-CC-PVTZ-JKFIT

    Orbital Energies [Eh]
    ---------------------

    Doubly Occupied:

       1A    -92.228531     2A    -20.628339     3A    -20.564834
       4A    -20.560247     5A    -11.283861     6A    -11.268157
       7A    -11.266073     8A    -11.261551     9A    -11.255901
      10A    -11.252388    11A    -11.245676    12A    -11.241816
      13A     -9.191390    14A     -6.877014    15A     -6.875707
      16A     -6.875483    17A     -1.492420    18A     -1.378806
      19A     -1.351163    20A     -1.201902    21A     -1.091266
      22A     -1.074506    23A     -0.970224    24A     -0.955054
      25A     -0.920160    26A     -0.828691    27A     -0.812454
      28A     -0.740268    29A     -0.722437    30A     -0.690122
      31A     -0.677374    32A     -0.667190    33A     -0.627123
      34A     -0.608921    35A     -0.605348    36A     -0.593627
      37A     -0.587305    38A     -0.571542    39A     -0.564048
      40A     -0.550082    41A     -0.529348    42A     -0.524749
      43A     -0.514141    44A     -0.504018    45A     -0.497375
      46A     -0.483484    47A     -0.466521    48A     -0.375728
      49A     -0.345405

  @DF-RHF Final Energy:  -931.03052115120272

   => Energetics <=

    Nuclear Repulsion Energy =            833.2117297762508770
    One-Electron Energy =               -2931.6849590160159096
    Two-Electron Energy =                1167.4427080885620853
    Total Energy =                       -931.0305211512027199
  Basis Set: (AUG-CC-PVTZ AUX)
    Blend: AUG-CC-PVTZ-RI
    Molecular point group: c1

    Geometry (in Angstrom), charge = 0, multiplicity = 1:

       Center              X                  Y                   Z               Mass
    ------------   -----------------  -----------------  -----------------  -----------------
         S           -1.889884978540    -0.004451587958    -0.127571342817    31.972071174400
         O           -2.260890978540    -0.162005587958     1.468062657183    15.994914619570
         O           -2.327805978540    -1.226325587958    -0.783397342817    15.994914619570
         O           -2.371728978540     1.317092412042    -0.530301342817    15.994914619570
         C           -0.123480978540     0.005859412042    -0.078468342817    12.000000000000
         C            1.949486021460    -1.212047587958     0.036832657183    12.000000000000
         C            1.940717021460     1.240716412042     0.017757657183    12.000000000000
         C            0.543732021460     1.230166412042    -0.053791342817    12.000000000000
         C            0.553303021460    -1.213281587958    -0.040184342817    12.000000000000
         C            2.488937221460    -0.047084887958     0.063180057183    12.000000000000
         C            2.716125021460    -2.508581587958     0.042151657183    12.000000000000
         C            2.697846021460     2.542771412042    -0.001624342817    12.000000000000
         H           -0.021690978540     2.157637412042    -0.103760342817     1.007825032230
         H           -0.004310978540    -2.146104587958    -0.076692342817     1.007825032230
         H            3.708871021460     0.021805412042     0.128553657183     1.007825032230
         H            2.129905021460    -3.309544587958     0.500188657183     1.007825032230
         H            2.964681021460    -2.818436587958    -0.978412342817     1.007825032230
         H            3.652312021460    -2.408333587958     0.598086657183     1.007825032230
         H            2.942522021460     2.836274412042    -1.027945342817     1.007825032230
         H            2.107041021460     3.348063412042     0.442978657183     1.007825032230
         H            3.635775021460     2.459331412042     0.554173657183     1.007825032230
         H           -2.704199978540     0.672512412042     1.728450657183     1.007825032230

  Basis Set: AUG-CC-PVTZ
    Blend: AUG-CC-PVTZ
  Basis Set: (AUG-CC-PVTZ AUX)
    Blend: AUG-CC-PVTZ-JKFIT
	 Reference Energy          =    -931.0305211512027199 [Eh]
	 Singles Energy            =      -0.0000000000000000 [Eh]
	 Same-Spin Energy          =      -0.6216947685389813 [Eh]
	 Opposite-Spin Energy      =      -1.8685536586722133 [Eh]
	 Correlation Energy        =      -2.4902484272111947 [Eh]
	 Total Energy              =    -933.5207695784139332 [Eh]

	 ================> DF-SCS-MP2 Energies <==================
	-----------------------------------------------------------
	 SCS Same-Spin Scale       =       0.3333333333333333 [-]
	 SCS Opposite-Spin Scale   =       1.2000000000000000 [-]
	 SCS Same-Spin Energy      =      -0.2072315895129938 [Eh]
	 SCS Opposite-Spin Energy  =      -2.2422643904066559 [Eh]
	 SCS Correlation Energy    =      -2.4494959799196496 [Eh]
	 SCS Total Energy          =    -933.4800171311223949 [Eh]
	-----------------------------------------------------------

  Dipole Moment: [D]
     X:     4.3169      Y:     1.0842      Z:     1.8802     Total:     4.8318

*** Psi4 exiting successfully. Buy a developer a beer!
