                               Psi4 1.4a3.dev225

  ==> Input File <==

--------------------------------------------------------------------------
#psi4
#
memory 32 gb

molecule  {
0 1
  S       -1.9906940    -0.0125100    -0.1365530
  O       -2.3617000    -0.1700640     1.4590810
  O       -2.4286150    -1.2343840    -0.7923790
  O       -2.4725380     1.3090340    -0.5392830
  C       -0.2242900    -0.0021990    -0.0874500
  C        1.8486770    -1.2201060     0.0278510
  C        1.8399080     1.2326580     0.0087760
  C        0.4429230     1.2221080    -0.0627730
  C        0.4524940    -1.2213400    -0.0491660
  C        2.5197880     0.0092800     0.0551460
  C        2.6153160    -2.5166400     0.0331700
  C        2.6473009     2.6211531    -0.0118927
  H       -0.1225000     2.1495790    -0.1127420
  H       -0.1051200    -2.1541630    -0.0856740
  H        3.6080620     0.0137470     0.1195720
  H        2.0290960    -3.3176030     0.4912070
  H        2.8638720    -2.8264950    -0.9873940
  H        3.5515030    -2.4163920     0.5891050
  H        2.8417130     2.8282160    -1.0369270
  H        2.0062320     3.3400050     0.4339970
  H        3.5349660     2.4512730     0.5451920
  H       -2.8050090     0.6644540     1.7194690
units angstrom
no_reorient  #important for SAPT in psi4, default
symmetry c1  #important for SAPT in psi4, default
}

set PROPERTIES_ORIGIN ["COM"]
properties('MP2/aug-cc-pvtz', properties = ['dipole'])
--------------------------------------------------------------------------

    Molecular point group: c1
  Charge       = 0
  Multiplicity = 1
  Basis Set: AUG-CC-PVTZ
    Blend: AUG-CC-PVTZ
  Basis Set: (AUG-CC-PVTZ AUX)
    Blend: AUG-CC-PVTZ-JKFIT

    Orbital Energies [Eh]
    ---------------------

    Doubly Occupied:

       1A    -92.228495     2A    -20.628417     3A    -20.564741
       4A    -20.560517     5A    -11.285687     6A    -11.270597
       7A    -11.266765     8A    -11.262664     9A    -11.261718
      10A    -11.257021    11A    -11.240333    12A    -11.240108
      13A     -9.191405    14A     -6.877024    15A     -6.875723
      16A     -6.875487    17A     -1.492477    18A     -1.378853
      19A     -1.351200    20A     -1.185535    21A     -1.077701
      22A     -1.069451    23A     -0.963802    24A     -0.954331
      25A     -0.923311    26A     -0.818792    27A     -0.809657
      28A     -0.739361    29A     -0.722165    30A     -0.690487
      31A     -0.682722    32A     -0.669602    33A     -0.627582
      34A     -0.607278    35A     -0.596559    36A     -0.590814
      37A     -0.583099    38A     -0.580681    39A     -0.572958
      40A     -0.552528    41A     -0.537071    42A     -0.524001
      43A     -0.508392    44A     -0.502065    45A     -0.494963
      46A     -0.483534    47A     -0.471133    48A     -0.363621
      49A     -0.345993

  @DF-RHF Final Energy:  -931.05032510038734

   => Energetics <=

    Nuclear Repulsion Energy =            828.5977270993196271
    One-Electron Energy =               -2922.5792615800710337
    Two-Electron Energy =                1162.9312093803637254
    Total Energy =                       -931.0503251003874539
  Basis Set: (AUG-CC-PVTZ AUX)
    Blend: AUG-CC-PVTZ-RI
    Molecular point group: c1

    Geometry (in Angstrom), charge = 0, multiplicity = 1:

       Center              X                  Y                   Z               Mass
    ------------   -----------------  -----------------  -----------------  -----------------
         S           -1.901619779159    -0.014182875963    -0.127549469521    31.972071174400
         O           -2.272625779159    -0.171736875963     1.468084530479    15.994914619570
         O           -2.339540779159    -1.236056875963    -0.783375469521    15.994914619570
         O           -2.383463779159     1.307361124037    -0.530279469521    15.994914619570
         C           -0.135215779159    -0.003871875963    -0.078446469521    12.000000000000
         C            1.937751220841    -1.221778875963     0.036854530479    12.000000000000
         C            1.928982220841     1.230985124037     0.017779530479    12.000000000000
         C            0.531997220841     1.220435124037    -0.053769469521    12.000000000000
         C            0.541568220841    -1.223012875963    -0.040162469521    12.000000000000
         C            2.608862220841     0.007607124037     0.064149530479    12.000000000000
         C            2.704390220841    -2.518312875963     0.042173530479    12.000000000000
         C            2.736375120841     2.619480224037    -0.002889169521    12.000000000000
         H           -0.033425779159     2.147906124037    -0.103738469521     1.007825032230
         H           -0.016045779159    -2.155835875963    -0.076670469521     1.007825032230
         H            3.697136220841     0.012074124037     0.128575530479     1.007825032230
         H            2.118170220841    -3.319275875963     0.500210530479     1.007825032230
         H            2.952946220841    -2.828167875963    -0.978390469521     1.007825032230
         H            3.640577220841    -2.418064875963     0.598108530479     1.007825032230
         H            2.930787220841     2.826543124037    -1.027923469521     1.007825032230
         H            2.095306220841     3.338332124037     0.443000530479     1.007825032230
         H            3.624040220841     2.449600124037     0.554195530479     1.007825032230
         H           -2.715934779159     0.662781124037     1.728472530479     1.007825032230

  Basis Set: AUG-CC-PVTZ
    Blend: AUG-CC-PVTZ
  Basis Set: (AUG-CC-PVTZ AUX)
    Blend: AUG-CC-PVTZ-JKFIT
	 Reference Energy          =    -931.0503251003873402 [Eh]
	 Singles Energy            =      -0.0000000000000000 [Eh]
	 Same-Spin Energy          =      -0.6208369541356886 [Eh]
	 Opposite-Spin Energy      =      -1.8675777832724938 [Eh]
	 Correlation Energy        =      -2.4884147374081822 [Eh]
	 Total Energy              =    -933.5387398377955606 [Eh]

	 ================> DF-SCS-MP2 Energies <==================
	-----------------------------------------------------------
	 SCS Same-Spin Scale       =       0.3333333333333333 [-]
	 SCS Opposite-Spin Scale   =       1.2000000000000000 [-]
	 SCS Same-Spin Energy      =      -0.2069456513785629 [Eh]
	 SCS Opposite-Spin Energy  =      -2.2410933399269926 [Eh]
	 SCS Correlation Energy    =      -2.4480389913055554 [Eh]
	 SCS Total Energy          =    -933.4983640916929062 [Eh]
	-----------------------------------------------------------

  Dipole Moment: [D]
     X:     4.4206      Y:     0.9859      Z:     1.8938     Total:     4.9092

*** Psi4 exiting successfully. Buy a developer a beer!
