                               Psi4 1.4a3.dev225

  ==> Input File <==

--------------------------------------------------------------------------
#psi4
#
memory 32 gb

molecule  {
0 1
  S       -1.9906940    -0.0125100    -0.1365530
  O       -2.3617000    -0.1700640     1.4590810
  O       -2.4286150    -1.2343840    -0.7923790
  O       -2.4725380     1.3090340    -0.5392830
  C       -0.2242900    -0.0021990    -0.0874500
  C        1.8486770    -1.2201060     0.0278510
  C        1.8399080     1.2326580     0.0087760
  C        0.4429230     1.2221080    -0.0627730
  C        0.4524940    -1.2213400    -0.0491660
  C        2.5197880     0.0092800     0.0551460
  C        2.6153160    -2.5166400     0.0331700
  C        2.5970370     2.5347130    -0.0106060
  H       -0.1225000     2.1495790    -0.1127420
  H       -0.1051200    -2.1541630    -0.0856740
  H        3.6080620     0.0137470     0.1195720
  H        2.0018061    -3.3115766     0.4652290
  H        2.8638720    -2.8264950    -0.9873940
  H        3.5515030    -2.4163920     0.5891050
  H        2.8417130     2.8282160    -1.0369270
  H        2.0062320     3.3400050     0.4339970
  H        3.5349660     2.4512730     0.5451920
  H       -2.8050090     0.6644540     1.7194690
units angstrom
no_reorient  #important for SAPT in psi4, default
symmetry c1  #important for SAPT in psi4, default
}

set PROPERTIES_ORIGIN ["COM"]
properties('MP2/aug-cc-pvtz', properties = ['dipole'])
--------------------------------------------------------------------------

    Molecular point group: c1
  Charge       = 0
  Multiplicity = 1
  Basis Set: AUG-CC-PVTZ
    Blend: AUG-CC-PVTZ
  Basis Set: (AUG-CC-PVTZ AUX)
    Blend: AUG-CC-PVTZ-JKFIT

    Orbital Energies [Eh]
    ---------------------

    Doubly Occupied:

       1A    -92.228787     2A    -20.628652     3A    -20.564989
       4A    -20.560782     5A    -11.286092     6A    -11.267429
       7A    -11.266967     8A    -11.262713     9A    -11.262028
      10A    -11.256981    11A    -11.241456    12A    -11.240489
      13A     -9.191693    14A     -6.877313    15A     -6.876013
      16A     -6.875776    17A     -1.492729    18A     -1.379091
      19A     -1.351451    20A     -1.187873    21A     -1.081759
      22A     -1.075446    23A     -0.962521    24A     -0.953670
      25A     -0.924054    26A     -0.819160    27A     -0.809674
      28A     -0.740065    29A     -0.722772    30A     -0.691255
      31A     -0.683862    32A     -0.670852    33A     -0.627861
      34A     -0.602103    35A     -0.600162    36A     -0.591795
      37A     -0.583974    38A     -0.574845    39A     -0.570334
      40A     -0.549430    41A     -0.537748    42A     -0.523554
      43A     -0.508220    44A     -0.506509    45A     -0.500778
      46A     -0.484010    47A     -0.473621    48A     -0.363187
      49A     -0.344908

  @DF-RHF Final Energy:  -931.05727129881836

   => Energetics <=

    Nuclear Repulsion Energy =            830.5261227212035919
    One-Electron Energy =               -2926.4119180668694753
    Two-Electron Energy =                1164.8285240468476331
    Total Energy =                       -931.0572712988182502
  Basis Set: (AUG-CC-PVTZ AUX)
    Blend: AUG-CC-PVTZ-RI
    Molecular point group: c1

    Geometry (in Angstrom), charge = 0, multiplicity = 1:

       Center              X                  Y                   Z               Mass
    ------------   -----------------  -----------------  -----------------  -----------------
         S           -1.898229718026    -0.008639793849    -0.127491733746    31.972071174400
         O           -2.269235718026    -0.166193793849     1.468142266254    15.994914619570
         O           -2.336150718026    -1.230513793849    -0.783317733746    15.994914619570
         O           -2.380073718026     1.312904206151    -0.530221733746    15.994914619570
         C           -0.131825718026     0.001671206151    -0.078388733746    12.000000000000
         C            1.941141281974    -1.216235793849     0.036912266254    12.000000000000
         C            1.932372281974     1.236528206151     0.017837266254    12.000000000000
         C            0.535387281974     1.225978206151    -0.053711733746    12.000000000000
         C            0.544958281974    -1.217469793849    -0.040104733746    12.000000000000
         C            2.612252281974     0.013150206151     0.064207266254    12.000000000000
         C            2.707780281974    -2.512769793849     0.042231266254    12.000000000000
         C            2.689501281974     2.538583206151    -0.001544733746    12.000000000000
         H           -0.030035718026     2.153449206151    -0.103680733746     1.007825032230
         H           -0.012655718026    -2.150292793849    -0.076612733746     1.007825032230
         H            3.700526281974     0.017617206151     0.128633266254     1.007825032230
         H            2.094270381974    -3.307706393849     0.474290266254     1.007825032230
         H            2.956336281974    -2.822624793849    -0.978332733746     1.007825032230
         H            3.643967281974    -2.412521793849     0.598166266254     1.007825032230
         H            2.934177281974     2.832086206151    -1.027865733746     1.007825032230
         H            2.098696281974     3.343875206151     0.443058266254     1.007825032230
         H            3.627430281974     2.455143206151     0.554253266254     1.007825032230
         H           -2.712544718026     0.668324206151     1.728530266254     1.007825032230

  Basis Set: AUG-CC-PVTZ
    Blend: AUG-CC-PVTZ
  Basis Set: (AUG-CC-PVTZ AUX)
    Blend: AUG-CC-PVTZ-JKFIT
	 Reference Energy          =    -931.0572712988183639 [Eh]
	 Singles Energy            =      -0.0000000000000000 [Eh]
	 Same-Spin Energy          =      -0.6213247328789293 [Eh]
	 Opposite-Spin Energy      =      -1.8677144298601229 [Eh]
	 Correlation Energy        =      -2.4890391627390525 [Eh]
	 Total Energy              =    -933.5463104615573684 [Eh]

	 ================> DF-SCS-MP2 Energies <==================
	-----------------------------------------------------------
	 SCS Same-Spin Scale       =       0.3333333333333333 [-]
	 SCS Opposite-Spin Scale   =       1.2000000000000000 [-]
	 SCS Same-Spin Energy      =      -0.2071082442929764 [Eh]
	 SCS Opposite-Spin Energy  =      -2.2412573158321476 [Eh]
	 SCS Correlation Energy    =      -2.4483655601251240 [Eh]
	 SCS Total Energy          =    -933.5056368589434896 [Eh]
	-----------------------------------------------------------

  Dipole Moment: [D]
     X:     4.4267      Y:     1.0038      Z:     1.8786     Total:     4.9125

*** Psi4 exiting successfully. Buy a developer a beer!
