                               Psi4 1.4a3.dev225

  ==> Input File <==

--------------------------------------------------------------------------
#psi4
#
memory 32 gb

molecule  {
0 1
  S       -1.9906940    -0.0125100    -0.1365530
  O       -2.3617000    -0.1700640     1.4590810
  O       -2.4286150    -1.2343840    -0.7923790
  O       -2.4725380     1.3090340    -0.5392830
  C       -0.2242900    -0.0021990    -0.0874500
  C        1.8486770    -1.2201060     0.0278510
  C        1.8399080     1.2326580     0.0087760
  C        0.4429230     1.2221080    -0.0627730
  C        0.4524940    -1.2213400    -0.0491660
  C        2.5197880     0.0092800     0.0551460
  C        2.6153160    -2.5166400     0.0331700
  C        2.5970370     2.5347130    -0.0106060
  H       -0.1225000     2.1495790    -0.1127420
  H       -0.1051200    -2.1541630    -0.0856740
  H        3.6579742     0.0139519     0.1225268
  H        2.0290960    -3.3176030     0.4912070
  H        2.8638720    -2.8264950    -0.9873940
  H        3.5515030    -2.4163920     0.5891050
  H        2.8417130     2.8282160    -1.0369270
  H        2.0062320     3.3400050     0.4339970
  H        3.5349660     2.4512730     0.5451920
  H       -2.8050090     0.6644540     1.7194690
units angstrom
no_reorient  #important for SAPT in psi4, default
symmetry c1  #important for SAPT in psi4, default
}

set PROPERTIES_ORIGIN ["COM"]
properties('MP2/aug-cc-pvtz', properties = ['dipole'])
--------------------------------------------------------------------------

    Molecular point group: c1
  Charge       = 0
  Multiplicity = 1
  Basis Set: AUG-CC-PVTZ
    Blend: AUG-CC-PVTZ
  Basis Set: (AUG-CC-PVTZ AUX)
    Blend: AUG-CC-PVTZ-JKFIT

    Orbital Energies [Eh]
    ---------------------

    Doubly Occupied:

       1A    -92.228942     2A    -20.628782     3A    -20.565136
       4A    -20.560917     5A    -11.286289     6A    -11.268010
       7A    -11.267671     8A    -11.263216     9A    -11.262772
      10A    -11.262452    11A    -11.241443    12A    -11.240325
      13A     -9.191846    14A     -6.877466    15A     -6.876167
      16A     -6.875929    17A     -1.492867    18A     -1.379222
      19A     -1.351590    20A     -1.187957    21A     -1.081876
      22A     -1.074745    23A     -0.962002    24A     -0.953879
      25A     -0.922563    26A     -0.817858    27A     -0.810171
      28A     -0.740179    29A     -0.722223    30A     -0.689209
      31A     -0.681180    32A     -0.670316    33A     -0.627827
      34A     -0.602295    35A     -0.600892    36A     -0.592009
      37A     -0.585308    38A     -0.572920    39A     -0.567709
      40A     -0.548038    41A     -0.534879    42A     -0.523735
      43A     -0.508645    44A     -0.506907    45A     -0.500970
      46A     -0.484127    47A     -0.473587    48A     -0.363575
      49A     -0.345384

  @DF-RHF Final Energy:  -931.05492555384546

   => Energetics <=

    Nuclear Repulsion Energy =            830.2029225218470856
    One-Electron Energy =               -2925.7676839820351233
    Two-Electron Energy =                1164.5098359063426869
    Total Energy =                       -931.0549255538453508
  Basis Set: (AUG-CC-PVTZ AUX)
    Blend: AUG-CC-PVTZ-RI
    Molecular point group: c1

    Geometry (in Angstrom), charge = 0, multiplicity = 1:

       Center              X                  Y                   Z               Mass
    ------------   -----------------  -----------------  -----------------  -----------------
         S           -1.898647952131    -0.008608256497    -0.127648474090    31.972071174400
         O           -2.269653952131    -0.166162256497     1.467985525910    15.994914619570
         O           -2.336568952131    -1.230482256497    -0.783474474090    15.994914619570
         O           -2.380491952131     1.312935743503    -0.530378474090    15.994914619570
         C           -0.132243952131     0.001702743503    -0.078545474090    12.000000000000
         C            1.940723047869    -1.216204256497     0.036755525910    12.000000000000
         C            1.931954047869     1.236559743503     0.017680525910    12.000000000000
         C            0.534969047869     1.226009743503    -0.053868474090    12.000000000000
         C            0.544540047869    -1.217438256497    -0.040261474090    12.000000000000
         C            2.611834047869     0.013181743503     0.064050525910    12.000000000000
         C            2.707362047869    -2.512738256497     0.042074525910    12.000000000000
         C            2.689083047869     2.538614743503    -0.001701474090    12.000000000000
         H           -0.030453952131     2.153480743503    -0.103837474090     1.007825032230
         H           -0.013073952131    -2.150261256497    -0.076769474090     1.007825032230
         H            3.750020247869     0.017853643503     0.131431325910     1.007825032230
         H            2.121142047869    -3.313701256497     0.500111525910     1.007825032230
         H            2.955918047869    -2.822593256497    -0.978489474090     1.007825032230
         H            3.643549047869    -2.412490256497     0.598009525910     1.007825032230
         H            2.933759047869     2.832117743503    -1.028022474090     1.007825032230
         H            2.098278047869     3.343906743503     0.442901525910     1.007825032230
         H            3.627012047869     2.455174743503     0.554096525910     1.007825032230
         H           -2.712962952131     0.668355743503     1.728373525910     1.007825032230

  Basis Set: AUG-CC-PVTZ
    Blend: AUG-CC-PVTZ
  Basis Set: (AUG-CC-PVTZ AUX)
    Blend: AUG-CC-PVTZ-JKFIT
	 Reference Energy          =    -931.0549255538454645 [Eh]
	 Singles Energy            =      -0.0000000000000000 [Eh]
	 Same-Spin Energy          =      -0.6214419718898606 [Eh]
	 Opposite-Spin Energy      =      -1.8681249731334173 [Eh]
	 Correlation Energy        =      -2.4895669450232778 [Eh]
	 Total Energy              =    -933.5444924988687490 [Eh]

	 ================> DF-SCS-MP2 Energies <==================
	-----------------------------------------------------------
	 SCS Same-Spin Scale       =       0.3333333333333333 [-]
	 SCS Opposite-Spin Scale   =       1.2000000000000000 [-]
	 SCS Same-Spin Energy      =      -0.2071473239632869 [Eh]
	 SCS Opposite-Spin Energy  =      -2.2417499677601005 [Eh]
	 SCS Correlation Energy    =      -2.4488972917233873 [Eh]
	 SCS Total Energy          =    -933.5038228455688341 [Eh]
	-----------------------------------------------------------

  Dipole Moment: [D]
     X:     4.4060      Y:     1.0031      Z:     1.8884     Total:     4.8975

*** Psi4 exiting successfully. Buy a developer a beer!
