                               Psi4 1.4a3.dev225

  ==> Input File <==

--------------------------------------------------------------------------
#psi4
#
memory 32 gb

molecule  {
0 1
  S       -1.9906940    -0.0125100    -0.1365530
  O       -2.3617000    -0.1700640     1.4590810
  O       -2.4286150    -1.2343840    -0.7923790
  O       -2.4725380     1.3090340    -0.5392830
  C       -0.2242900    -0.0021990    -0.0874500
  C        1.8486770    -1.2201060     0.0278510
  C        1.8399080     1.2326580     0.0087760
  C        0.4429230     1.2221080    -0.0627730
  C        0.4524940    -1.2213400    -0.0491660
  C        2.5197880     0.0092800     0.0551460
  C        2.6153160    -2.5166400     0.0331700
  C        2.5970370     2.5347130    -0.0106060
  H       -0.1225000     2.1495790    -0.1127420
  H       -0.1051200    -2.1541630    -0.0856740
  H        3.7078864     0.0141567     0.1254816
  H        2.0290960    -3.3176030     0.4912070
  H        2.8638720    -2.8264950    -0.9873940
  H        3.5515030    -2.4163920     0.5891050
  H        2.8417130     2.8282160    -1.0369270
  H        2.0062320     3.3400050     0.4339970
  H        3.5349660     2.4512730     0.5451920
  H       -2.8050090     0.6644540     1.7194690
units angstrom
no_reorient  #important for SAPT in psi4, default
symmetry c1  #important for SAPT in psi4, default
}

set PROPERTIES_ORIGIN ["COM"]
properties('MP2/aug-cc-pvtz', properties = ['dipole'])
--------------------------------------------------------------------------

    Molecular point group: c1
  Charge       = 0
  Multiplicity = 1
  Basis Set: AUG-CC-PVTZ
    Blend: AUG-CC-PVTZ
  Basis Set: (AUG-CC-PVTZ AUX)
    Blend: AUG-CC-PVTZ-JKFIT

    Orbital Energies [Eh]
    ---------------------

    Doubly Occupied:

       1A    -92.229137     2A    -20.628943     3A    -20.565313
       4A    -20.561095     5A    -11.286559     6A    -11.269227
       7A    -11.268371     8A    -11.267528     9A    -11.263660
      10A    -11.262927    11A    -11.241419    12A    -11.240301
      13A     -9.192038    14A     -6.877658    15A     -6.876360
      16A     -6.876121    17A     -1.493040    18A     -1.379386
      19A     -1.351765    20A     -1.188133    21A     -1.082157
      22A     -1.074238    23A     -0.961717    24A     -0.954036
      25A     -0.921371    26A     -0.816844    27A     -0.810503
      28A     -0.740332    29A     -0.721880    30A     -0.688529
      31A     -0.678335    32A     -0.669529    33A     -0.627870
      34A     -0.602181    35A     -0.600938    36A     -0.592269
      37A     -0.585299    38A     -0.572336    39A     -0.565617
      40A     -0.548063    41A     -0.531393    42A     -0.523884
      43A     -0.509022    44A     -0.506991    45A     -0.501051
      46A     -0.484286    47A     -0.473534    48A     -0.363918
      49A     -0.345754

  @DF-RHF Final Energy:  -931.05001808378620

   => Energetics <=

    Nuclear Repulsion Energy =            829.9449347018721710
    One-Electron Energy =               -2925.2441869420604235
    Two-Electron Energy =                1164.2492341564020535
    Total Energy =                       -931.0500180837861990
  Basis Set: (AUG-CC-PVTZ AUX)
    Blend: AUG-CC-PVTZ-RI
    Molecular point group: c1

    Geometry (in Angstrom), charge = 0, multiplicity = 1:

       Center              X                  Y                   Z               Mass
    ------------   -----------------  -----------------  -----------------  -----------------
         S           -1.898918346126    -0.008609365979    -0.127664481402    31.972071174400
         O           -2.269924346126    -0.166163365979     1.467969518598    15.994914619570
         O           -2.336839346126    -1.230483365979    -0.783490481402    15.994914619570
         O           -2.380762346126     1.312934634021    -0.530394481402    15.994914619570
         C           -0.132514346126     0.001701634021    -0.078561481402    12.000000000000
         C            1.940452653874    -1.216205365979     0.036739518598    12.000000000000
         C            1.931683653874     1.236558634021     0.017664518598    12.000000000000
         C            0.534698653874     1.226008634021    -0.053884481402    12.000000000000
         C            0.544269653874    -1.217439365979    -0.040277481402    12.000000000000
         C            2.611563653874     0.013180634021     0.064034518598    12.000000000000
         C            2.707091653874    -2.512739365979     0.042058518598    12.000000000000
         C            2.688812653874     2.538613634021    -0.001717481402    12.000000000000
         H           -0.030724346126     2.153479634021    -0.103853481402     1.007825032230
         H           -0.013344346126    -2.150262365979    -0.076785481402     1.007825032230
         H            3.799662053874     0.018057334021     0.134370118598     1.007825032230
         H            2.120871653874    -3.313702365979     0.500095518598     1.007825032230
         H            2.955647653874    -2.822594365979    -0.978505481402     1.007825032230
         H            3.643278653874    -2.412491365979     0.597993518598     1.007825032230
         H            2.933488653874     2.832116634021    -1.028038481402     1.007825032230
         H            2.098007653874     3.343905634021     0.442885518598     1.007825032230
         H            3.626741653874     2.455173634021     0.554080518598     1.007825032230
         H           -2.713233346126     0.668354634021     1.728357518598     1.007825032230

  Basis Set: AUG-CC-PVTZ
    Blend: AUG-CC-PVTZ
  Basis Set: (AUG-CC-PVTZ AUX)
    Blend: AUG-CC-PVTZ-JKFIT
	 Reference Energy          =    -931.0500180837861990 [Eh]
	 Singles Energy            =      -0.0000000000000000 [Eh]
	 Same-Spin Energy          =      -0.6216020392513970 [Eh]
	 Opposite-Spin Energy      =      -1.8686613156391736 [Eh]
	 Correlation Energy        =      -2.4902633548905708 [Eh]
	 Total Energy              =    -933.5402814386767432 [Eh]

	 ================> DF-SCS-MP2 Energies <==================
	-----------------------------------------------------------
	 SCS Same-Spin Scale       =       0.3333333333333333 [-]
	 SCS Opposite-Spin Scale   =       1.2000000000000000 [-]
	 SCS Same-Spin Energy      =      -0.2072006797504657 [Eh]
	 SCS Opposite-Spin Energy  =      -2.2423935787670084 [Eh]
	 SCS Correlation Energy    =      -2.4495942585174739 [Eh]
	 SCS Total Energy          =    -933.4996123423036352 [Eh]
	-----------------------------------------------------------

  Dipole Moment: [D]
     X:     4.3800      Y:     1.0030      Z:     1.8869     Total:     4.8734

*** Psi4 exiting successfully. Buy a developer a beer!
