                               Psi4 1.4a3.dev225

  ==> Input File <==

--------------------------------------------------------------------------
#psi4
#
memory 32 gb

molecule  {
0 1
  S       -1.9906940    -0.0125100    -0.1365530
  O       -2.3617000    -0.1700640     1.4590810
  O       -2.4286150    -1.2343840    -0.7923790
  O       -2.4725380     1.3090340    -0.5392830
  C       -0.2242900    -0.0021990    -0.0874500
  C        1.8486770    -1.2201060     0.0278510
  C        1.8399080     1.2326580     0.0087760
  C        0.4429230     1.2221080    -0.0627730
  C        0.4524940    -1.2213400    -0.0491660
  C        2.6439989     0.0871069     0.0555856
  C        2.6153160    -2.5166400     0.0331700
  C        2.5970370     2.5347130    -0.0106060
  H       -0.1225000     2.1495790    -0.1127420
  H       -0.1051200    -2.1541630    -0.0856740
  H        3.6080620     0.0137470     0.1195720
  H        2.0290960    -3.3176030     0.4912070
  H        2.8638720    -2.8264950    -0.9873940
  H        3.5515030    -2.4163920     0.5891050
  H        2.8417130     2.8282160    -1.0369270
  H        2.0062320     3.3400050     0.4339970
  H        3.5349660     2.4512730     0.5451920
  H       -2.8050090     0.6644540     1.7194690
units angstrom
no_reorient  #important for SAPT in psi4, default
symmetry c1  #important for SAPT in psi4, default
}

set PROPERTIES_ORIGIN ["COM"]
properties('MP2/aug-cc-pvtz', properties = ['dipole'])
--------------------------------------------------------------------------

    Molecular point group: c1
  Charge       = 0
  Multiplicity = 1
  Basis Set: AUG-CC-PVTZ
    Blend: AUG-CC-PVTZ
  Basis Set: (AUG-CC-PVTZ AUX)
    Blend: AUG-CC-PVTZ-JKFIT

    Orbital Energies [Eh]
    ---------------------

    Doubly Occupied:

       1A    -92.229808     2A    -20.629592     3A    -20.565789
       4A    -20.561948     5A    -11.289417     6A    -11.280194
       7A    -11.269840     8A    -11.265364     9A    -11.260374
      10A    -11.259356    11A    -11.239685    12A    -11.237535
      13A     -9.192744    14A     -6.878360    15A     -6.877073
      16A     -6.876817    17A     -1.493678    18A     -1.379990
      19A     -1.352359    20A     -1.179602    21A     -1.082440
      22A     -1.070050    23A     -0.956495    24A     -0.953539
      25A     -0.930667    26A     -0.826269    27A     -0.796668
      28A     -0.741937    29A     -0.726851    30A     -0.706823
      31A     -0.685358    32A     -0.667409    33A     -0.629792
      34A     -0.598614    35A     -0.597304    36A     -0.591468
      37A     -0.588039    38A     -0.584093    39A     -0.570309
      40A     -0.550576    41A     -0.546105    42A     -0.523888
      43A     -0.507574    44A     -0.499093    45A     -0.486497
      46A     -0.482208    47A     -0.474133    48A     -0.359327
      49A     -0.340637

  @DF-RHF Final Energy:  -931.02758656266099

   => Energetics <=

    Nuclear Repulsion Energy =            828.0603877681996892
    One-Electron Energy =               -2921.3885650958686711
    Two-Electron Energy =                1162.3005907650081099
    Total Energy =                       -931.0275865626608720
  Basis Set: (AUG-CC-PVTZ AUX)
    Blend: AUG-CC-PVTZ-RI
    Molecular point group: c1

    Geometry (in Angstrom), charge = 0, multiplicity = 1:

       Center              X                  Y                   Z               Mass
    ------------   -----------------  -----------------  -----------------  -----------------
         S           -1.906389654119    -0.013627290381    -0.127660822722    31.972071174400
         O           -2.277395654119    -0.171181290381     1.467973177278    15.994914619570
         O           -2.344310654119    -1.235501290381    -0.783486822722    15.994914619570
         O           -2.388233654119     1.307916709619    -0.530390822722    15.994914619570
         C           -0.139985654119    -0.003316290381    -0.078557822722    12.000000000000
         C            1.932981345881    -1.221223290381     0.036743177278    12.000000000000
         C            1.924212345881     1.231540709619     0.017668177278    12.000000000000
         C            0.527227345881     1.220990709619    -0.053880822722    12.000000000000
         C            0.536798345881    -1.222457290381    -0.040273822722    12.000000000000
         C            2.728303245881     0.085989609619     0.064477777278    12.000000000000
         C            2.699620345881    -2.517757290381     0.042062177278    12.000000000000
         C            2.681341345881     2.533595709619    -0.001713822722    12.000000000000
         H           -0.038195654119     2.148461709619    -0.103849822722     1.007825032230
         H           -0.020815654119    -2.155280290381    -0.076781822722     1.007825032230
         H            3.692366345881     0.012629709619     0.128464177278     1.007825032230
         H            2.113400345881    -3.318720290381     0.500099177278     1.007825032230
         H            2.948176345881    -2.827612290381    -0.978501822722     1.007825032230
         H            3.635807345881    -2.417509290381     0.597997177278     1.007825032230
         H            2.926017345881     2.827098709619    -1.028034822722     1.007825032230
         H            2.090536345881     3.338887709619     0.442889177278     1.007825032230
         H            3.619270345881     2.450155709619     0.554084177278     1.007825032230
         H           -2.720704654119     0.663336709619     1.728361177278     1.007825032230

  Basis Set: AUG-CC-PVTZ
    Blend: AUG-CC-PVTZ
  Basis Set: (AUG-CC-PVTZ AUX)
    Blend: AUG-CC-PVTZ-JKFIT
	 Reference Energy          =    -931.0275865626609857 [Eh]
	 Singles Energy            =      -0.0000000000000000 [Eh]
	 Same-Spin Energy          =      -0.6215790141514002 [Eh]
	 Opposite-Spin Energy      =      -1.8698311742582905 [Eh]
	 Correlation Energy        =      -2.4914101884096906 [Eh]
	 Total Energy              =    -933.5189967510706310 [Eh]

	 ================> DF-SCS-MP2 Energies <==================
	-----------------------------------------------------------
	 SCS Same-Spin Scale       =       0.3333333333333333 [-]
	 SCS Opposite-Spin Scale   =       1.2000000000000000 [-]
	 SCS Same-Spin Energy      =      -0.2071930047171334 [Eh]
	 SCS Opposite-Spin Energy  =      -2.2437974091099484 [Eh]
	 SCS Correlation Energy    =      -2.4509904138270819 [Eh]
	 SCS Total Energy          =    -933.4785769764880570 [Eh]
	-----------------------------------------------------------

  Dipole Moment: [D]
     X:     4.4125      Y:     0.9254      Z:     1.8923     Total:     4.8895

*** Psi4 exiting successfully. Buy a developer a beer!
