                               Psi4 1.4a3.dev225

  ==> Input File <==

--------------------------------------------------------------------------
#psi4
#
memory 32 gb

molecule  {
0 1
  S       -1.9906940    -0.0125100    -0.1365530
  O       -2.3617000    -0.1700640     1.4590810
  O       -2.4286150    -1.2343840    -0.7923790
  O       -2.4725380     1.3090340    -0.5392830
  C       -0.2242900    -0.0021990    -0.0874500
  C        1.8486770    -1.2201060     0.0278510
  C        1.8399080     1.2326580     0.0087760
  C        0.4429230     1.2221080    -0.0627730
  C        0.4524940    -1.2213400    -0.0491660
  C        2.5197880     0.0092800     0.0551460
  C        2.6153160    -2.5166400     0.0331700
  C        2.5970370     2.5347130    -0.0106060
  H       -0.1225000     2.1495790    -0.1127420
  H       -0.1051200    -2.1541630    -0.0856740
  H        3.6080620     0.0137470     0.1195720
  H        2.0290960    -3.3176030     0.4912070
  H        2.8638720    -2.8264950    -0.9873940
  H        3.5515030    -2.4163920     0.5891050
  H        2.8417130     2.8282160    -1.0369270
  H        2.0062320     3.3400050     0.4339970
  H        3.5349660     2.4512730     0.5451920
  H       -2.8276227     0.7070238     1.7327517
units angstrom
no_reorient  #important for SAPT in psi4, default
symmetry c1  #important for SAPT in psi4, default
}

set PROPERTIES_ORIGIN ["COM"]
properties('MP2/aug-cc-pvtz', properties = ['dipole'])
--------------------------------------------------------------------------

    Molecular point group: c1
  Charge       = 0
  Multiplicity = 1
  Basis Set: AUG-CC-PVTZ
    Blend: AUG-CC-PVTZ
  Basis Set: (AUG-CC-PVTZ AUX)
    Blend: AUG-CC-PVTZ-JKFIT

    Orbital Energies [Eh]
    ---------------------

    Doubly Occupied:

       1A    -92.227835     2A    -20.631525     3A    -20.564156
       4A    -20.560164     5A    -11.285681     6A    -11.267164
       7A    -11.266823     8A    -11.262438     9A    -11.261685
      10A    -11.256799    11A    -11.241301    12A    -11.240134
      13A     -9.190753    14A     -6.876360    15A     -6.875079
      16A     -6.874844    17A     -1.489329    18A     -1.370696
      19A     -1.350755    20A     -1.187513    21A     -1.081355
      22A     -1.074835    23A     -0.962059    24A     -0.953460
      25A     -0.921252    26A     -0.815137    27A     -0.809505
      28A     -0.733762    29A     -0.721073    30A     -0.690144
      31A     -0.683059    32A     -0.669096    33A     -0.625280
      34A     -0.602158    35A     -0.600594    36A     -0.591481
      37A     -0.585112    38A     -0.572989    39A     -0.568568
      40A     -0.547767    41A     -0.537198    42A     -0.522620
      43A     -0.507924    44A     -0.505969    45A     -0.500207
      46A     -0.483001    47A     -0.472954    48A     -0.362900
      49A     -0.344755

  @DF-RHF Final Energy:  -931.05238320694252

   => Energetics <=

    Nuclear Repulsion Energy =            830.1418253334444444
    One-Electron Energy =               -2925.7339185219675528
    Two-Electron Energy =                1164.5397099815804722
    Total Energy =                       -931.0523832069425225
  Basis Set: (AUG-CC-PVTZ AUX)
    Blend: AUG-CC-PVTZ-RI
    Molecular point group: c1

    Geometry (in Angstrom), charge = 0, multiplicity = 1:

       Center              X                  Y                   Z               Mass
    ------------   -----------------  -----------------  -----------------  -----------------
         S           -1.898255050839    -0.008837763803    -0.127704424382    31.972071174400
         O           -2.269261050839    -0.166391763803     1.467929575618    15.994914619570
         O           -2.336176050839    -1.230711763803    -0.783530424382    15.994914619570
         O           -2.380099050839     1.312706236197    -0.530434424382    15.994914619570
         C           -0.131851050839     0.001473236197    -0.078601424382    12.000000000000
         C            1.941115949161    -1.216433763803     0.036699575618    12.000000000000
         C            1.932346949161     1.236330236197     0.017624575618    12.000000000000
         C            0.535361949161     1.225780236197    -0.053924424382    12.000000000000
         C            0.544932949161    -1.217667763803    -0.040317424382    12.000000000000
         C            2.612226949161     0.012952236197     0.063994575618    12.000000000000
         C            2.707754949161    -2.512967763803     0.042018575618    12.000000000000
         C            2.689475949161     2.538385236197    -0.001757424382    12.000000000000
         H           -0.030061050839     2.153251236197    -0.103893424382     1.007825032230
         H           -0.012681050839    -2.150490763803    -0.076825424382     1.007825032230
         H            3.700500949161     0.017419236197     0.128420575618     1.007825032230
         H            2.121534949161    -3.313930763803     0.500055575618     1.007825032230
         H            2.956310949161    -2.822822763803    -0.978545424382     1.007825032230
         H            3.643941949161    -2.412719763803     0.597953575618     1.007825032230
         H            2.934151949161     2.831888236197    -1.028078424382     1.007825032230
         H            2.098670949161     3.343677236197     0.442845575618     1.007825032230
         H            3.627404949161     2.454945236197     0.554040575618     1.007825032230
         H           -2.735183750839     0.710696036197     1.741600275618     1.007825032230

  Basis Set: AUG-CC-PVTZ
    Blend: AUG-CC-PVTZ
  Basis Set: (AUG-CC-PVTZ AUX)
    Blend: AUG-CC-PVTZ-JKFIT
	 Reference Energy          =    -931.0523832069425225 [Eh]
	 Singles Energy            =      -0.0000000000000000 [Eh]
	 Same-Spin Energy          =      -0.6219359922279110 [Eh]
	 Opposite-Spin Energy      =      -1.8691665252832557 [Eh]
	 Correlation Energy        =      -2.4911025175111665 [Eh]
	 Total Energy              =    -933.5434857244537170 [Eh]

	 ================> DF-SCS-MP2 Energies <==================
	-----------------------------------------------------------
	 SCS Same-Spin Scale       =       0.3333333333333333 [-]
	 SCS Opposite-Spin Scale   =       1.2000000000000000 [-]
	 SCS Same-Spin Energy      =      -0.2073119974093036 [Eh]
	 SCS Opposite-Spin Energy  =      -2.2429998303399068 [Eh]
	 SCS Correlation Energy    =      -2.4503118277492106 [Eh]
	 SCS Total Energy          =    -933.5026950346917829 [Eh]
	-----------------------------------------------------------

  Dipole Moment: [D]
     X:     4.3778      Y:     1.0533      Z:     1.9331     Total:     4.9002

*** Psi4 exiting successfully. Buy a developer a beer!
