                               Psi4 1.4a3.dev225

  ==> Input File <==

--------------------------------------------------------------------------
#psi4
#
memory 32 gb

molecule  {
0 1
  S       -1.9906940    -0.0125100    -0.1365530
  O       -2.3617000    -0.1700640     1.4590810
  O       -2.4286150    -1.2343840    -0.7923790
  O       -2.4725380     1.3090340    -0.5392830
  C       -0.2242900    -0.0021990    -0.0874500
  C        1.8486770    -1.2201060     0.0278510
  C        1.8399080     1.2326580     0.0087760
  C        0.4429230     1.2221080    -0.0627730
  C        0.4524940    -1.2213400    -0.0491660
  C        2.5197880     0.0092800     0.0551460
  C        2.6153160    -2.5166400     0.0331700
  C        2.5869842     2.5174250    -0.0103487
  H       -0.1225000     2.1495790    -0.1127420
  H       -0.1051200    -2.1541630    -0.0856740
  H        3.6080620     0.0137470     0.1195720
  H        2.0290960    -3.3176030     0.4912070
  H        2.8638720    -2.8264950    -0.9873940
  H        3.5515030    -2.4163920     0.5891050
  H        2.8417130     2.8282160    -1.0369270
  H        2.0062320     3.3400050     0.4339970
  H        3.5349660     2.4512730     0.5451920
  H       -2.8050090     0.6644540     1.7194690
units angstrom
no_reorient  #important for SAPT in psi4, default
symmetry c1  #important for SAPT in psi4, default
}

set PROPERTIES_ORIGIN ["COM"]
properties('MP2/aug-cc-pvtz', properties = ['dipole'])
--------------------------------------------------------------------------

    Molecular point group: c1
  Charge       = 0
  Multiplicity = 1
  Basis Set: AUG-CC-PVTZ
    Blend: AUG-CC-PVTZ
  Basis Set: (AUG-CC-PVTZ AUX)
    Blend: AUG-CC-PVTZ-JKFIT

    Orbital Energies [Eh]
    ---------------------

    Doubly Occupied:

       1A    -92.228828     2A    -20.628689     3A    -20.565029
       4A    -20.560811     5A    -11.286136     6A    -11.267186
       7A    -11.266624     8A    -11.262805     9A    -11.262115
      10A    -11.257130    11A    -11.242078    12A    -11.240404
      13A     -9.191733    14A     -6.877353    15A     -6.876054
      16A     -6.875816    17A     -1.492765    18A     -1.379125
      19A     -1.351484    20A     -1.188470    21A     -1.083429
      22A     -1.075993    23A     -0.962318    24A     -0.953610
      25A     -0.924192    26A     -0.819218    27A     -0.809819
      28A     -0.740227    29A     -0.722961    30A     -0.691384
      31A     -0.683895    32A     -0.670930    33A     -0.627867
      34A     -0.605493    35A     -0.600293    36A     -0.592608
      37A     -0.584194    38A     -0.574321    39A     -0.567735
      40A     -0.546245    41A     -0.537544    42A     -0.523497
      43A     -0.509644    44A     -0.506934    45A     -0.500440
      46A     -0.484034    47A     -0.473739    48A     -0.363192
      49A     -0.344731

  @DF-RHF Final Energy:  -931.05673439165355

   => Energetics <=

    Nuclear Repulsion Energy =            830.8629775892155749
    One-Electron Energy =               -2927.0771738504290624
    Two-Electron Energy =                1165.1574618695601657
    Total Energy =                       -931.0567343916534355
  Basis Set: (AUG-CC-PVTZ AUX)
    Blend: AUG-CC-PVTZ-RI
    Molecular point group: c1

    Geometry (in Angstrom), charge = 0, multiplicity = 1:

       Center              X                  Y                   Z               Mass
    ------------   -----------------  -----------------  -----------------  -----------------
         S           -1.897729112641    -0.007492001865    -0.127649063649    31.972071174400
         O           -2.268735112641    -0.165046001865     1.467984936351    15.994914619570
         O           -2.335650112641    -1.229366001865    -0.783475063649    15.994914619570
         O           -2.379573112641     1.314051998135    -0.530379063649    15.994914619570
         C           -0.131325112641     0.002818998135    -0.078546063649    12.000000000000
         C            1.941641887359    -1.215088001865     0.036754936351    12.000000000000
         C            1.932872887359     1.237675998135     0.017679936351    12.000000000000
         C            0.535887887359     1.227125998135    -0.053869063649    12.000000000000
         C            0.545458887359    -1.216322001865    -0.040262063649    12.000000000000
         C            2.612752887359     0.014297998135     0.064049936351    12.000000000000
         C            2.708280887359    -2.511622001865     0.042073936351    12.000000000000
         C            2.679949087359     2.522442998135    -0.001444763649    12.000000000000
         H           -0.029535112641     2.154596998135    -0.103838063649     1.007825032230
         H           -0.012155112641    -2.149145001865    -0.076770063649     1.007825032230
         H            3.701026887359     0.018764998135     0.128475936351     1.007825032230
         H            2.122060887359    -3.312585001865     0.500110936351     1.007825032230
         H            2.956836887359    -2.821477001865    -0.978490063649     1.007825032230
         H            3.644467887359    -2.411374001865     0.598008936351     1.007825032230
         H            2.934677887359     2.833233998135    -1.028023063649     1.007825032230
         H            2.099196887359     3.345022998135     0.442900936351     1.007825032230
         H            3.627930887359     2.456290998135     0.554095936351     1.007825032230
         H           -2.712044112641     0.669471998135     1.728372936351     1.007825032230

  Basis Set: AUG-CC-PVTZ
    Blend: AUG-CC-PVTZ
  Basis Set: (AUG-CC-PVTZ AUX)
    Blend: AUG-CC-PVTZ-JKFIT
	 Reference Energy          =    -931.0567343916535492 [Eh]
	 Singles Energy            =      -0.0000000000000000 [Eh]
	 Same-Spin Energy          =      -0.6214847479711165 [Eh]
	 Opposite-Spin Energy      =      -1.8678581862215260 [Eh]
	 Correlation Energy        =      -2.4893429341926425 [Eh]
	 Total Energy              =    -933.5460773258462268 [Eh]

	 ================> DF-SCS-MP2 Energies <==================
	-----------------------------------------------------------
	 SCS Same-Spin Scale       =       0.3333333333333333 [-]
	 SCS Opposite-Spin Scale   =       1.2000000000000000 [-]
	 SCS Same-Spin Energy      =      -0.2071615826570388 [Eh]
	 SCS Opposite-Spin Energy  =      -2.2414298234658312 [Eh]
	 SCS Correlation Energy    =      -2.4485914061228700 [Eh]
	 SCS Total Energy          =    -933.5053257977764360 [Eh]
	-----------------------------------------------------------

  Dipole Moment: [D]
     X:     4.4291      Y:     1.0059      Z:     1.8887     Total:     4.9190

*** Psi4 exiting successfully. Buy a developer a beer!
