                               Psi4 1.4a3.dev225

  ==> Input File <==

--------------------------------------------------------------------------
#psi4
#
memory 32 gb

molecule  {
0 1
  S       -1.9906940    -0.0125100    -0.1365530
  O       -2.3617000    -0.1700640     1.4590810
  O       -2.4286150    -1.2343840    -0.7923790
  O       -2.4725380     1.3090340    -0.5392830
  C       -0.2242900    -0.0021990    -0.0874500
  C        1.8486770    -1.2201060     0.0278510
  C        1.8399080     1.2326580     0.0087760
  C        0.4429230     1.2221080    -0.0627730
  C        0.4524940    -1.2213400    -0.0491660
  C        2.5197880     0.0092800     0.0551460
  C        2.6153160    -2.5166400     0.0331700
  C        2.5970370     2.5347130    -0.0106060
  H       -0.1225000     2.1495790    -0.1127420
  H       -0.1051200    -2.1541630    -0.0856740
  H        3.6080620     0.0137470     0.1195720
  H        2.0290960    -3.3176030     0.4912070
  H        2.8865682    -2.8547885    -1.0805839
  H        3.5515030    -2.4163920     0.5891050
  H        2.8417130     2.8282160    -1.0369270
  H        2.0062320     3.3400050     0.4339970
  H        3.5349660     2.4512730     0.5451920
  H       -2.8050090     0.6644540     1.7194690
units angstrom
no_reorient  #important for SAPT in psi4, default
symmetry c1  #important for SAPT in psi4, default
}

set PROPERTIES_ORIGIN ["COM"]
properties('MP2/aug-cc-pvtz', properties = ['dipole'])
--------------------------------------------------------------------------

    Molecular point group: c1
  Charge       = 0
  Multiplicity = 1
  Basis Set: AUG-CC-PVTZ
    Blend: AUG-CC-PVTZ
  Basis Set: (AUG-CC-PVTZ AUX)
    Blend: AUG-CC-PVTZ-JKFIT

    Orbital Energies [Eh]
    ---------------------

    Doubly Occupied:

       1A    -92.228993     2A    -20.628842     3A    -20.565187
       4A    -20.560948     5A    -11.286366     6A    -11.267853
       7A    -11.267731     8A    -11.263222     9A    -11.262575
      10A    -11.257604    11A    -11.251838    12A    -11.241685
      13A     -9.191897    14A     -6.877517    15A     -6.876218
      16A     -6.875979    17A     -1.492916    18A     -1.379274
      19A     -1.351630    20A     -1.188181    21A     -1.081107
      22A     -1.075269    23A     -0.960402    24A     -0.950327
      25A     -0.924333    26A     -0.819346    27A     -0.808332
      28A     -0.740164    29A     -0.722783    30A     -0.691504
      31A     -0.684054    32A     -0.670999    33A     -0.628026
      34A     -0.603046    35A     -0.597701    36A     -0.590781
      37A     -0.576044    38A     -0.571627    39A     -0.569465
      40A     -0.548597    41A     -0.537988    42A     -0.523247
      43A     -0.508371    44A     -0.506611    45A     -0.498949
      46A     -0.484153    47A     -0.473878    48A     -0.363241
      49A     -0.344745

  @DF-RHF Final Energy:  -931.05100384729599

   => Energetics <=

    Nuclear Repulsion Energy =            830.0443794865839209
    One-Electron Energy =               -2925.4476701108351335
    Two-Electron Energy =                1164.3522867769549975
    Total Energy =                       -931.0510038472959877
  Basis Set: (AUG-CC-PVTZ AUX)
    Blend: AUG-CC-PVTZ-RI
    Molecular point group: c1

    Geometry (in Angstrom), charge = 0, multiplicity = 1:

       Center              X                  Y                   Z               Mass
    ------------   -----------------  -----------------  -----------------  -----------------
         S           -1.898500512367    -0.008453869469    -0.127127620480    31.972071174400
         O           -2.269506512367    -0.166007869469     1.468506379520    15.994914619570
         O           -2.336421512367    -1.230327869469    -0.782953620480    15.994914619570
         O           -2.380344512367     1.313090130531    -0.529857620480    15.994914619570
         C           -0.132096512367     0.001857130531    -0.078024620480    12.000000000000
         C            1.940870487633    -1.216049869469     0.037276379520    12.000000000000
         C            1.932101487633     1.236714130531     0.018201379520    12.000000000000
         C            0.535116487633     1.226164130531    -0.053347620480    12.000000000000
         C            0.544687487633    -1.217283869469    -0.039740620480    12.000000000000
         C            2.611981487633     0.013336130531     0.064571379520    12.000000000000
         C            2.707509487633    -2.512583869469     0.042595379520    12.000000000000
         C            2.689230487633     2.538769130531    -0.001180620480    12.000000000000
         H           -0.030306512367     2.153635130531    -0.103316620480     1.007825032230
         H           -0.012926512367    -2.150106869469    -0.076248620480     1.007825032230
         H            3.700255487633     0.017803130531     0.128997379520     1.007825032230
         H            2.121289487633    -3.313546869469     0.500632379520     1.007825032230
         H            2.978761687633    -2.850732369469    -1.071158520480     1.007825032230
         H            3.643696487633    -2.412335869469     0.598530379520     1.007825032230
         H            2.933906487633     2.832272130531    -1.027501620480     1.007825032230
         H            2.098425487633     3.344061130531     0.443422379520     1.007825032230
         H            3.627159487633     2.455329130531     0.554617379520     1.007825032230
         H           -2.712815512367     0.668510130531     1.728894379520     1.007825032230

  Basis Set: AUG-CC-PVTZ
    Blend: AUG-CC-PVTZ
  Basis Set: (AUG-CC-PVTZ AUX)
    Blend: AUG-CC-PVTZ-JKFIT
	 Reference Energy          =    -931.0510038472959877 [Eh]
	 Singles Energy            =      -0.0000000000000000 [Eh]
	 Same-Spin Energy          =      -0.6212912407096256 [Eh]
	 Opposite-Spin Energy      =      -1.8683592388446058 [Eh]
	 Correlation Energy        =      -2.4896504795542311 [Eh]
	 Total Energy              =    -933.5406543268502446 [Eh]

	 ================> DF-SCS-MP2 Energies <==================
	-----------------------------------------------------------
	 SCS Same-Spin Scale       =       0.3333333333333333 [-]
	 SCS Opposite-Spin Scale   =       1.2000000000000000 [-]
	 SCS Same-Spin Energy      =      -0.2070970802365419 [Eh]
	 SCS Opposite-Spin Energy  =      -2.2420310866135269 [Eh]
	 SCS Correlation Energy    =      -2.4491281668500688 [Eh]
	 SCS Total Energy          =    -933.5001320141460610 [Eh]
	-----------------------------------------------------------

  Dipole Moment: [D]
     X:     4.4024      Y:     1.0387      Z:     1.9214     Total:     4.9145

*** Psi4 exiting successfully. Buy a developer a beer!
