                               Psi4 1.4a3.dev225

  ==> Input File <==

--------------------------------------------------------------------------
#psi4
#
memory 32 gb

molecule  {
0 1
  S       -1.9906940    -0.0125100    -0.1365530
  O       -2.3617000    -0.1700640     1.4590810
  O       -2.4286150    -1.2343840    -0.7923790
  O       -2.4725380     1.3090340    -0.5392830
  C       -0.2242900    -0.0021990    -0.0874500
  C        1.8486770    -1.2201060     0.0278510
  C        1.8399080     1.2326580     0.0087760
  C        0.4429230     1.2221080    -0.0627730
  C        0.4524940    -1.2213400    -0.0491660
  C        2.5197880     0.0092800     0.0551460
  C        2.6153160    -2.5166400     0.0331700
  C        2.5970370     2.5347130    -0.0106060
  H       -0.1225000     2.1495790    -0.1127420
  H       -0.1051200    -2.1541630    -0.0856740
  H        3.6080620     0.0137470     0.1195720
  H        2.0559092    -3.2809677     0.4702568
  H        2.8638720    -2.8264950    -0.9873940
  H        3.5515030    -2.4163920     0.5891050
  H        2.8417130     2.8282160    -1.0369270
  H        2.0062320     3.3400050     0.4339970
  H        3.5349660     2.4512730     0.5451920
  H       -2.8050090     0.6644540     1.7194690
units angstrom
no_reorient  #important for SAPT in psi4, default
symmetry c1  #important for SAPT in psi4, default
}

set PROPERTIES_ORIGIN ["COM"]
properties('MP2/aug-cc-pvtz', properties = ['dipole'])
--------------------------------------------------------------------------

    Molecular point group: c1
  Charge       = 0
  Multiplicity = 1
  Basis Set: AUG-CC-PVTZ
    Blend: AUG-CC-PVTZ
  Basis Set: (AUG-CC-PVTZ AUX)
    Blend: AUG-CC-PVTZ-JKFIT

    Orbital Energies [Eh]
    ---------------------

    Doubly Occupied:

       1A    -92.228726     2A    -20.628608     3A    -20.564933
       4A    -20.560729     5A    -11.286000     6A    -11.267278
       7A    -11.266748     8A    -11.262665     9A    -11.261973
      10A    -11.256803    11A    -11.241360    12A    -11.234326
      13A     -9.191633    14A     -6.877252    15A     -6.875952
      16A     -6.875715    17A     -1.492678    18A     -1.379045
      19A     -1.351398    20A     -1.187796    21A     -1.082260
      22A     -1.075530    23A     -0.965014    24A     -0.954829
      25A     -0.923952    26A     -0.819054    27A     -0.811144
      28A     -0.740027    29A     -0.722888    30A     -0.691176
      31A     -0.683895    32A     -0.670874    33A     -0.627788
      34A     -0.604447    35A     -0.600944    36A     -0.591637
      37A     -0.586786    38A     -0.574771    39A     -0.571716
      40A     -0.550092    41A     -0.537519    42A     -0.523541
      43A     -0.508571    44A     -0.506965    45A     -0.500940
      46A     -0.483942    47A     -0.473513    48A     -0.363127
      49A     -0.345026

  @DF-RHF Final Energy:  -931.05648542413292

   => Energetics <=

    Nuclear Repulsion Energy =            830.6943131122477553
    One-Electron Energy =               -2926.7344265446167810
    Two-Electron Energy =                1164.9836280082363373
    Total Energy =                       -931.0564854241329158
  Basis Set: (AUG-CC-PVTZ AUX)
    Blend: AUG-CC-PVTZ-RI
    Molecular point group: c1

    Geometry (in Angstrom), charge = 0, multiplicity = 1:

       Center              X                  Y                   Z               Mass
    ------------   -----------------  -----------------  -----------------  -----------------
         S           -1.898522815773    -0.008805614285    -0.127518971314    31.972071174400
         O           -2.269528815773    -0.166359614285     1.468115028686    15.994914619570
         O           -2.336443815773    -1.230679614285    -0.783344971314    15.994914619570
         O           -2.380366815773     1.312738385715    -0.530248971314    15.994914619570
         C           -0.132118815773     0.001505385715    -0.078415971314    12.000000000000
         C            1.940848184227    -1.216401614285     0.036885028686    12.000000000000
         C            1.932079184227     1.236362385715     0.017810028686    12.000000000000
         C            0.535094184227     1.225812385715    -0.053738971314    12.000000000000
         C            0.544665184227    -1.217635614285    -0.040131971314    12.000000000000
         C            2.611959184227     0.012984385715     0.064180028686    12.000000000000
         C            2.707487184227    -2.512935614285     0.042204028686    12.000000000000
         C            2.689208184227     2.538417385715    -0.001571971314    12.000000000000
         H           -0.030328815773     2.153283385715    -0.103707971314     1.007825032230
         H           -0.012948815773    -2.150458614285    -0.076639971314     1.007825032230
         H            3.700233184227     0.017451385715     0.128606028686     1.007825032230
         H            2.148080384227    -3.277263314285     0.479290828686     1.007825032230
         H            2.956043184227    -2.822790614285    -0.978359971314     1.007825032230
         H            3.643674184227    -2.412687614285     0.598139028686     1.007825032230
         H            2.933884184227     2.831920385715    -1.027892971314     1.007825032230
         H            2.098403184227     3.343709385715     0.443031028686     1.007825032230
         H            3.627137184227     2.454977385715     0.554226028686     1.007825032230
         H           -2.712837815773     0.668158385715     1.728503028686     1.007825032230

  Basis Set: AUG-CC-PVTZ
    Blend: AUG-CC-PVTZ
  Basis Set: (AUG-CC-PVTZ AUX)
    Blend: AUG-CC-PVTZ-JKFIT
	 Reference Energy          =    -931.0564854241329158 [Eh]
	 Singles Energy            =      -0.0000000000000000 [Eh]
	 Same-Spin Energy          =      -0.6212910312074696 [Eh]
	 Opposite-Spin Energy      =      -1.8673812668597267 [Eh]
	 Correlation Energy        =      -2.4886722980671965 [Eh]
	 Total Energy              =    -933.5451577222000878 [Eh]

	 ================> DF-SCS-MP2 Energies <==================
	-----------------------------------------------------------
	 SCS Same-Spin Scale       =       0.3333333333333333 [-]
	 SCS Opposite-Spin Scale   =       1.2000000000000000 [-]
	 SCS Same-Spin Energy      =      -0.2070970104024899 [Eh]
	 SCS Opposite-Spin Energy  =      -2.2408575202316721 [Eh]
	 SCS Correlation Energy    =      -2.4479545306341621 [Eh]
	 SCS Total Energy          =    -933.5044399547671219 [Eh]
	-----------------------------------------------------------

  Dipole Moment: [D]
     X:     4.4268      Y:     0.9820      Z:     1.8959     Total:     4.9148

*** Psi4 exiting successfully. Buy a developer a beer!
