                               Psi4 1.4a3.dev225

  ==> Input File <==

--------------------------------------------------------------------------
#psi4
#
memory 32 gb

molecule  {
0 1
  S       -1.9906940    -0.0125100    -0.1365530
  O       -2.3617000    -0.1700640     1.4590810
  O       -2.4286150    -1.2343840    -0.7923790
  O       -2.4725380     1.3090340    -0.5392830
  C       -0.2242900    -0.0021990    -0.0874500
  C        1.8486770    -1.2201060     0.0278510
  C        1.8399080     1.2326580     0.0087760
  C        0.4429230     1.2221080    -0.0627730
  C        0.4524940    -1.2213400    -0.0491660
  C        2.5197880     0.0092800     0.0551460
  C        2.6153160    -2.5166400     0.0331700
  C        2.5970370     2.5347130    -0.0106060
  H       -0.1225000     2.1495790    -0.1127420
  H       -0.1051200    -2.1541630    -0.0856740
  H        3.5082376     0.0133373     0.1136624
  H        2.0290960    -3.3176030     0.4912070
  H        2.8638720    -2.8264950    -0.9873940
  H        3.5515030    -2.4163920     0.5891050
  H        2.8417130     2.8282160    -1.0369270
  H        2.0062320     3.3400050     0.4339970
  H        3.5349660     2.4512730     0.5451920
  H       -2.8050090     0.6644540     1.7194690
units angstrom
no_reorient  #important for SAPT in psi4, default
symmetry c1  #important for SAPT in psi4, default
}

set PROPERTIES_ORIGIN ["COM"]
properties('MP2/aug-cc-pvtz', properties = ['dipole'])
--------------------------------------------------------------------------

    Molecular point group: c1
  Charge       = 0
  Multiplicity = 1
  Basis Set: AUG-CC-PVTZ
    Blend: AUG-CC-PVTZ
  Basis Set: (AUG-CC-PVTZ AUX)
    Blend: AUG-CC-PVTZ-JKFIT

    Orbital Energies [Eh]
    ---------------------

    Doubly Occupied:

       1A    -92.228520     2A    -20.628439     3A    -20.564748
       4A    -20.560530     5A    -11.285743     6A    -11.266585
       7A    -11.266257     8A    -11.262057     9A    -11.261321
      10A    -11.245166    11A    -11.241561    12A    -11.240440
      13A     -9.191430    14A     -6.877050    15A     -6.875749
      16A     -6.875512    17A     -1.492492    18A     -1.378868
      19A     -1.351207    20A     -1.188055    21A     -1.081225
      22A     -1.077541    23A     -0.964039    24A     -0.953529
      25A     -0.927897    26A     -0.822673    27A     -0.809341
      28A     -0.740034    29A     -0.725362    30A     -0.699570
      31A     -0.685385    32A     -0.670909    33A     -0.627837
      34A     -0.602949    35A     -0.600814    36A     -0.591406
      37A     -0.585367    38A     -0.579474    39A     -0.570265
      40A     -0.548013    41A     -0.541158    42A     -0.523357
      43A     -0.507808    44A     -0.506526    45A     -0.500672
      46A     -0.483768    47A     -0.473611    48A     -0.362928
      49A     -0.344467

  @DF-RHF Final Energy:  -931.05184660884981

   => Energetics <=

    Nuclear Repulsion Energy =            831.0619270526246964
    One-Electron Energy =               -2927.4482320253841863
    Two-Electron Energy =                1165.3344583639097891
    Total Energy =                       -931.0518466088499281
  Basis Set: (AUG-CC-PVTZ AUX)
    Blend: AUG-CC-PVTZ-RI
    Molecular point group: c1

    Geometry (in Angstrom), charge = 0, multiplicity = 1:

       Center              X                  Y                   Z               Mass
    ------------   -----------------  -----------------  -----------------  -----------------
         S           -1.897836770145    -0.008604926967    -0.127600452153    31.972071174400
         O           -2.268842770145    -0.166158926967     1.468033547847    15.994914619570
         O           -2.335757770145    -1.230478926967    -0.783426452153    15.994914619570
         O           -2.379680770145     1.312939073033    -0.530330452153    15.994914619570
         C           -0.131432770145     0.001706073033    -0.078497452153    12.000000000000
         C            1.941534229855    -1.216200926967     0.036803547847    12.000000000000
         C            1.932765229855     1.236563073033     0.017728547847    12.000000000000
         C            0.535780229855     1.226013073033    -0.053820452153    12.000000000000
         C            0.545351229855    -1.217434926967    -0.040213452153    12.000000000000
         C            2.612645229855     0.013185073033     0.064098547847    12.000000000000
         C            2.708173229855    -2.512734926967     0.042122547847    12.000000000000
         C            2.689894229855     2.538618073033    -0.001653452153    12.000000000000
         H           -0.029642770145     2.153484073033    -0.103789452153     1.007825032230
         H           -0.012262770145    -2.150257926967    -0.076721452153     1.007825032230
         H            3.601094829855     0.017242373033     0.122614947847     1.007825032230
         H            2.121953229855    -3.313697926967     0.500159547847     1.007825032230
         H            2.956729229855    -2.822589926967    -0.978441452153     1.007825032230
         H            3.644360229855    -2.412486926967     0.598057547847     1.007825032230
         H            2.934570229855     2.832121073033    -1.027974452153     1.007825032230
         H            2.099089229855     3.343910073033     0.442949547847     1.007825032230
         H            3.627823229855     2.455178073033     0.554144547847     1.007825032230
         H           -2.712151770145     0.668359073033     1.728421547847     1.007825032230

  Basis Set: AUG-CC-PVTZ
    Blend: AUG-CC-PVTZ
  Basis Set: (AUG-CC-PVTZ AUX)
    Blend: AUG-CC-PVTZ-JKFIT
	 Reference Energy          =    -931.0518466088498144 [Eh]
	 Singles Energy            =      -0.0000000000000000 [Eh]
	 Same-Spin Energy          =      -0.6210747282300195 [Eh]
	 Opposite-Spin Energy      =      -1.8670999626400295 [Eh]
	 Correlation Energy        =      -2.4881746908700491 [Eh]
	 Total Energy              =    -933.5400212997199105 [Eh]

	 ================> DF-SCS-MP2 Energies <==================
	-----------------------------------------------------------
	 SCS Same-Spin Scale       =       0.3333333333333333 [-]
	 SCS Opposite-Spin Scale   =       1.2000000000000000 [-]
	 SCS Same-Spin Energy      =      -0.2070249094100065 [Eh]
	 SCS Opposite-Spin Energy  =      -2.2405199551680353 [Eh]
	 SCS Correlation Energy    =      -2.4475448645780418 [Eh]
	 SCS Total Energy          =    -933.4993914734278633 [Eh]
	-----------------------------------------------------------

  Dipole Moment: [D]
     X:     4.4609      Y:     1.0035      Z:     1.8919     Total:     4.9483

*** Psi4 exiting successfully. Buy a developer a beer!
