                               Psi4 1.4a3.dev225

  ==> Input File <==

--------------------------------------------------------------------------
#psi4
#
memory 32 gb

molecule  {
0 1
  S       -1.9906940    -0.0125100    -0.1365530
  O       -2.3617000    -0.1700640     1.4590810
  O       -2.4286150    -1.2343840    -0.7923790
  O       -2.4725380     1.3090340    -0.5392830
  C       -0.2242900    -0.0021990    -0.0874500
  C        1.8486770    -1.2201060     0.0278510
  C        1.8399080     1.2326580     0.0087760
  C        0.4429230     1.2221080    -0.0627730
  C        0.4524940    -1.2213400    -0.0491660
  C        2.5102069    -0.0082714     0.0547563
  C        2.6153160    -2.5166400     0.0331700
  C        2.5970370     2.5347130    -0.0106060
  H       -0.1225000     2.1495790    -0.1127420
  H       -0.1051200    -2.1541630    -0.0856740
  H        3.6080620     0.0137470     0.1195720
  H        2.0290960    -3.3176030     0.4912070
  H        2.8638720    -2.8264950    -0.9873940
  H        3.5515030    -2.4163920     0.5891050
  H        2.8417130     2.8282160    -1.0369270
  H        2.0062320     3.3400050     0.4339970
  H        3.5349660     2.4512730     0.5451920
  H       -2.8050090     0.6644540     1.7194690
units angstrom
no_reorient  #important for SAPT in psi4, default
symmetry c1  #important for SAPT in psi4, default
}

set PROPERTIES_ORIGIN ["COM"]
properties('MP2/aug-cc-pvtz', properties = ['dipole'])
--------------------------------------------------------------------------

    Molecular point group: c1
  Charge       = 0
  Multiplicity = 1
  Basis Set: AUG-CC-PVTZ
    Blend: AUG-CC-PVTZ
  Basis Set: (AUG-CC-PVTZ AUX)
    Blend: AUG-CC-PVTZ-JKFIT

    Orbital Energies [Eh]
    ---------------------

    Doubly Occupied:

       1A    -92.228722     2A    -20.628602     3A    -20.564973
       4A    -20.560667     5A    -11.285838     6A    -11.268511
       7A    -11.264929     8A    -11.262651     9A    -11.262208
      10A    -11.256876    11A    -11.242063    12A    -11.240153
      13A     -9.191626    14A     -6.877246    15A     -6.875944
      16A     -6.875709    17A     -1.492670    18A     -1.379035
      19A     -1.351393    20A     -1.188746    21A     -1.082356
      22A     -1.075278    23A     -0.962998    24A     -0.953770
      25A     -0.923652    26A     -0.818961    27A     -0.810796
      28A     -0.740041    29A     -0.722683    30A     -0.690869
      31A     -0.682768    32A     -0.670950    33A     -0.627670
      34A     -0.602918    35A     -0.601131    36A     -0.591826
      37A     -0.585454    38A     -0.573722    39A     -0.569002
      40A     -0.548169    41A     -0.536177    42A     -0.523628
      43A     -0.509116    44A     -0.507039    45A     -0.500977
      46A     -0.483990    47A     -0.473373    48A     -0.364296
      49A     -0.344923

  @DF-RHF Final Energy:  -931.05702769154209

   => Energetics <=

    Nuclear Repulsion Energy =            830.6716944982609903
    One-Electron Energy =               -2926.7032504264711861
    Two-Electron Energy =                1164.9745282366682204
    Total Energy =                       -931.0570276915420891
  Basis Set: (AUG-CC-PVTZ AUX)
    Blend: AUG-CC-PVTZ-RI
    Molecular point group: c1

    Geometry (in Angstrom), charge = 0, multiplicity = 1:

       Center              X                  Y                   Z               Mass
    ------------   -----------------  -----------------  -----------------  -----------------
         S           -1.897759539163    -0.007475011520    -0.127607329581    31.972071174400
         O           -2.268765539163    -0.165029011520     1.468026670419    15.994914619570
         O           -2.335680539163    -1.229349011520    -0.783433329581    15.994914619570
         O           -2.379603539163     1.314068988480    -0.530337329581    15.994914619570
         C           -0.131355539163     0.002835988480    -0.078504329581    12.000000000000
         C            1.941611460837    -1.215071011520     0.036796670419    12.000000000000
         C            1.932842460837     1.237692988480     0.017721670419    12.000000000000
         C            0.535857460837     1.227142988480    -0.053827329581    12.000000000000
         C            0.545428460837    -1.216305011520    -0.040220329581    12.000000000000
         C            2.603141360837    -0.003236411520     0.063701970419    12.000000000000
         C            2.708250460837    -2.511605011520     0.042115670419    12.000000000000
         C            2.689971460837     2.539747988480    -0.001660329581    12.000000000000
         H           -0.029565539163     2.154613988480    -0.103796329581     1.007825032230
         H           -0.012185539163    -2.149128011520    -0.076728329581     1.007825032230
         H            3.700996460837     0.018781988480     0.128517670419     1.007825032230
         H            2.122030460837    -3.312568011520     0.500152670419     1.007825032230
         H            2.956806460837    -2.821460011520    -0.978448329581     1.007825032230
         H            3.644437460837    -2.411357011520     0.598050670419     1.007825032230
         H            2.934647460837     2.833250988480    -1.027981329581     1.007825032230
         H            2.099166460837     3.345039988480     0.442942670419     1.007825032230
         H            3.627900460837     2.456307988480     0.554137670419     1.007825032230
         H           -2.712074539163     0.669488988480     1.728414670419     1.007825032230

  Basis Set: AUG-CC-PVTZ
    Blend: AUG-CC-PVTZ
  Basis Set: (AUG-CC-PVTZ AUX)
    Blend: AUG-CC-PVTZ-JKFIT
	 Reference Energy          =    -931.0570276915420891 [Eh]
	 Singles Energy            =      -0.0000000000000000 [Eh]
	 Same-Spin Energy          =      -0.6213023388939314 [Eh]
	 Opposite-Spin Energy      =      -1.8676640129712760 [Eh]
	 Correlation Energy        =      -2.4889663518652076 [Eh]
	 Total Energy              =    -933.5459940434072905 [Eh]

	 ================> DF-SCS-MP2 Energies <==================
	-----------------------------------------------------------
	 SCS Same-Spin Scale       =       0.3333333333333333 [-]
	 SCS Opposite-Spin Scale   =       1.2000000000000000 [-]
	 SCS Same-Spin Energy      =      -0.2071007796313105 [Eh]
	 SCS Opposite-Spin Energy  =      -2.2411968155655311 [Eh]
	 SCS Correlation Energy    =      -2.4482975951968413 [Eh]
	 SCS Total Energy          =    -933.5053252867389801 [Eh]
	-----------------------------------------------------------

  Dipole Moment: [D]
     X:     4.4246      Y:     1.0244      Z:     1.8894     Total:     4.9190

*** Psi4 exiting successfully. Buy a developer a beer!
