                               Psi4 1.4a3.dev225

  ==> Input File <==

--------------------------------------------------------------------------
#psi4
#
memory 32 gb

molecule  {
0 1
  S       -1.9906940    -0.0125100    -0.1365530
  O       -2.3617000    -0.1700640     1.4590810
  O       -2.4286150    -1.2343840    -0.7923790
  O       -2.4725380     1.3090340    -0.5392830
  C       -0.2242900    -0.0021990    -0.0874500
  C        1.8486770    -1.2201060     0.0278510
  C        1.8399080     1.2326580     0.0087760
  C        0.4429230     1.2221080    -0.0627730
  C        0.4524940    -1.2213400    -0.0491660
  C        2.5197880     0.0092800     0.0551460
  C        2.6153160    -2.5166400     0.0331700
  C        2.5970370     2.5347130    -0.0106060
  H       -0.1225000     2.1495790    -0.1127420
  H       -0.1051200    -2.1541630    -0.0856740
  H        3.6080620     0.0137470     0.1195720
  H        2.0290960    -3.3176030     0.4912070
  H        2.8638720    -2.8264950    -0.9873940
  H        3.5515030    -2.4163920     0.5891050
  H        2.8417130     2.8282160    -1.0369270
  H        2.0332523     3.3031752     0.4136632
  H        3.5349660     2.4512730     0.5451920
  H       -2.8050090     0.6644540     1.7194690
units angstrom
no_reorient  #important for SAPT in psi4, default
symmetry c1  #important for SAPT in psi4, default
}

set PROPERTIES_ORIGIN ["COM"]
properties('MP2/aug-cc-pvtz', properties = ['dipole'])
--------------------------------------------------------------------------

    Molecular point group: c1
  Charge       = 0
  Multiplicity = 1
  Basis Set: AUG-CC-PVTZ
    Blend: AUG-CC-PVTZ
  Basis Set: (AUG-CC-PVTZ AUX)
    Blend: AUG-CC-PVTZ-JKFIT

    Orbital Energies [Eh]
    ---------------------

    Doubly Occupied:

       1A    -92.228724     2A    -20.628608     3A    -20.564950
       4A    -20.560712     5A    -11.285996     6A    -11.267069
       7A    -11.266946     8A    -11.262705     9A    -11.261926
      10A    -11.256795    11A    -11.240237    12A    -11.235419
      13A     -9.191631    14A     -6.877251    15A     -6.875951
      16A     -6.875714    17A     -1.492678    18A     -1.379043
      19A     -1.351399    20A     -1.187793    21A     -1.082290
      22A     -1.075502    23A     -0.965265    24A     -0.954555
      25A     -0.923965    26A     -0.819225    27A     -0.810934
      28A     -0.740110    29A     -0.722826    30A     -0.691243
      31A     -0.683804    32A     -0.670891    33A     -0.627893
      34A     -0.604360    35A     -0.600953    36A     -0.591714
      37A     -0.586685    38A     -0.574576    39A     -0.572191
      40A     -0.549705    41A     -0.537514    42A     -0.523582
      43A     -0.508895    44A     -0.506642    45A     -0.500910
      46A     -0.483951    47A     -0.473507    48A     -0.363121
      49A     -0.345019

  @DF-RHF Final Energy:  -931.05648538581022

   => Energetics <=

    Nuclear Repulsion Energy =            830.6942581424547143
    One-Electron Energy =               -2926.7347360278786255
    Two-Electron Energy =                1164.9839924996138052
    Total Energy =                       -931.0564853858102197
  Basis Set: (AUG-CC-PVTZ AUX)
    Blend: AUG-CC-PVTZ-RI
    Molecular point group: c1

    Geometry (in Angstrom), charge = 0, multiplicity = 1:

       Center              X                  Y                   Z               Mass
    ------------   -----------------  -----------------  -----------------  -----------------
         S           -1.898523937715    -0.008407624978    -0.127522310595    31.972071174400
         O           -2.269529937715    -0.165961624978     1.468111689405    15.994914619570
         O           -2.336444937715    -1.230281624978    -0.783348310595    15.994914619570
         O           -2.380367937715     1.313136375022    -0.530252310595    15.994914619570
         C           -0.132119937715     0.001903375022    -0.078419310595    12.000000000000
         C            1.940847062285    -1.216003624978     0.036881689405    12.000000000000
         C            1.932078062285     1.236760375022     0.017806689405    12.000000000000
         C            0.535093062285     1.226210375022    -0.053742310595    12.000000000000
         C            0.544664062285    -1.217237624978    -0.040135310595    12.000000000000
         C            2.611958062285     0.013382375022     0.064176689405    12.000000000000
         C            2.707486062285    -2.512537624978     0.042200689405    12.000000000000
         C            2.689207062285     2.538815375022    -0.001575310595    12.000000000000
         H           -0.030329937715     2.153681375022    -0.103711310595     1.007825032230
         H           -0.012949937715    -2.150060624978    -0.076643310595     1.007825032230
         H            3.700232062285     0.017849375022     0.128602689405     1.007825032230
         H            2.121266062285    -3.313500624978     0.500237689405     1.007825032230
         H            2.956042062285    -2.822392624978    -0.978363310595     1.007825032230
         H            3.643673062285    -2.412289624978     0.598135689405     1.007825032230
         H            2.933883062285     2.832318375022    -1.027896310595     1.007825032230
         H            2.125422362285     3.307277575022     0.422693889405     1.007825032230
         H            3.627136062285     2.455375375022     0.554222689405     1.007825032230
         H           -2.712838937715     0.668556375022     1.728499689405     1.007825032230

  Basis Set: AUG-CC-PVTZ
    Blend: AUG-CC-PVTZ
  Basis Set: (AUG-CC-PVTZ AUX)
    Blend: AUG-CC-PVTZ-JKFIT
	 Reference Energy          =    -931.0564853858102197 [Eh]
	 Singles Energy            =      -0.0000000000000000 [Eh]
	 Same-Spin Energy          =      -0.6212927755551632 [Eh]
	 Opposite-Spin Energy      =      -1.8673836317028454 [Eh]
	 Correlation Energy        =      -2.4886764072580085 [Eh]
	 Total Energy              =    -933.5451617930682460 [Eh]

	 ================> DF-SCS-MP2 Energies <==================
	-----------------------------------------------------------
	 SCS Same-Spin Scale       =       0.3333333333333333 [-]
	 SCS Opposite-Spin Scale   =       1.2000000000000000 [-]
	 SCS Same-Spin Energy      =      -0.2070975918517211 [Eh]
	 SCS Opposite-Spin Energy  =      -2.2408603580434145 [Eh]
	 SCS Correlation Energy    =      -2.4479579498951356 [Eh]
	 SCS Total Energy          =    -933.5044433357053322 [Eh]
	-----------------------------------------------------------

  Dipole Moment: [D]
     X:     4.4264      Y:     1.0254      Z:     1.8959     Total:     4.9233

*** Psi4 exiting successfully. Buy a developer a beer!
