                               Psi4 1.4a3.dev225

  ==> Input File <==

--------------------------------------------------------------------------
#psi4
#
memory 32 gb

molecule  {
0 1
  S       -1.9906940    -0.0125100    -0.1365530
  O       -2.3617000    -0.1700640     1.4590810
  O       -2.4286150    -1.2343840    -0.7923790
  O       -2.4725380     1.3090340    -0.5392830
  C       -0.2242900    -0.0021990    -0.0874500
  C        1.8486770    -1.2201060     0.0278510
  C        1.8399080     1.2326580     0.0087760
  C        0.4429230     1.2221080    -0.0627730
  C        0.4524940    -1.2213400    -0.0491660
  C        2.5410450     0.0213416     0.0552547
  C        2.6153160    -2.5166400     0.0331700
  C        2.5970370     2.5347130    -0.0106060
  H       -0.1225000     2.1495790    -0.1127420
  H       -0.1051200    -2.1541630    -0.0856740
  H        3.6080620     0.0137470     0.1195720
  H        2.0290960    -3.3176030     0.4912070
  H        2.8638720    -2.8264950    -0.9873940
  H        3.5515030    -2.4163920     0.5891050
  H        2.8417130     2.8282160    -1.0369270
  H        2.0062320     3.3400050     0.4339970
  H        3.5349660     2.4512730     0.5451920
  H       -2.8050090     0.6644540     1.7194690
units angstrom
no_reorient  #important for SAPT in psi4, default
symmetry c1  #important for SAPT in psi4, default
}

set PROPERTIES_ORIGIN ["COM"]
properties('MP2/aug-cc-pvtz', properties = ['dipole'])
--------------------------------------------------------------------------

    Molecular point group: c1
  Charge       = 0
  Multiplicity = 1
  Basis Set: AUG-CC-PVTZ
    Blend: AUG-CC-PVTZ
  Basis Set: (AUG-CC-PVTZ AUX)
    Blend: AUG-CC-PVTZ-JKFIT

    Orbital Energies [Eh]
    ---------------------

    Doubly Occupied:

       1A    -92.228900     2A    -20.628765     3A    -20.565078
       4A    -20.560923     5A    -11.286554     6A    -11.269448
       7A    -11.267627     8A    -11.263141     9A    -11.261560
      10A    -11.257568    11A    -11.240787    12A    -11.240206
      13A     -9.191813    14A     -6.877432    15A     -6.876134
      16A     -6.875893    17A     -1.492840    18A     -1.379196
      19A     -1.351555    20A     -1.186147    21A     -1.081033
      22A     -1.074984    23A     -0.961251    24A     -0.953678
      25A     -0.924967    26A     -0.820088    27A     -0.807326
      28A     -0.740184    29A     -0.723167    30A     -0.693007
      31A     -0.684550    32A     -0.670357    33A     -0.628041
      34A     -0.601457    35A     -0.600301    36A     -0.591656
      37A     -0.585075    38A     -0.576333    39A     -0.569655
      40A     -0.547788    41A     -0.540781    42A     -0.523571
      43A     -0.507403    44A     -0.504364    45A     -0.500504
      46A     -0.484041    47A     -0.473954    48A     -0.361911
      49A     -0.344724

  @DF-RHF Final Energy:  -931.05638014421879

   => Energetics <=

    Nuclear Repulsion Energy =            830.0479085751336470
    One-Electron Energy =               -2925.4531421479273376
    Two-Electron Energy =                1164.3488534285750120
    Total Energy =                       -931.0563801442187923
  Basis Set: (AUG-CC-PVTZ AUX)
    Blend: AUG-CC-PVTZ-RI
    Molecular point group: c1

    Geometry (in Angstrom), charge = 0, multiplicity = 1:

       Center              X                  Y                   Z               Mass
    ------------   -----------------  -----------------  -----------------  -----------------
         S           -1.899748718994    -0.009385167540    -0.127639478359    31.972071174400
         O           -2.270754718994    -0.166939167540     1.467994521641    15.994914619570
         O           -2.337669718994    -1.231259167540    -0.783465478359    15.994914619570
         O           -2.381592718994     1.312158832460    -0.530369478359    15.994914619570
         C           -0.133344718994     0.000925832460    -0.078536478359    12.000000000000
         C            1.939622281006    -1.216981167540     0.036764521641    12.000000000000
         C            1.930853281006     1.235782832460     0.017689521641    12.000000000000
         C            0.533868281006     1.225232832460    -0.053859478359    12.000000000000
         C            0.543439281006    -1.218215167540    -0.040252478359    12.000000000000
         C            2.631990281006     0.024466432460     0.064168221641    12.000000000000
         C            2.706261281006    -2.513515167540     0.042083521641    12.000000000000
         C            2.687982281006     2.537837832460    -0.001692478359    12.000000000000
         H           -0.031554718994     2.152703832460    -0.103828478359     1.007825032230
         H           -0.014174718994    -2.151038167540    -0.076760478359     1.007825032230
         H            3.699007281006     0.016871832460     0.128485521641     1.007825032230
         H            2.120041281006    -3.314478167540     0.500120521641     1.007825032230
         H            2.954817281006    -2.823370167540    -0.978480478359     1.007825032230
         H            3.642448281006    -2.413267167540     0.598018521641     1.007825032230
         H            2.932658281006     2.831340832460    -1.028013478359     1.007825032230
         H            2.097177281006     3.343129832460     0.442910521641     1.007825032230
         H            3.625911281006     2.454397832460     0.554105521641     1.007825032230
         H           -2.714063718994     0.667578832460     1.728382521641     1.007825032230

  Basis Set: AUG-CC-PVTZ
    Blend: AUG-CC-PVTZ
  Basis Set: (AUG-CC-PVTZ AUX)
    Blend: AUG-CC-PVTZ-JKFIT
	 Reference Energy          =    -931.0563801442187923 [Eh]
	 Singles Energy            =      -0.0000000000000000 [Eh]
	 Same-Spin Energy          =      -0.6212964529180172 [Eh]
	 Opposite-Spin Energy      =      -1.8678129358427160 [Eh]
	 Correlation Energy        =      -2.4891093887607330 [Eh]
	 Total Energy              =    -933.5454895329795590 [Eh]

	 ================> DF-SCS-MP2 Energies <==================
	-----------------------------------------------------------
	 SCS Same-Spin Scale       =       0.3333333333333333 [-]
	 SCS Opposite-Spin Scale   =       1.2000000000000000 [-]
	 SCS Same-Spin Energy      =      -0.2070988176393390 [Eh]
	 SCS Opposite-Spin Energy  =      -2.2413755230112593 [Eh]
	 SCS Correlation Energy    =      -2.4484743406505984 [Eh]
	 SCS Total Energy          =    -933.5048544848693837 [Eh]
	-----------------------------------------------------------

  Dipole Moment: [D]
     X:     4.4327      Y:     0.9892      Z:     1.8906     Total:     4.9195

*** Psi4 exiting successfully. Buy a developer a beer!
