                               Psi4 1.4a3.dev225

  ==> Input File <==

--------------------------------------------------------------------------
#psi4
#
memory 32 gb

molecule  {
0 1
  S       -1.9906940    -0.0125100    -0.1365530
  O       -2.3617000    -0.1700640     1.4590810
  O       -2.4286150    -1.2343840    -0.7923790
  O       -2.4725380     1.3090340    -0.5392830
  C       -0.2242900    -0.0021990    -0.0874500
  C        1.8486770    -1.2201060     0.0278510
  C        1.8399080     1.2326580     0.0087760
  C        0.4429230     1.2221080    -0.0627730
  C        0.4524940    -1.2213400    -0.0491660
  C        2.4718823    -0.0784768     0.0531976
  C        2.6153160    -2.5166400     0.0331700
  C        2.5970370     2.5347130    -0.0106060
  H       -0.1225000     2.1495790    -0.1127420
  H       -0.1051200    -2.1541630    -0.0856740
  H        3.6080620     0.0137470     0.1195720
  H        2.0290960    -3.3176030     0.4912070
  H        2.8638720    -2.8264950    -0.9873940
  H        3.5515030    -2.4163920     0.5891050
  H        2.8417130     2.8282160    -1.0369270
  H        2.0062320     3.3400050     0.4339970
  H        3.5349660     2.4512730     0.5451920
  H       -2.8050090     0.6644540     1.7194690
units angstrom
no_reorient  #important for SAPT in psi4, default
symmetry c1  #important for SAPT in psi4, default
}

set PROPERTIES_ORIGIN ["COM"]
properties('MP2/aug-cc-pvtz', properties = ['dipole'])
--------------------------------------------------------------------------

    Molecular point group: c1
  Charge       = 0
  Multiplicity = 1
  Basis Set: AUG-CC-PVTZ
    Blend: AUG-CC-PVTZ
  Basis Set: (AUG-CC-PVTZ AUX)
    Blend: AUG-CC-PVTZ-JKFIT

    Orbital Energies [Eh]
    ---------------------

    Doubly Occupied:

       1A    -92.228608     2A    -20.628515     3A    -20.565015
       4A    -20.560359     5A    -11.285161     6A    -11.272699
       7A    -11.265752     8A    -11.259888     9A    -11.255909
      10A    -11.253620    11A    -11.244333    12A    -11.239368
      13A     -9.191501    14A     -6.877123    15A     -6.875816
      16A     -6.875590    17A     -1.492559    18A     -1.378926
      19A     -1.351286    20A     -1.193622    21A     -1.089283
      22A     -1.071730    23A     -0.965189    24A     -0.954040
      25A     -0.922798    26A     -0.820899    27A     -0.810978
      28A     -0.740054    29A     -0.722362    30A     -0.690245
      31A     -0.679494    32A     -0.671409    33A     -0.627298
      34A     -0.604814    35A     -0.602597    36A     -0.592009
      37A     -0.586149    38A     -0.572333    39A     -0.567803
      40A     -0.549200    41A     -0.534712    42A     -0.523919
      43A     -0.509811    44A     -0.504342    45A     -0.499316
      46A     -0.483970    47A     -0.471295    48A     -0.372668
      49A     -0.341908

  @DF-RHF Final Energy:  -931.04408887480986

   => Energetics <=

    Nuclear Repulsion Energy =            831.5330786761778654
    One-Electron Energy =               -2928.3977774946979480
    Two-Electron Energy =                1165.8206099437102239
    Total Energy =                       -931.0440888748098587
  Basis Set: (AUG-CC-PVTZ AUX)
    Blend: AUG-CC-PVTZ-RI
    Molecular point group: c1

    Geometry (in Angstrom), charge = 0, multiplicity = 1:

       Center              X                  Y                   Z               Mass
    ------------   -----------------  -----------------  -----------------  -----------------
         S           -1.895287450370    -0.002946484608    -0.127506787245    31.972071174400
         O           -2.266293450370    -0.160500484608     1.468127212755    15.994914619570
         O           -2.333208450370    -1.224820484608    -0.783332787245    15.994914619570
         O           -2.377131450370     1.318597515392    -0.530236787245    15.994914619570
         C           -0.128883450370     0.007364515392    -0.078403787245    12.000000000000
         C            1.944083549630    -1.210542484608     0.036897212755    12.000000000000
         C            1.935314549630     1.242221515392     0.017822212755    12.000000000000
         C            0.538329549630     1.231671515392    -0.053726787245    12.000000000000
         C            0.547900549630    -1.211776484608    -0.040119787245    12.000000000000
         C            2.567288849630    -0.068913284608     0.062243812755    12.000000000000
         C            2.710722549630    -2.507076484608     0.042216212755    12.000000000000
         C            2.692443549630     2.544276515392    -0.001559787245    12.000000000000
         H           -0.027093450370     2.159142515392    -0.103695787245     1.007825032230
         H           -0.009713450370    -2.144599484608    -0.076627787245     1.007825032230
         H            3.703468549630     0.023310515392     0.128618212755     1.007825032230
         H            2.124502549630    -3.308039484608     0.500253212755     1.007825032230
         H            2.959278549630    -2.816931484608    -0.978347787245     1.007825032230
         H            3.646909549630    -2.406828484608     0.598151212755     1.007825032230
         H            2.937119549630     2.837779515392    -1.027880787245     1.007825032230
         H            2.101638549630     3.349568515392     0.443043212755     1.007825032230
         H            3.630372549630     2.460836515392     0.554238212755     1.007825032230
         H           -2.709602450370     0.674017515392     1.728515212755     1.007825032230

  Basis Set: AUG-CC-PVTZ
    Blend: AUG-CC-PVTZ
  Basis Set: (AUG-CC-PVTZ AUX)
    Blend: AUG-CC-PVTZ-JKFIT
	 Reference Energy          =    -931.0440888748098587 [Eh]
	 Singles Energy            =      -0.0000000000000000 [Eh]
	 Same-Spin Energy          =      -0.6211869413449284 [Eh]
	 Opposite-Spin Energy      =      -1.8679917205194259 [Eh]
	 Correlation Energy        =      -2.4891786618643543 [Eh]
	 Total Energy              =    -933.5332675366742023 [Eh]

	 ================> DF-SCS-MP2 Energies <==================
	-----------------------------------------------------------
	 SCS Same-Spin Scale       =       0.3333333333333333 [-]
	 SCS Opposite-Spin Scale   =       1.2000000000000000 [-]
	 SCS Same-Spin Energy      =      -0.2070623137816428 [Eh]
	 SCS Opposite-Spin Energy  =      -2.2415900646233111 [Eh]
	 SCS Correlation Energy    =      -2.4486523784049541 [Eh]
	 SCS Total Energy          =    -933.4927412532148310 [Eh]
	-----------------------------------------------------------

  Dipole Moment: [D]
     X:     4.3949      Y:     1.1096      Z:     1.8875     Total:     4.9101

*** Psi4 exiting successfully. Buy a developer a beer!
