                               Psi4 1.4a3.dev225

  ==> Input File <==

--------------------------------------------------------------------------
#psi4
#
memory 32 gb

molecule  {
0 1
  S       -1.9906940    -0.0125100    -0.1365530
  O       -2.3617000    -0.1700640     1.4590810
  O       -2.4286150    -1.2343840    -0.7923790
  O       -2.4725380     1.3090340    -0.5392830
  C       -0.2242900    -0.0021990    -0.0874500
  C        1.8486770    -1.2201060     0.0278510
  C        1.8399080     1.2326580     0.0087760
  C        0.4429230     1.2221080    -0.0627730
  C        0.4524940    -1.2213400    -0.0491660
  C        2.5620883     0.0337722     0.0553493
  C        2.6153160    -2.5166400     0.0331700
  C        2.5970370     2.5347130    -0.0106060
  H       -0.1225000     2.1495790    -0.1127420
  H       -0.1051200    -2.1541630    -0.0856740
  H        3.6080620     0.0137470     0.1195720
  H        2.0290960    -3.3176030     0.4912070
  H        2.8638720    -2.8264950    -0.9873940
  H        3.5515030    -2.4163920     0.5891050
  H        2.8417130     2.8282160    -1.0369270
  H        2.0062320     3.3400050     0.4339970
  H        3.5349660     2.4512730     0.5451920
  H       -2.8050090     0.6644540     1.7194690
units angstrom
no_reorient  #important for SAPT in psi4, default
symmetry c1  #important for SAPT in psi4, default
}

set PROPERTIES_ORIGIN ["COM"]
properties('MP2/aug-cc-pvtz', properties = ['dipole'])
--------------------------------------------------------------------------

    Molecular point group: c1
  Charge       = 0
  Multiplicity = 1
  Basis Set: AUG-CC-PVTZ
    Blend: AUG-CC-PVTZ
  Basis Set: (AUG-CC-PVTZ AUX)
    Blend: AUG-CC-PVTZ-JKFIT

    Orbital Energies [Eh]
    ---------------------

    Doubly Occupied:

       1A    -92.229046     2A    -20.628901     3A    -20.565191
       4A    -20.561099     5A    -11.287073     6A    -11.271746
       7A    -11.267899     8A    -11.263533     9A    -11.261084
      10A    -11.258057    11A    -11.240107    12A    -11.240074
      13A     -9.191964    14A     -6.877583    15A     -6.876287
      16A     -6.876044    17A     -1.492978    18A     -1.379327
      19A     -1.351687    20A     -1.184570    21A     -1.080866
      22A     -1.074217    23A     -0.960105    24A     -0.953647
      25A     -0.925974    26A     -0.821168    27A     -0.804844
      28A     -0.740356    29A     -0.723620    30A     -0.695437
      31A     -0.685004    32A     -0.669910    33A     -0.628311
      34A     -0.600494    35A     -0.599794    36A     -0.591569
      37A     -0.584847    38A     -0.578686    39A     -0.569894
      40A     -0.547641    41A     -0.543392    42A     -0.523584
      43A     -0.507337    44A     -0.501092    45A     -0.499864
      46A     -0.484084    47A     -0.474221    48A     -0.360815
      49A     -0.344240

  @DF-RHF Final Energy:  -931.05374644824110

   => Energetics <=

    Nuclear Repulsion Energy =            829.6312060634837735
    One-Electron Energy =               -2924.6113797456446264
    Two-Electron Energy =                1163.9264272339198669
    Total Energy =                       -931.0537464482410996
  Basis Set: (AUG-CC-PVTZ AUX)
    Blend: AUG-CC-PVTZ-RI
    Molecular point group: c1

    Geometry (in Angstrom), charge = 0, multiplicity = 1:

       Center              X                  Y                   Z               Mass
    ------------   -----------------  -----------------  -----------------  -----------------
         S           -1.901106095355    -0.010186990571    -0.127645580434    31.972071174400
         O           -2.272112095355    -0.167740990571     1.467988419566    15.994914619570
         O           -2.339027095355    -1.232060990571    -0.783471580434    15.994914619570
         O           -2.382950095355     1.311357009429    -0.530375580434    15.994914619570
         C           -0.134702095355     0.000124009429    -0.078542580434    12.000000000000
         C            1.938264904645    -1.217782990571     0.036758419566    12.000000000000
         C            1.929495904645     1.234981009429     0.017683419566    12.000000000000
         C            0.532510904645     1.224431009429    -0.053865580434    12.000000000000
         C            0.542081904645    -1.219016990571    -0.040258580434    12.000000000000
         C            2.651676204645     0.036095209429     0.064256719566    12.000000000000
         C            2.704903904645    -2.514316990571     0.042077419566    12.000000000000
         C            2.686624904645     2.537036009429    -0.001698580434    12.000000000000
         H           -0.032912095355     2.151902009429    -0.103834580434     1.007825032230
         H           -0.015532095355    -2.151839990571    -0.076766580434     1.007825032230
         H            3.697649904645     0.016070009429     0.128479419566     1.007825032230
         H            2.118683904645    -3.315279990571     0.500114419566     1.007825032230
         H            2.953459904645    -2.824171990571    -0.978486580434     1.007825032230
         H            3.641090904645    -2.414068990571     0.598012419566     1.007825032230
         H            2.931300904645     2.830539009429    -1.028019580434     1.007825032230
         H            2.095819904645     3.342328009429     0.442904419566     1.007825032230
         H            3.624553904645     2.453596009429     0.554099419566     1.007825032230
         H           -2.715421095355     0.666777009429     1.728376419566     1.007825032230

  Basis Set: AUG-CC-PVTZ
    Blend: AUG-CC-PVTZ
  Basis Set: (AUG-CC-PVTZ AUX)
    Blend: AUG-CC-PVTZ-JKFIT
	 Reference Energy          =    -931.0537464482410996 [Eh]
	 Singles Energy            =      -0.0000000000000000 [Eh]
	 Same-Spin Energy          =      -0.6213135268373249 [Eh]
	 Opposite-Spin Energy      =      -1.8680370067267906 [Eh]
	 Correlation Energy        =      -2.4893505335641155 [Eh]
	 Total Energy              =    -933.5430969818052063 [Eh]

	 ================> DF-SCS-MP2 Energies <==================
	-----------------------------------------------------------
	 SCS Same-Spin Scale       =       0.3333333333333333 [-]
	 SCS Opposite-Spin Scale   =       1.2000000000000000 [-]
	 SCS Same-Spin Energy      =      -0.2071045089457750 [Eh]
	 SCS Opposite-Spin Energy  =      -2.2416444080721485 [Eh]
	 SCS Correlation Energy    =      -2.4487489170179235 [Eh]
	 SCS Total Energy          =    -933.5024953652590511 [Eh]
	-----------------------------------------------------------

  Dipole Moment: [D]
     X:     4.4339      Y:     0.9754      Z:     1.8912     Total:     4.9181

*** Psi4 exiting successfully. Buy a developer a beer!
