                               Psi4 1.4a3.dev225

  ==> Input File <==

--------------------------------------------------------------------------
#psi4
#
memory 32 gb

molecule  {
0 1
  S       -1.9906940    -0.0125100    -0.1365530
  O       -2.3617000    -0.1700640     1.4590810
  O       -2.4286150    -1.2343840    -0.7923790
  O       -2.4725380     1.3090340    -0.5392830
  C       -0.2242900    -0.0021990    -0.0874500
  C        1.8486770    -1.2201060     0.0278510
  C        1.8399080     1.2326580     0.0087760
  C        0.4429230     1.2221080    -0.0627730
  C        0.4524940    -1.2213400    -0.0491660
  C        2.5197880     0.0092800     0.0551460
  C        2.6153160    -2.5166400     0.0331700
  C        2.5970370     2.5347130    -0.0106060
  H       -0.1225000     2.1495790    -0.1127420
  H       -0.1051200    -2.1541630    -0.0856740
  H        3.6080620     0.0137470     0.1195720
  H        2.0290960    -3.3176030     0.4912070
  H        2.8184796    -2.7699079    -0.8010142
  H        3.5515030    -2.4163920     0.5891050
  H        2.8417130     2.8282160    -1.0369270
  H        2.0062320     3.3400050     0.4339970
  H        3.5349660     2.4512730     0.5451920
  H       -2.8050090     0.6644540     1.7194690
units angstrom
no_reorient  #important for SAPT in psi4, default
symmetry c1  #important for SAPT in psi4, default
}

set PROPERTIES_ORIGIN ["COM"]
properties('MP2/aug-cc-pvtz', properties = ['dipole'])
--------------------------------------------------------------------------

    Molecular point group: c1
  Charge       = 0
  Multiplicity = 1
  Basis Set: AUG-CC-PVTZ
    Blend: AUG-CC-PVTZ
  Basis Set: (AUG-CC-PVTZ AUX)
    Blend: AUG-CC-PVTZ-JKFIT

    Orbital Energies [Eh]
    ---------------------

    Doubly Occupied:

       1A    -92.228578     2A    -20.628468     3A    -20.564803
       4A    -20.560603     5A    -11.285772     6A    -11.267162
       7A    -11.266136     8A    -11.262491     9A    -11.261619
      10A    -11.256725    11A    -11.241296    12A    -11.216070
      13A     -9.191487    14A     -6.877107    15A     -6.875807
      16A     -6.875570    17A     -1.492545    18A     -1.378911
      19A     -1.351273    20A     -1.187914    21A     -1.086107
      22A     -1.076226    23A     -0.978523    24A     -0.956556
      25A     -0.923769    26A     -0.819667    27A     -0.814656
      28A     -0.740371    29A     -0.723694    30A     -0.690967
      31A     -0.683310    32A     -0.670372    33A     -0.632179
      34A     -0.627448    35A     -0.601670    36A     -0.594737
      37A     -0.588498    38A     -0.574292    39A     -0.568566
      40A     -0.547338    41A     -0.537229    42A     -0.524114
      43A     -0.509311    44A     -0.506525    45A     -0.502270
      46A     -0.483838    47A     -0.473339    48A     -0.363662
      49A     -0.345760

  @DF-RHF Final Energy:  -931.02372207342057

   => Energetics <=

    Nuclear Repulsion Energy =            831.5067134799288624
    One-Electron Energy =               -2928.2301992624429658
    Two-Electron Energy =                1165.6997637090937587
    Total Energy =                       -931.0237220734204584
  Basis Set: (AUG-CC-PVTZ AUX)
    Blend: AUG-CC-PVTZ-RI
    Molecular point group: c1

    Geometry (in Angstrom), charge = 0, multiplicity = 1:

       Center              X                  Y                   Z               Mass
    ------------   -----------------  -----------------  -----------------  -----------------
         S           -1.898131649672    -0.008913701024    -0.128642159373    31.972071174400
         O           -2.269137649672    -0.166467701024     1.466991840627    15.994914619570
         O           -2.336052649672    -1.230787701024    -0.784468159373    15.994914619570
         O           -2.379975649672     1.312630298976    -0.531372159373    15.994914619570
         C           -0.131727649672     0.001397298976    -0.079539159373    12.000000000000
         C            1.941239350328    -1.216509701024     0.035761840627    12.000000000000
         C            1.932470350328     1.236254298976     0.016686840627    12.000000000000
         C            0.535485350328     1.225704298976    -0.054862159373    12.000000000000
         C            0.545056350328    -1.217743701024    -0.041255159373    12.000000000000
         C            2.612350350328     0.012876298976     0.063056840627    12.000000000000
         C            2.707878350328    -2.513043701024     0.041080840627    12.000000000000
         C            2.689599350328     2.538309298976    -0.002695159373    12.000000000000
         H           -0.029937649672     2.153175298976    -0.104831159373     1.007825032230
         H           -0.012557649672    -2.150566701024    -0.077763159373     1.007825032230
         H            3.700624350328     0.017343298976     0.127482840627     1.007825032230
         H            2.121658350328    -3.314006701024     0.499117840627     1.007825032230
         H            2.911041950328    -2.766311601024    -0.793103359373     1.007825032230
         H            3.644065350328    -2.412795701024     0.597015840627     1.007825032230
         H            2.934275350328     2.831812298976    -1.029016159373     1.007825032230
         H            2.098794350328     3.343601298976     0.441907840627     1.007825032230
         H            3.627528350328     2.454869298976     0.553102840627     1.007825032230
         H           -2.712446649672     0.668050298976     1.727379840627     1.007825032230

  Basis Set: AUG-CC-PVTZ
    Blend: AUG-CC-PVTZ
  Basis Set: (AUG-CC-PVTZ AUX)
    Blend: AUG-CC-PVTZ-JKFIT
	 Reference Energy          =    -931.0237220734205721 [Eh]
	 Singles Energy            =      -0.0000000000000000 [Eh]
	 Same-Spin Energy          =      -0.6214128355035730 [Eh]
	 Opposite-Spin Energy      =      -1.8670738891414893 [Eh]
	 Correlation Energy        =      -2.4884867246450622 [Eh]
	 Total Energy              =    -933.5122087980656715 [Eh]

	 ================> DF-SCS-MP2 Energies <==================
	-----------------------------------------------------------
	 SCS Same-Spin Scale       =       0.3333333333333333 [-]
	 SCS Opposite-Spin Scale   =       1.2000000000000000 [-]
	 SCS Same-Spin Energy      =      -0.2071376118345243 [Eh]
	 SCS Opposite-Spin Energy  =      -2.2404886669697870 [Eh]
	 SCS Correlation Energy    =      -2.4476262788043113 [Eh]
	 SCS Total Energy          =    -933.4713483522249362 [Eh]
	-----------------------------------------------------------

  Dipole Moment: [D]
     X:     4.4513      Y:     0.9725      Z:     1.8622     Total:     4.9221

*** Psi4 exiting successfully. Buy a developer a beer!
