                               Psi4 1.4a3.dev225

  ==> Input File <==

--------------------------------------------------------------------------
#psi4
#
memory 32 gb

molecule  {
0 1
  S       -1.9906940    -0.0125100    -0.1365530
  O       -2.3617000    -0.1700640     1.4590810
  O       -2.4286150    -1.2343840    -0.7923790
  O       -2.4483641     1.3170964    -0.5409397
  C       -0.2242900    -0.0021990    -0.0874500
  C        1.8486770    -1.2201060     0.0278510
  C        1.8399080     1.2326580     0.0087760
  C        0.4429230     1.2221080    -0.0627730
  C        0.4524940    -1.2213400    -0.0491660
  C        2.5197880     0.0092800     0.0551460
  C        2.6153160    -2.5166400     0.0331700
  C        2.5970370     2.5347130    -0.0106060
  H       -0.1225000     2.1495790    -0.1127420
  H       -0.1051200    -2.1541630    -0.0856740
  H        3.6080620     0.0137470     0.1195720
  H        2.0290960    -3.3176030     0.4912070
  H        2.8638720    -2.8264950    -0.9873940
  H        3.5515030    -2.4163920     0.5891050
  H        2.8417130     2.8282160    -1.0369270
  H        2.0062320     3.3400050     0.4339970
  H        3.5349660     2.4512730     0.5451920
  H       -2.8050090     0.6644540     1.7194690
units angstrom
no_reorient  #important for SAPT in psi4, default
symmetry c1  #important for SAPT in psi4, default
}

set PROPERTIES_ORIGIN ["COM"]
properties('MP2/aug-cc-pvtz', properties = ['dipole'])
--------------------------------------------------------------------------

    Molecular point group: c1
  Charge       = 0
  Multiplicity = 1
  Basis Set: AUG-CC-PVTZ
    Blend: AUG-CC-PVTZ
  Basis Set: (AUG-CC-PVTZ AUX)
    Blend: AUG-CC-PVTZ-JKFIT

    Orbital Energies [Eh]
    ---------------------

    Doubly Occupied:

       1A    -92.229111     2A    -20.629576     3A    -20.565361
       4A    -20.561880     5A    -11.284987     6A    -11.266834
       7A    -11.266527     8A    -11.261952     9A    -11.261331
      10A    -11.256507    11A    -11.241057    12A    -11.239974
      13A     -9.191988    14A     -6.877608    15A     -6.876332
      16A     -6.876054    17A     -1.493133    18A     -1.379864
      19A     -1.352548    20A     -1.187170    21A     -1.081070
      22A     -1.074654    23A     -0.961976    24A     -0.953165
      25A     -0.923662    26A     -0.819225    27A     -0.809275
      28A     -0.740301    29A     -0.723004    30A     -0.691064
      31A     -0.683490    32A     -0.670600    33A     -0.628365
      34A     -0.602021    35A     -0.600431    36A     -0.591233
      37A     -0.584915    38A     -0.574859    39A     -0.569028
      40A     -0.547605    41A     -0.537088    42A     -0.524216
      43A     -0.508017    44A     -0.506831    45A     -0.500920
      46A     -0.484814    47A     -0.473174    48A     -0.362634
      49A     -0.344448

  @DF-RHF Final Energy:  -931.05708840831130

   => Energetics <=

    Nuclear Repulsion Energy =            830.6852147016685421
    One-Electron Energy =               -2926.7408567922993825
    Two-Electron Energy =                1164.9985536823196526
    Total Energy =                       -931.0570884083113015
  Basis Set: (AUG-CC-PVTZ AUX)
    Blend: AUG-CC-PVTZ-RI
    Molecular point group: c1

    Geometry (in Angstrom), charge = 0, multiplicity = 1:

       Center              X                  Y                   Z               Mass
    ------------   -----------------  -----------------  -----------------  -----------------
         S           -1.900455980640    -0.009300335144    -0.127490027098    31.972071174400
         O           -2.271461980640    -0.166854335144     1.468143972902    15.994914619570
         O           -2.338376980640    -1.231174335144    -0.783316027098    15.994914619570
         O           -2.358126080640     1.320306064856    -0.531876727098    15.994914619570
         C           -0.134051980640     0.001010664856    -0.078387027098    12.000000000000
         C            1.938915019360    -1.216896335144     0.036913972902    12.000000000000
         C            1.930146019360     1.235867664856     0.017838972902    12.000000000000
         C            0.533161019360     1.225317664856    -0.053710027098    12.000000000000
         C            0.542732019360    -1.218130335144    -0.040103027098    12.000000000000
         C            2.610026019360     0.012489664856     0.064208972902    12.000000000000
         C            2.705554019360    -2.513430335144     0.042232972902    12.000000000000
         C            2.687275019360     2.537922664856    -0.001543027098    12.000000000000
         H           -0.032261980640     2.152788664856    -0.103679027098     1.007825032230
         H           -0.014881980640    -2.150953335144    -0.076611027098     1.007825032230
         H            3.698300019360     0.016956664856     0.128634972902     1.007825032230
         H            2.119334019360    -3.314393335144     0.500269972902     1.007825032230
         H            2.954110019360    -2.823285335144    -0.978331027098     1.007825032230
         H            3.641741019360    -2.413182335144     0.598167972902     1.007825032230
         H            2.931951019360     2.831425664856    -1.027864027098     1.007825032230
         H            2.096470019360     3.343214664856     0.443059972902     1.007825032230
         H            3.625204019360     2.454482664856     0.554254972902     1.007825032230
         H           -2.714770980640     0.667663664856     1.728531972902     1.007825032230

  Basis Set: AUG-CC-PVTZ
    Blend: AUG-CC-PVTZ
  Basis Set: (AUG-CC-PVTZ AUX)
    Blend: AUG-CC-PVTZ-JKFIT
	 Reference Energy          =    -931.0570884083113015 [Eh]
	 Singles Energy            =      -0.0000000000000000 [Eh]
	 Same-Spin Energy          =      -0.6213784651767233 [Eh]
	 Opposite-Spin Energy      =      -1.8678319723793069 [Eh]
	 Correlation Energy        =      -2.4892104375560304 [Eh]
	 Total Energy              =    -933.5462988458673408 [Eh]

	 ================> DF-SCS-MP2 Energies <==================
	-----------------------------------------------------------
	 SCS Same-Spin Scale       =       0.3333333333333333 [-]
	 SCS Opposite-Spin Scale   =       1.2000000000000000 [-]
	 SCS Same-Spin Energy      =      -0.2071261550589078 [Eh]
	 SCS Opposite-Spin Energy  =      -2.2413983668551682 [Eh]
	 SCS Correlation Energy    =      -2.4485245219140759 [Eh]
	 SCS Total Energy          =    -933.5056129302254249 [Eh]
	-----------------------------------------------------------

  Dipole Moment: [D]
     X:     4.3376      Y:     0.9912      Z:     1.8939     Total:     4.8357

*** Psi4 exiting successfully. Buy a developer a beer!
