                               Psi4 1.4a3.dev225

  ==> Input File <==

--------------------------------------------------------------------------
#psi4
#
memory 32 gb

molecule  {
0 1
  S       -1.9906940    -0.0125100    -0.1365530
  O       -2.3617000    -0.1700640     1.4590810
  O       -2.4286150    -1.2343840    -0.7923790
  O       -2.4725380     1.3090340    -0.5392830
  C       -0.2242900    -0.0021990    -0.0874500
  C        1.8486770    -1.2201060     0.0278510
  C        1.8399080     1.2326580     0.0087760
  C        0.4429230     1.2221080    -0.0627730
  C        0.4524940    -1.2213400    -0.0491660
  C        2.5197880     0.0092800     0.0551460
  C        2.6153160    -2.5166400     0.0331700
  C        2.4965093     2.3618328    -0.0080326
  H       -0.1225000     2.1495790    -0.1127420
  H       -0.1051200    -2.1541630    -0.0856740
  H        3.6080620     0.0137470     0.1195720
  H        2.0290960    -3.3176030     0.4912070
  H        2.8638720    -2.8264950    -0.9873940
  H        3.5515030    -2.4163920     0.5891050
  H        2.8417130     2.8282160    -1.0369270
  H        2.0062320     3.3400050     0.4339970
  H        3.5349660     2.4512730     0.5451920
  H       -2.8050090     0.6644540     1.7194690
units angstrom
no_reorient  #important for SAPT in psi4, default
symmetry c1  #important for SAPT in psi4, default
}

set PROPERTIES_ORIGIN ["COM"]
properties('MP2/aug-cc-pvtz', properties = ['dipole'])
--------------------------------------------------------------------------

    Molecular point group: c1
  Charge       = 0
  Multiplicity = 1
  Basis Set: AUG-CC-PVTZ
    Blend: AUG-CC-PVTZ
  Basis Set: (AUG-CC-PVTZ AUX)
    Blend: AUG-CC-PVTZ-JKFIT

    Orbital Energies [Eh]
    ---------------------

    Doubly Occupied:

       1A    -92.229377     2A    -20.629138     3A    -20.565513
       4A    -20.561307     5A    -11.286891     6A    -11.267818
       7A    -11.263778     8A    -11.262857     9A    -11.257915
      10A    -11.255770    11A    -11.251400    12A    -11.240872
      13A     -9.192279    14A     -6.877899    15A     -6.876602
      16A     -6.876362    17A     -1.493245    18A     -1.379578
      19A     -1.351962    20A     -1.197803    21A     -1.109038
      22A     -1.077984    23A     -0.963094    24A     -0.953506
      25A     -0.925980    26A     -0.820477    27A     -0.806483
      28A     -0.741889    29A     -0.724377    30A     -0.693924
      31A     -0.686771    32A     -0.673896    33A     -0.642313
      34A     -0.628334    35A     -0.600073    36A     -0.594961
      37A     -0.578253    38A     -0.572936    39A     -0.564029
      40A     -0.540910    41A     -0.531243    42A     -0.522856
      43A     -0.509012    44A     -0.498794    45A     -0.491146
      46A     -0.483977    47A     -0.470644    48A     -0.362085
      49A     -0.338483

  @DF-RHF Final Energy:  -931.00473273197088

   => Energetics <=

    Nuclear Repulsion Energy =            834.6495086308602822
    One-Electron Energy =               -2934.4568169687618138
    Two-Electron Energy =                1168.8025756059303149
    Total Energy =                       -931.0047327319709893
  Basis Set: (AUG-CC-PVTZ AUX)
    Blend: AUG-CC-PVTZ-RI
    Molecular point group: c1

    Geometry (in Angstrom), charge = 0, multiplicity = 1:

       Center              X                  Y                   Z               Mass
    ------------   -----------------  -----------------  -----------------  -----------------
         S           -1.891893122539     0.002544312506    -0.127798461290    31.972071174400
         O           -2.262899122539    -0.155009687494     1.467835538710    15.994914619570
         O           -2.329814122539    -1.219329687494    -0.783624461290    15.994914619570
         O           -2.373737122539     1.324088312506    -0.530528461290    15.994914619570
         C           -0.125489122539     0.012855312506    -0.078695461290    12.000000000000
         C            1.947477877461    -1.205051687494     0.036605538710    12.000000000000
         C            1.938708877461     1.247712312506     0.017530538710    12.000000000000
         C            0.541723877461     1.237162312506    -0.054018461290    12.000000000000
         C            0.551294877461    -1.206285687494    -0.040411461290    12.000000000000
         C            2.618588877461     0.024334312506     0.063900538710    12.000000000000
         C            2.714116877461    -2.501585687494     0.041924538710    12.000000000000
         C            2.595310177461     2.376887112506     0.000721938710    12.000000000000
         H           -0.023699122539     2.164633312506    -0.103987461290     1.007825032230
         H           -0.006319122539    -2.139108687494    -0.076919461290     1.007825032230
         H            3.706862877461     0.028801312506     0.128326538710     1.007825032230
         H            2.127896877461    -3.302548687494     0.499961538710     1.007825032230
         H            2.962672877461    -2.811440687494    -0.978639461290     1.007825032230
         H            3.650303877461    -2.401337687494     0.597859538710     1.007825032230
         H            2.940513877461     2.843270312506    -1.028172461290     1.007825032230
         H            2.105032877461     3.355059312506     0.442751538710     1.007825032230
         H            3.633766877461     2.466327312506     0.553946538710     1.007825032230
         H           -2.706208122539     0.679508312506     1.728223538710     1.007825032230

  Basis Set: AUG-CC-PVTZ
    Blend: AUG-CC-PVTZ
  Basis Set: (AUG-CC-PVTZ AUX)
    Blend: AUG-CC-PVTZ-JKFIT
	 Reference Energy          =    -931.0047327319708756 [Eh]
	 Singles Energy            =      -0.0000000000000000 [Eh]
	 Same-Spin Energy          =      -0.6248640661388680 [Eh]
	 Opposite-Spin Energy      =      -1.8723548604520941 [Eh]
	 Correlation Energy        =      -2.4972189265909623 [Eh]
	 Total Energy              =    -933.5019516585618931 [Eh]

	 ================> DF-SCS-MP2 Energies <==================
	-----------------------------------------------------------
	 SCS Same-Spin Scale       =       0.3333333333333333 [-]
	 SCS Opposite-Spin Scale   =       1.2000000000000000 [-]
	 SCS Same-Spin Energy      =      -0.2082880220462893 [Eh]
	 SCS Opposite-Spin Energy  =      -2.2468258325425130 [Eh]
	 SCS Correlation Energy    =      -2.4551138545888023 [Eh]
	 SCS Total Energy          =    -933.4598465865597063 [Eh]
	-----------------------------------------------------------

  Dipole Moment: [D]
     X:     4.4246      Y:     1.0129      Z:     1.8730     Total:     4.9103

*** Psi4 exiting successfully. Buy a developer a beer!
