                               Psi4 1.4a3.dev225

  ==> Input File <==

--------------------------------------------------------------------------
#psi4
#
memory 32 gb

molecule  {
0 1
  S       -1.9906940    -0.0125100    -0.1365530
  O       -2.3617000    -0.1700640     1.4590810
  O       -2.4286150    -1.2343840    -0.7923790
  O       -2.4725380     1.3090340    -0.5392830
  C       -0.2242900    -0.0021990    -0.0874500
  C        1.8486770    -1.2201060     0.0278510
  C        1.8399080     1.2326580     0.0087760
  C        0.4429230     1.2221080    -0.0627730
  C        0.4524940    -1.2213400    -0.0491660
  C        2.4324042     0.0531290     0.0535446
  C        2.6153160    -2.5166400     0.0331700
  C        2.5970370     2.5347130    -0.0106060
  H       -0.1225000     2.1495790    -0.1127420
  H       -0.1051200    -2.1541630    -0.0856740
  H        3.6080620     0.0137470     0.1195720
  H        2.0290960    -3.3176030     0.4912070
  H        2.8638720    -2.8264950    -0.9873940
  H        3.5515030    -2.4163920     0.5891050
  H        2.8417130     2.8282160    -1.0369270
  H        2.0062320     3.3400050     0.4339970
  H        3.5349660     2.4512730     0.5451920
  H       -2.8050090     0.6644540     1.7194690
units angstrom
no_reorient  #important for SAPT in psi4, default
symmetry c1  #important for SAPT in psi4, default
}

set PROPERTIES_ORIGIN ["COM"]
properties('MP2/aug-cc-pvtz', properties = ['dipole'])
--------------------------------------------------------------------------

    Molecular point group: c1
  Charge       = 0
  Multiplicity = 1
  Basis Set: AUG-CC-PVTZ
    Blend: AUG-CC-PVTZ
  Basis Set: (AUG-CC-PVTZ AUX)
    Blend: AUG-CC-PVTZ-JKFIT

    Orbital Energies [Eh]
    ---------------------

    Doubly Occupied:

       1A    -92.228540     2A    -20.628330     3A    -20.564600
       4A    -20.560571     5A    -11.284609     6A    -11.267264
       7A    -11.265241     8A    -11.261031     9A    -11.257981
      10A    -11.255413    11A    -11.243171    12A    -11.242319
      13A     -9.191413    14A     -6.877036    15A     -6.875736
      16A     -6.875497    17A     -1.492436    18A     -1.378830
      19A     -1.351169    20A     -1.196536    21A     -1.087447
      22A     -1.074933    23A     -0.967599    24A     -0.954461
      25A     -0.921216    26A     -0.821372    27A     -0.815405
      28A     -0.739955    29A     -0.722228    30A     -0.689705
      31A     -0.678783    32A     -0.669069    33A     -0.627427
      34A     -0.606725    35A     -0.603671    36A     -0.592830
      37A     -0.586479    38A     -0.571485    39A     -0.565561
      40A     -0.549313    41A     -0.526567    42A     -0.523914
      43A     -0.515718    44A     -0.505445    45A     -0.501501
      46A     -0.483505    47A     -0.470682    48A     -0.370806
      49A     -0.345682

  @DF-RHF Final Energy:  -931.04582553034845

   => Energetics <=

    Nuclear Repulsion Energy =            832.2677603059157718
    One-Electron Energy =               -2929.8527568498329856
    Two-Electron Energy =                1166.5391710135691028
    Total Energy =                       -931.0458255303483384
  Basis Set: (AUG-CC-PVTZ AUX)
    Blend: AUG-CC-PVTZ-RI
    Molecular point group: c1

    Geometry (in Angstrom), charge = 0, multiplicity = 1:

       Center              X                  Y                   Z               Mass
    ------------   -----------------  -----------------  -----------------  -----------------
         S           -1.892740956251    -0.011435580989    -0.127529170122    31.972071174400
         O           -2.263746956251    -0.168989580989     1.468104829878    15.994914619570
         O           -2.330661956251    -1.233309580989    -0.783355170122    15.994914619570
         O           -2.374584956251     1.310108419011    -0.530259170122    15.994914619570
         C           -0.126336956251    -0.001124580989    -0.078426170122    12.000000000000
         C            1.946630043749    -1.219031580989     0.036874829878    12.000000000000
         C            1.937861043749     1.233732419011     0.017799829878    12.000000000000
         C            0.540876043749     1.223182419011    -0.053749170122    12.000000000000
         C            0.550447043749    -1.220265580989    -0.040142170122    12.000000000000
         C            2.530357243749     0.054203419011     0.062568429878    12.000000000000
         C            2.713269043749    -2.515565580989     0.042193829878    12.000000000000
         C            2.694990043749     2.535787419011    -0.001582170122    12.000000000000
         H           -0.024546956251     2.150653419011    -0.103718170122     1.007825032230
         H           -0.007166956251    -2.153088580989    -0.076650170122     1.007825032230
         H            3.706015043749     0.014821419011     0.128595829878     1.007825032230
         H            2.127049043749    -3.316528580989     0.500230829878     1.007825032230
         H            2.961825043749    -2.825420580989    -0.978370170122     1.007825032230
         H            3.649456043749    -2.415317580989     0.598128829878     1.007825032230
         H            2.939666043749     2.829290419011    -1.027903170122     1.007825032230
         H            2.104185043749     3.341079419011     0.443020829878     1.007825032230
         H            3.632919043749     2.452347419011     0.554215829878     1.007825032230
         H           -2.707055956251     0.665528419011     1.728492829878     1.007825032230

  Basis Set: AUG-CC-PVTZ
    Blend: AUG-CC-PVTZ
  Basis Set: (AUG-CC-PVTZ AUX)
    Blend: AUG-CC-PVTZ-JKFIT
	 Reference Energy          =    -931.0458255303484520 [Eh]
	 Singles Energy            =      -0.0000000000000000 [Eh]
	 Same-Spin Energy          =      -0.6214415798883052 [Eh]
	 Opposite-Spin Energy      =      -1.8679271689377825 [Eh]
	 Correlation Energy        =      -2.4893687488260876 [Eh]
	 Total Energy              =    -933.5351942791745614 [Eh]

	 ================> DF-SCS-MP2 Energies <==================
	-----------------------------------------------------------
	 SCS Same-Spin Scale       =       0.3333333333333333 [-]
	 SCS Opposite-Spin Scale   =       1.2000000000000000 [-]
	 SCS Same-Spin Energy      =      -0.2071471932961017 [Eh]
	 SCS Opposite-Spin Energy  =      -2.2415126027253391 [Eh]
	 SCS Correlation Energy    =      -2.4486597960214409 [Eh]
	 SCS Total Energy          =    -933.4944853263698405 [Eh]
	-----------------------------------------------------------

  Dipole Moment: [D]
     X:     4.3726      Y:     0.9473      Z:     1.8856     Total:     4.8552

*** Psi4 exiting successfully. Buy a developer a beer!
