                               Psi4 1.4a3.dev225

  ==> Input File <==

--------------------------------------------------------------------------
#psi4
#
memory 32 gb

molecule  {
0 1
  S       -1.9906940    -0.0125100    -0.1365530
  O       -2.3617000    -0.1700640     1.4590810
  O       -2.4286150    -1.2343840    -0.7923790
  O       -2.4725380     1.3090340    -0.5392830
  C       -0.2242900    -0.0021990    -0.0874500
  C        1.8486770    -1.2201060     0.0278510
  C        1.8399080     1.2326580     0.0087760
  C        0.4429230     1.2221080    -0.0627730
  C        0.4524940    -1.2213400    -0.0491660
  C        2.5197880     0.0092800     0.0551460
  C        2.6153160    -2.5166400     0.0331700
  C        2.5970370     2.5347130    -0.0106060
  H       -0.1225000     2.1495790    -0.1127420
  H       -0.1051200    -2.1541630    -0.0856740
  H        3.6080620     0.0137470     0.1195720
  H        2.1363486    -3.1710618     0.4074063
  H        2.8638720    -2.8264950    -0.9873940
  H        3.5515030    -2.4163920     0.5891050
  H        2.8417130     2.8282160    -1.0369270
  H        2.0062320     3.3400050     0.4339970
  H        3.5349660     2.4512730     0.5451920
  H       -2.8050090     0.6644540     1.7194690
units angstrom
no_reorient  #important for SAPT in psi4, default
symmetry c1  #important for SAPT in psi4, default
}

set PROPERTIES_ORIGIN ["COM"]
properties('MP2/aug-cc-pvtz', properties = ['dipole'])
--------------------------------------------------------------------------

    Molecular point group: c1
  Charge       = 0
  Multiplicity = 1
  Basis Set: AUG-CC-PVTZ
    Blend: AUG-CC-PVTZ
  Basis Set: (AUG-CC-PVTZ AUX)
    Blend: AUG-CC-PVTZ-JKFIT

    Orbital Energies [Eh]
    ---------------------

    Doubly Occupied:

       1A    -92.228642     2A    -20.628542     3A    -20.564845
       4A    -20.560671     5A    -11.285902     6A    -11.266931
       7A    -11.265946     8A    -11.262464     9A    -11.261896
      10A    -11.256148    11A    -11.241119    12A    -11.216094
      13A     -9.191548    14A     -6.877168    15A     -6.875867
      16A     -6.875631    17A     -1.492607    18A     -1.378982
      19A     -1.351327    20A     -1.187845    21A     -1.086259
      22A     -1.075926    23A     -0.978888    24A     -0.956143
      25A     -0.923787    26A     -0.818912    27A     -0.816065
      28A     -0.740006    29A     -0.723391    30A     -0.691306
      31A     -0.685202    32A     -0.671829    33A     -0.628096
      34A     -0.619349    35A     -0.600617    36A     -0.592136
      37A     -0.590461    38A     -0.576950    39A     -0.573357
      40A     -0.552792    41A     -0.537291    42A     -0.523448
      43A     -0.509277    44A     -0.507027    45A     -0.500960
      46A     -0.483864    47A     -0.473336    48A     -0.362785
      49A     -0.345076

  @DF-RHF Final Energy:  -931.02342043087083

   => Energetics <=

    Nuclear Repulsion Energy =            831.4526572197488576
    One-Electron Energy =               -2928.1227351186566921
    Two-Electron Energy =                1165.6466574680371195
    Total Energy =                       -931.0234204308708286
  Basis Set: (AUG-CC-PVTZ AUX)
    Blend: AUG-CC-PVTZ-RI
    Molecular point group: c1

    Geometry (in Angstrom), charge = 0, multiplicity = 1:

       Center              X                  Y                   Z               Mass
    ------------   -----------------  -----------------  -----------------  -----------------
         S           -1.898958587603    -0.009401017722    -0.127178485465    31.972071174400
         O           -2.269964587603    -0.166955017722     1.468455514535    15.994914619570
         O           -2.336879587603    -1.231275017722    -0.783004485465    15.994914619570
         O           -2.380802587603     1.312142982278    -0.529908485465    15.994914619570
         C           -0.132554587603     0.000909982278    -0.078075485465    12.000000000000
         C            1.940412412397    -1.216997017722     0.037225514535    12.000000000000
         C            1.931643412397     1.235766982278     0.018150514535    12.000000000000
         C            0.534658412397     1.225216982278    -0.053398485465    12.000000000000
         C            0.544229412397    -1.218231017722    -0.039791485465    12.000000000000
         C            2.611523412397     0.012388982278     0.064520514535    12.000000000000
         C            2.707051412397    -2.513531017722     0.042544514535    12.000000000000
         C            2.688772412397     2.537821982278    -0.001231485465    12.000000000000
         H           -0.030764587603     2.152687982278    -0.103367485465     1.007825032230
         H           -0.013384587603    -2.151054017722    -0.076299485465     1.007825032230
         H            3.699797412397     0.016855982278     0.128946514535     1.007825032230
         H            2.228084012397    -3.167952817722     0.416780814535     1.007825032230
         H            2.955607412397    -2.823386017722    -0.978019485465     1.007825032230
         H            3.643238412397    -2.413283017722     0.598479514535     1.007825032230
         H            2.933448412397     2.831324982278    -1.027552485465     1.007825032230
         H            2.097967412397     3.343113982278     0.443371514535     1.007825032230
         H            3.626701412397     2.454381982278     0.554566514535     1.007825032230
         H           -2.713273587603     0.667562982278     1.728843514535     1.007825032230

  Basis Set: AUG-CC-PVTZ
    Blend: AUG-CC-PVTZ
  Basis Set: (AUG-CC-PVTZ AUX)
    Blend: AUG-CC-PVTZ-JKFIT
	 Reference Energy          =    -931.0234204308708286 [Eh]
	 Singles Energy            =      -0.0000000000000000 [Eh]
	 Same-Spin Energy          =      -0.6213571078020439 [Eh]
	 Opposite-Spin Energy      =      -1.8669989237184708 [Eh]
	 Correlation Energy        =      -2.4883560315205147 [Eh]
	 Total Energy              =    -933.5117764623913672 [Eh]

	 ================> DF-SCS-MP2 Energies <==================
	-----------------------------------------------------------
	 SCS Same-Spin Scale       =       0.3333333333333333 [-]
	 SCS Opposite-Spin Scale   =       1.2000000000000000 [-]
	 SCS Same-Spin Energy      =      -0.2071190359340146 [Eh]
	 SCS Opposite-Spin Energy  =      -2.2403987084621648 [Eh]
	 SCS Correlation Energy    =      -2.4475177443961793 [Eh]
	 SCS Total Energy          =    -933.4709381752669515 [Eh]
	-----------------------------------------------------------

  Dipole Moment: [D]
     X:     4.4258      Y:     0.9389      Z:     1.9065     Total:     4.9096

*** Psi4 exiting successfully. Buy a developer a beer!
