                               Psi4 1.4a3.dev225

  ==> Input File <==

--------------------------------------------------------------------------
#psi4
#
memory 32 gb

molecule  {
0 1
  S       -1.9906940    -0.0125100    -0.1365530
  O       -2.3617000    -0.1700640     1.4590810
  O       -2.4286150    -1.2343840    -0.7923790
  O       -2.4725380     1.3090340    -0.5392830
  C       -0.2242900    -0.0021990    -0.0874500
  C        1.8486770    -1.2201060     0.0278510
  C        1.8399080     1.2326580     0.0087760
  C        0.4429230     1.2221080    -0.0627730
  C        0.4524940    -1.2213400    -0.0491660
  C        2.5100780     0.0267522     0.0544837
  C        2.6153160    -2.5166400     0.0331700
  C        2.5970370     2.5347130    -0.0106060
  H       -0.1225000     2.1495790    -0.1127420
  H       -0.1051200    -2.1541630    -0.0856740
  H        3.6080620     0.0137470     0.1195720
  H        2.0290960    -3.3176030     0.4912070
  H        2.8638720    -2.8264950    -0.9873940
  H        3.5515030    -2.4163920     0.5891050
  H        2.8417130     2.8282160    -1.0369270
  H        2.0062320     3.3400050     0.4339970
  H        3.5349660     2.4512730     0.5451920
  H       -2.8050090     0.6644540     1.7194690
units angstrom
no_reorient  #important for SAPT in psi4, default
symmetry c1  #important for SAPT in psi4, default
}

set PROPERTIES_ORIGIN ["COM"]
properties('MP2/aug-cc-pvtz', properties = ['dipole'])
--------------------------------------------------------------------------

    Molecular point group: c1
  Charge       = 0
  Multiplicity = 1
  Basis Set: AUG-CC-PVTZ
    Blend: AUG-CC-PVTZ
  Basis Set: (AUG-CC-PVTZ AUX)
    Blend: AUG-CC-PVTZ-JKFIT

    Orbital Energies [Eh]
    ---------------------

    Doubly Occupied:

       1A    -92.228736     2A    -20.628593     3A    -20.564900
       4A    -20.560760     5A    -11.285903     6A    -11.268192
       7A    -11.265270     8A    -11.263332     9A    -11.261462
      10A    -11.256867    11A    -11.241271    12A    -11.240945
      13A     -9.191639    14A     -6.877259    15A     -6.875959
      16A     -6.875721    17A     -1.492674    18A     -1.379042
      19A     -1.351395    20A     -1.188766    21A     -1.082422
      22A     -1.075194    23A     -0.962995    24A     -0.953811
      25A     -0.923675    26A     -0.818593    27A     -0.811155
      28A     -0.740021    29A     -0.722717    30A     -0.690259
      31A     -0.683776    32A     -0.670448    33A     -0.627809
      34A     -0.602921    35A     -0.601150    36A     -0.591868
      37A     -0.585434    38A     -0.573623    39A     -0.568971
      40A     -0.548166    41A     -0.536170    42A     -0.523596
      43A     -0.509698    44A     -0.506606    45A     -0.501006
      46A     -0.483902    47A     -0.473419    48A     -0.364193
      49A     -0.345060

  @DF-RHF Final Energy:  -931.05705503209583

   => Energetics <=

    Nuclear Repulsion Energy =            830.6716479305119947
    One-Electron Energy =               -2926.7027176403021258
    Two-Electron Energy =                1164.9740146776944130
    Total Energy =                       -931.0570550320958318
  Basis Set: (AUG-CC-PVTZ AUX)
    Blend: AUG-CC-PVTZ-RI
    Molecular point group: c1

    Geometry (in Angstrom), charge = 0, multiplicity = 1:

       Center              X                  Y                   Z               Mass
    ------------   -----------------  -----------------  -----------------  -----------------
         S           -1.897751224601    -0.009734172712    -0.127589745799    31.972071174400
         O           -2.268757224601    -0.167288172712     1.468044254201    15.994914619570
         O           -2.335672224601    -1.231608172712    -0.783415745799    15.994914619570
         O           -2.379595224601     1.311809827288    -0.530319745799    15.994914619570
         C           -0.131347224601     0.000576827288    -0.078486745799    12.000000000000
         C            1.941619775399    -1.217330172712     0.036814254201    12.000000000000
         C            1.932850775399     1.235433827288     0.017739254201    12.000000000000
         C            0.535865775399     1.224883827288    -0.053809745799    12.000000000000
         C            0.545436775399    -1.218564172712    -0.040202745799    12.000000000000
         C            2.603020775399     0.029528027288     0.063446954201    12.000000000000
         C            2.708258775399    -2.513864172712     0.042133254201    12.000000000000
         C            2.689979775399     2.537488827288    -0.001642745799    12.000000000000
         H           -0.029557224601     2.152354827288    -0.103778745799     1.007825032230
         H           -0.012177224601    -2.151387172712    -0.076710745799     1.007825032230
         H            3.701004775399     0.016522827288     0.128535254201     1.007825032230
         H            2.122038775399    -3.314827172712     0.500170254201     1.007825032230
         H            2.956814775399    -2.823719172712    -0.978430745799     1.007825032230
         H            3.644445775399    -2.413616172712     0.598068254201     1.007825032230
         H            2.934655775399     2.830991827288    -1.027963745799     1.007825032230
         H            2.099174775399     3.342780827288     0.442960254201     1.007825032230
         H            3.627908775399     2.454048827288     0.554155254201     1.007825032230
         H           -2.712066224601     0.667229827288     1.728432254201     1.007825032230

  Basis Set: AUG-CC-PVTZ
    Blend: AUG-CC-PVTZ
  Basis Set: (AUG-CC-PVTZ AUX)
    Blend: AUG-CC-PVTZ-JKFIT
	 Reference Energy          =    -931.0570550320958318 [Eh]
	 Singles Energy            =      -0.0000000000000000 [Eh]
	 Same-Spin Energy          =      -0.6212847622921258 [Eh]
	 Opposite-Spin Energy      =      -1.8676472688272128 [Eh]
	 Correlation Energy        =      -2.4889320311193384 [Eh]
	 Total Energy              =    -933.5459870632151933 [Eh]

	 ================> DF-SCS-MP2 Energies <==================
	-----------------------------------------------------------
	 SCS Same-Spin Scale       =       0.3333333333333333 [-]
	 SCS Opposite-Spin Scale   =       1.2000000000000000 [-]
	 SCS Same-Spin Energy      =      -0.2070949207640419 [Eh]
	 SCS Opposite-Spin Energy  =      -2.2411767225926553 [Eh]
	 SCS Correlation Energy    =      -2.4482716433566973 [Eh]
	 SCS Total Energy          =    -933.5053266754525794 [Eh]
	-----------------------------------------------------------

  Dipole Moment: [D]
     X:     4.4248      Y:     0.9821      Z:     1.8898     Total:     4.9107

*** Psi4 exiting successfully. Buy a developer a beer!
