                               Psi4 1.4a3.dev225

  ==> Input File <==

--------------------------------------------------------------------------
#psi4
#
memory 32 gb

molecule  {
0 1
  S       -1.9906940    -0.0125100    -0.1365530
  O       -2.3617000    -0.1700640     1.4590810
  O       -2.4286150    -1.2343840    -0.7923790
  O       -2.4725380     1.3090340    -0.5392830
  C       -0.2242900    -0.0021990    -0.0874500
  C        1.8486770    -1.2201060     0.0278510
  C        1.8399080     1.2326580     0.0087760
  C        0.4429230     1.2221080    -0.0627730
  C        0.4524940    -1.2213400    -0.0491660
  C        2.5197880     0.0092800     0.0551460
  C        2.6153160    -2.5166400     0.0331700
  C        2.5970370     2.5347130    -0.0106060
  H       -0.1225000     2.1495790    -0.1127420
  H       -0.1051200    -2.1541630    -0.0856740
  H        3.6080620     0.0137470     0.1195720
  H        2.0290960    -3.3176030     0.4912070
  H        2.8593328    -2.8208363    -0.9687560
  H        3.5515030    -2.4163920     0.5891050
  H        2.8417130     2.8282160    -1.0369270
  H        2.0062320     3.3400050     0.4339970
  H        3.5349660     2.4512730     0.5451920
  H       -2.8050090     0.6644540     1.7194690
units angstrom
no_reorient  #important for SAPT in psi4, default
symmetry c1  #important for SAPT in psi4, default
}

set PROPERTIES_ORIGIN ["COM"]
properties('MP2/aug-cc-pvtz', properties = ['dipole'])
--------------------------------------------------------------------------

    Molecular point group: c1
  Charge       = 0
  Multiplicity = 1
  Basis Set: AUG-CC-PVTZ
    Blend: AUG-CC-PVTZ
  Basis Set: (AUG-CC-PVTZ AUX)
    Blend: AUG-CC-PVTZ-JKFIT

    Orbital Energies [Eh]
    ---------------------

    Doubly Occupied:

       1A    -92.228741     2A    -20.628615     3A    -20.564952
       4A    -20.560736     5A    -11.286017     6A    -11.267396
       7A    -11.266991     8A    -11.262721     9A    -11.261971
      10A    -11.257037    11A    -11.241445    12A    -11.237970
      13A     -9.191648    14A     -6.877267    15A     -6.875967
      16A     -6.875730    17A     -1.492688    18A     -1.379052
      19A     -1.351410    20A     -1.187840    21A     -1.081829
      22A     -1.075503    23A     -0.963274    24A     -0.954304
      25A     -0.923990    26A     -0.819134    27A     -0.810253
      28A     -0.740069    29A     -0.722860    30A     -0.691167
      31A     -0.683612    32A     -0.670627    33A     -0.627777
      34A     -0.602970    35A     -0.602022    36A     -0.592341
      37A     -0.586573    38A     -0.574381    39A     -0.569147
      40A     -0.547918    41A     -0.537544    42A     -0.523651
      43A     -0.508376    44A     -0.506781    45A     -0.501105
      46A     -0.483961    47A     -0.473563    48A     -0.363317
      49A     -0.345110

  @DF-RHF Final Energy:  -931.05745578783831

   => Energetics <=

    Nuclear Repulsion Energy =            830.5657694720672453
    One-Electron Energy =               -2926.4877491365000424
    Two-Electron Energy =                1164.8645238765946033
    Total Energy =                       -931.0574557878383075
  Basis Set: (AUG-CC-PVTZ AUX)
    Blend: AUG-CC-PVTZ-RI
    Molecular point group: c1

    Geometry (in Angstrom), charge = 0, multiplicity = 1:

       Center              X                  Y                   Z               Mass
    ------------   -----------------  -----------------  -----------------  -----------------
         S           -1.898352967506    -0.008637801874    -0.127733436145    31.972071174400
         O           -2.269358967506    -0.166191801874     1.467900563855    15.994914619570
         O           -2.336273967506    -1.230511801874    -0.783559436145    15.994914619570
         O           -2.380196967506     1.312906198126    -0.530463436145    15.994914619570
         C           -0.131948967506     0.001673198126    -0.078630436145    12.000000000000
         C            1.941018032494    -1.216233801874     0.036670563855    12.000000000000
         C            1.932249032494     1.236530198126     0.017595563855    12.000000000000
         C            0.535264032494     1.225980198126    -0.053953436145    12.000000000000
         C            0.544835032494    -1.217467801874    -0.040346436145    12.000000000000
         C            2.612129032494     0.013152198126     0.063965563855    12.000000000000
         C            2.707657032494    -2.512767801874     0.041989563855    12.000000000000
         C            2.689378032494     2.538585198126    -0.001786436145    12.000000000000
         H           -0.030158967506     2.153451198126    -0.103922436145     1.007825032230
         H           -0.012778967506    -2.150290801874    -0.076854436145     1.007825032230
         H            3.700403032494     0.017619198126     0.128391563855     1.007825032230
         H            2.121437032494    -3.313730801874     0.500026563855     1.007825032230
         H            2.951673832494    -2.816964101874    -0.959936436145     1.007825032230
         H            3.643844032494    -2.412519801874     0.597924563855     1.007825032230
         H            2.934054032494     2.832088198126    -1.028107436145     1.007825032230
         H            2.098573032494     3.343877198126     0.442816563855     1.007825032230
         H            3.627307032494     2.455145198126     0.554011563855     1.007825032230
         H           -2.712667967506     0.668326198126     1.728288563855     1.007825032230

  Basis Set: AUG-CC-PVTZ
    Blend: AUG-CC-PVTZ
  Basis Set: (AUG-CC-PVTZ AUX)
    Blend: AUG-CC-PVTZ-JKFIT
	 Reference Energy          =    -931.0574557878383075 [Eh]
	 Singles Energy            =      -0.0000000000000000 [Eh]
	 Same-Spin Energy          =      -0.6213008046589760 [Eh]
	 Opposite-Spin Energy      =      -1.8675649935194174 [Eh]
	 Correlation Energy        =      -2.4888657981783933 [Eh]
	 Total Energy              =    -933.5463215860166883 [Eh]

	 ================> DF-SCS-MP2 Energies <==================
	-----------------------------------------------------------
	 SCS Same-Spin Scale       =       0.3333333333333333 [-]
	 SCS Opposite-Spin Scale   =       1.2000000000000000 [-]
	 SCS Same-Spin Energy      =      -0.2071002682196587 [Eh]
	 SCS Opposite-Spin Energy  =      -2.2410779922233006 [Eh]
	 SCS Correlation Energy    =      -2.4481782604429592 [Eh]
	 SCS Total Energy          =    -933.5056340482813084 [Eh]
	-----------------------------------------------------------

  Dipole Moment: [D]
     X:     4.4322      Y:     0.9978      Z:     1.8849     Total:     4.9186

*** Psi4 exiting successfully. Buy a developer a beer!
