                               Psi4 1.4a3.dev225

  ==> Input File <==

--------------------------------------------------------------------------
#psi4
#
memory 32 gb

molecule  {
0 1
  S       -1.9906940    -0.0125100    -0.1365530
  O       -2.3617000    -0.1700640     1.4590810
  O       -2.4286150    -1.2343840    -0.7923790
  O       -2.4725380     1.3090340    -0.5392830
  C       -0.2242900    -0.0021990    -0.0874500
  C        1.8486770    -1.2201060     0.0278510
  C        1.8399080     1.2326580     0.0087760
  C        0.4429230     1.2221080    -0.0627730
  C        0.4524940    -1.2213400    -0.0491660
  C        2.5197880     0.0092800     0.0551460
  C        2.6153160    -2.5166400     0.0331700
  C        2.5719051     2.4914930    -0.0099626
  H       -0.1225000     2.1495790    -0.1127420
  H       -0.1051200    -2.1541630    -0.0856740
  H        3.6080620     0.0137470     0.1195720
  H        2.0290960    -3.3176030     0.4912070
  H        2.8638720    -2.8264950    -0.9873940
  H        3.5515030    -2.4163920     0.5891050
  H        2.8417130     2.8282160    -1.0369270
  H        2.0062320     3.3400050     0.4339970
  H        3.5349660     2.4512730     0.5451920
  H       -2.8050090     0.6644540     1.7194690
units angstrom
no_reorient  #important for SAPT in psi4, default
symmetry c1  #important for SAPT in psi4, default
}

set PROPERTIES_ORIGIN ["COM"]
properties('MP2/aug-cc-pvtz', properties = ['dipole'])
--------------------------------------------------------------------------

    Molecular point group: c1
  Charge       = 0
  Multiplicity = 1
  Basis Set: AUG-CC-PVTZ
    Blend: AUG-CC-PVTZ
  Basis Set: (AUG-CC-PVTZ AUX)
    Blend: AUG-CC-PVTZ-JKFIT

    Orbital Energies [Eh]
    ---------------------

    Doubly Occupied:

       1A    -92.228908     2A    -20.628754     3A    -20.565099
       4A    -20.560882     5A    -11.286245     6A    -11.267281
       7A    -11.265306     8A    -11.262817     9A    -11.262213
      10A    -11.257165    11A    -11.243187    12A    -11.240473
      13A     -9.191813    14A     -6.877433    15A     -6.876133
      16A     -6.875895    17A     -1.492834    18A     -1.379191
      19A     -1.351553    20A     -1.189470    21A     -1.086674
      22A     -1.076538    23A     -0.962215    24A     -0.953430
      25A     -0.924437    26A     -0.819330    27A     -0.809670
      28A     -0.740475    29A     -0.723177    30A     -0.691669
      31A     -0.684257    32A     -0.671334    33A     -0.627968
      34A     -0.610977    35A     -0.599735    36A     -0.593392
      37A     -0.582426    38A     -0.574233    39A     -0.566091
      40A     -0.543496    41A     -0.537071    42A     -0.523367
      43A     -0.511405    44A     -0.506594    45A     -0.499636
      46A     -0.484090    47A     -0.473798    48A     -0.363018
      49A     -0.344151

  @DF-RHF Final Energy:  -931.05409568627942

   => Energetics <=

    Nuclear Repulsion Energy =            831.4566465057297364
    One-Electron Energy =               -2928.2468740248709764
    Two-Electron Energy =                1165.7361318328619291
    Total Energy =                       -931.0540956862794246
  Basis Set: (AUG-CC-PVTZ AUX)
    Blend: AUG-CC-PVTZ-RI
    Molecular point group: c1

    Geometry (in Angstrom), charge = 0, multiplicity = 1:

       Center              X                  Y                   Z               Mass
    ------------   -----------------  -----------------  -----------------  -----------------
         S           -1.896756450849    -0.005819284953    -0.127673968631    31.972071174400
         O           -2.267762450849    -0.163373284953     1.467960031369    15.994914619570
         O           -2.334677450849    -1.227693284953    -0.783499968631    15.994914619570
         O           -2.378600450849     1.315724715047    -0.530403968631    15.994914619570
         C           -0.130352450849     0.004491715047    -0.078570968631    12.000000000000
         C            1.942614549151    -1.213415284953     0.036730031369    12.000000000000
         C            1.933845549151     1.239348715047     0.017655031369    12.000000000000
         C            0.536860549151     1.228798715047    -0.053893968631    12.000000000000
         C            0.546431549151    -1.214649284953    -0.040286968631    12.000000000000
         C            2.613725549151     0.015970715047     0.064025031369    12.000000000000
         C            2.709253549151    -2.509949284953     0.042049031369    12.000000000000
         C            2.665842649151     2.498183715047    -0.001083568631    12.000000000000
         H           -0.028562450849     2.156269715047    -0.103862968631     1.007825032230
         H           -0.011182450849    -2.147472284953    -0.076794968631     1.007825032230
         H            3.701999549151     0.020437715047     0.128451031369     1.007825032230
         H            2.123033549151    -3.310912284953     0.500086031369     1.007825032230
         H            2.957809549151    -2.819804284953    -0.978514968631     1.007825032230
         H            3.645440549151    -2.409701284953     0.597984031369     1.007825032230
         H            2.935650549151     2.834906715047    -1.028047968631     1.007825032230
         H            2.100169549151     3.346695715047     0.442876031369     1.007825032230
         H            3.628903549151     2.457963715047     0.554071031369     1.007825032230
         H           -2.711071450849     0.671144715047     1.728348031369     1.007825032230

  Basis Set: AUG-CC-PVTZ
    Blend: AUG-CC-PVTZ
  Basis Set: (AUG-CC-PVTZ AUX)
    Blend: AUG-CC-PVTZ-JKFIT
	 Reference Energy          =    -931.0540956862794246 [Eh]
	 Singles Energy            =      -0.0000000000000000 [Eh]
	 Same-Spin Energy          =      -0.6218298475561685 [Eh]
	 Opposite-Spin Energy      =      -1.8682368577902502 [Eh]
	 Correlation Energy        =      -2.4900667053464187 [Eh]
	 Total Energy              =    -933.5441623916258322 [Eh]

	 ================> DF-SCS-MP2 Energies <==================
	-----------------------------------------------------------
	 SCS Same-Spin Scale       =       0.3333333333333333 [-]
	 SCS Opposite-Spin Scale   =       1.2000000000000000 [-]
	 SCS Same-Spin Energy      =      -0.2072766158520562 [Eh]
	 SCS Opposite-Spin Energy  =      -2.2418842293483001 [Eh]
	 SCS Correlation Energy    =      -2.4491608452003564 [Eh]
	 SCS Total Energy          =    -933.5032565314797921 [Eh]
	-----------------------------------------------------------

  Dipole Moment: [D]
     X:     4.4302      Y:     1.0095      Z:     1.8869     Total:     4.9200

*** Psi4 exiting successfully. Buy a developer a beer!
