                               Psi4 1.4a3.dev225

  ==> Input File <==

--------------------------------------------------------------------------
#psi4
#
memory 32 gb

molecule  {
0 1
  S       -1.9906940    -0.0125100    -0.1365530
  O       -2.3617000    -0.1700640     1.4590810
  O       -2.4286150    -1.2343840    -0.7923790
  O       -2.4725380     1.3090340    -0.5392830
  C       -0.2242900    -0.0021990    -0.0874500
  C        1.8486770    -1.2201060     0.0278510
  C        1.8399080     1.2326580     0.0087760
  C        0.4429230     1.2221080    -0.0627730
  C        0.4524940    -1.2213400    -0.0491660
  C        2.5197880     0.0092800     0.0551460
  C        2.6153160    -2.5166400     0.0331700
  C        2.5970370     2.5347130    -0.0106060
  H       -0.1225000     2.1495790    -0.1127420
  H       -0.1051200    -2.1541630    -0.0856740
  H        3.6080620     0.0137470     0.1195720
  H        2.0290960    -3.3176030     0.4912070
  H        2.7890145    -2.8261628    -1.0028636
  H        3.5515030    -2.4163920     0.5891050
  H        2.8417130     2.8282160    -1.0369270
  H        2.0062320     3.3400050     0.4339970
  H        3.5349660     2.4512730     0.5451920
  H       -2.8050090     0.6644540     1.7194690
units angstrom
no_reorient  #important for SAPT in psi4, default
symmetry c1  #important for SAPT in psi4, default
}

set PROPERTIES_ORIGIN ["COM"]
properties('MP2/aug-cc-pvtz', properties = ['dipole'])
--------------------------------------------------------------------------

    Molecular point group: c1
  Charge       = 0
  Multiplicity = 1
  Basis Set: AUG-CC-PVTZ
    Blend: AUG-CC-PVTZ
  Basis Set: (AUG-CC-PVTZ AUX)
    Blend: AUG-CC-PVTZ-JKFIT

    Orbital Energies [Eh]
    ---------------------

    Doubly Occupied:

       1A    -92.228725     2A    -20.628605     3A    -20.564932
       4A    -20.560735     5A    -11.286018     6A    -11.267349
       7A    -11.266869     8A    -11.262441     9A    -11.261780
      10A    -11.256797    11A    -11.241379    12A    -11.240616
      13A     -9.191633    14A     -6.877252    15A     -6.875952
      16A     -6.875715    17A     -1.492677    18A     -1.379042
      19A     -1.351399    20A     -1.187770    21A     -1.081780
      22A     -1.075387    23A     -0.962566    24A     -0.953564
      25A     -0.923943    26A     -0.818964    27A     -0.809452
      28A     -0.739888    29A     -0.722576    30A     -0.691101
      31A     -0.683608    32A     -0.670620    33A     -0.627763
      34A     -0.602887    35A     -0.601285    36A     -0.591187
      37A     -0.587518    38A     -0.574645    39A     -0.568683
      40A     -0.547195    41A     -0.537509    42A     -0.523713
      43A     -0.507986    44A     -0.506787    45A     -0.500220
      46A     -0.483980    47A     -0.473608    48A     -0.363201
      49A     -0.344696

  @DF-RHF Final Energy:  -931.05688514752023

   => Energetics <=

    Nuclear Repulsion Energy =            830.5657505896863313
    One-Electron Energy =               -2926.4972753128645309
    Two-Electron Energy =                1164.8746395756577385
    Total Energy =                       -931.0568851475202337
  Basis Set: (AUG-CC-PVTZ AUX)
    Blend: AUG-CC-PVTZ-RI
    Molecular point group: c1

    Geometry (in Angstrom), charge = 0, multiplicity = 1:

       Center              X                  Y                   Z               Mass
    ------------   -----------------  -----------------  -----------------  -----------------
         S           -1.897972025650    -0.008608946131    -0.127548661877    31.972071174400
         O           -2.268978025650    -0.166162946131     1.468085338123    15.994914619570
         O           -2.335893025650    -1.230482946131    -0.783374661877    15.994914619570
         O           -2.379816025650     1.312935053869    -0.530278661877    15.994914619570
         C           -0.131568025650     0.001702053869    -0.078445661877    12.000000000000
         C            1.941398974350    -1.216204946131     0.036855338123    12.000000000000
         C            1.932629974350     1.236559053869     0.017780338123    12.000000000000
         C            0.535644974350     1.226009053869    -0.053768661877    12.000000000000
         C            0.545215974350    -1.217438946131    -0.040161661877    12.000000000000
         C            2.612509974350     0.013181053869     0.064150338123    12.000000000000
         C            2.708037974350    -2.512738946131     0.042174338123    12.000000000000
         C            2.689758974350     2.538614053869    -0.001601661877    12.000000000000
         H           -0.029778025650     2.153480053869    -0.103737661877     1.007825032230
         H           -0.012398025650    -2.150261946131    -0.076669661877     1.007825032230
         H            3.700783974350     0.017648053869     0.128576338123     1.007825032230
         H            2.121817974350    -3.313701946131     0.500211338123     1.007825032230
         H            2.881736474350    -2.822261746131    -0.993859261877     1.007825032230
         H            3.644224974350    -2.412490946131     0.598109338123     1.007825032230
         H            2.934434974350     2.832117053869    -1.027922661877     1.007825032230
         H            2.098953974350     3.343906053869     0.443001338123     1.007825032230
         H            3.627687974350     2.455174053869     0.554196338123     1.007825032230
         H           -2.712287025650     0.668355053869     1.728473338123     1.007825032230

  Basis Set: AUG-CC-PVTZ
    Blend: AUG-CC-PVTZ
  Basis Set: (AUG-CC-PVTZ AUX)
    Blend: AUG-CC-PVTZ-JKFIT
	 Reference Energy          =    -931.0568851475202337 [Eh]
	 Singles Energy            =      -0.0000000000000000 [Eh]
	 Same-Spin Energy          =      -0.6213454711504258 [Eh]
	 Opposite-Spin Energy      =      -1.8677619956248841 [Eh]
	 Correlation Energy        =      -2.4891074667753097 [Eh]
	 Total Energy              =    -933.5459926142955283 [Eh]

	 ================> DF-SCS-MP2 Energies <==================
	-----------------------------------------------------------
	 SCS Same-Spin Scale       =       0.3333333333333333 [-]
	 SCS Opposite-Spin Scale   =       1.2000000000000000 [-]
	 SCS Same-Spin Energy      =      -0.2071151570501419 [Eh]
	 SCS Opposite-Spin Energy  =      -2.2413143947498608 [Eh]
	 SCS Correlation Energy    =      -2.4484295518000025 [Eh]
	 SCS Total Energy          =    -933.5053146993202517 [Eh]
	-----------------------------------------------------------

  Dipole Moment: [D]
     X:     4.4107      Y:     0.9848      Z:     1.8911     Total:     4.8990

*** Psi4 exiting successfully. Buy a developer a beer!
